Control file title. For DL_FIELD 4.10
49984
    1MOL     C1    1   4.053   1.408   5.858  0.7009  0.2855 -0.3138
    1MOL     C2    2   3.953   1.398   5.973  0.0520  0.5766 -0.2037
    1MOL     O3    3   4.147   1.505   5.898  0.2634  0.0778  0.2779
    1MOL     H4    4   4.002   1.418   5.762  0.7360  0.3452 -0.3268
    1MOL     H5    5   4.014   1.378   6.061  0.0782 -2.6746 -0.8980
    1MOL     H6    6   3.880   1.318   5.961  2.7549 -2.0499  0.4231
    1MOL     H7    7   3.882   1.479   5.988 -0.1401 -0.1693  3.5069
    1MOL     H8    8   4.097   1.308   5.851  1.5731  0.6205  0.3159
    1MOL     C9    9   4.112   1.636   5.876 -0.1125 -0.4787  0.2235
    1MOL    C10   10   4.098   1.693   6.020  0.0732  0.1817  0.2298
    1MOL    O11   11   4.212   1.702   5.808  0.0184 -0.3048 -0.3375
    1MOL    H12   12   4.018   1.654   5.825  0.7652  2.6159 -0.3821
    1MOL    H13   13   4.097   1.802   6.011 -1.6449  0.0526 -1.5108
    1MOL    H14   14   4.182   1.663   6.082 -1.1013  0.4571  1.9824
    1MOL    H15   15   4.009   1.649   6.064 -0.5285 -0.5464 -1.6355
    1MOL    C16   16   4.222   1.660   5.675  0.3229 -0.2346 -0.0566
    1MOL    C17   17   4.125   1.747   5.590  0.4950  0.2109 -0.9751
    1MOL    O18   18   4.346   1.699   5.621 -0.1416  0.1420  1.0186
    1MOL    H19   19   4.201   1.553   5.667 -2.6913  0.3035  0.0225
    1MOL    H20   20   4.136   1.727   5.484  1.6870  0.1115 -0.8450
    1MOL    H21   21   4.162   1.849   5.594 -0.4471  0.5754 -1.4184
    1MOL    H22   22   4.020   1.740   5.620  0.7489  0.0015 -0.1088
    1MOL    C23   23   4.447   1.625   5.680 -0.0179  0.1733  0.1792
    1MOL    C24   24   4.503   1.528   5.572  0.1332 -0.7247  0.3159
    1MOL    O25   25   4.551   1.707   5.708 -0.4770 -1.0546 -0.0853
    1MOL    H26   26   4.408   1.555   5.754  0.4973 -1.4886 -1.0869
    1MOL    H27   27   4.543   1.577   5.483 -0.8916  0.0805  0.2850
    1MOL    H28   28   4.423   1.457   5.550  0.9490 -1.8956  1.0203
    1MOL    H29   29   4.584   1.471   5.618 -2.2722 -2.2037  2.8129
    1MOL    C30   30   4.527   1.792   5.823 -0.2601 -0.0835  0.1759
    1MOL    C31   31   4.585   1.724   5.948 -0.7939  0.7054 -0.2755
    1MOL    O32   32   4.612   1.899   5.802 -0.3907 -0.4579 -0.2406
    1MOL    H33   33   4.428   1.834   5.839  0.3459  1.3233  0.3424
    1MOL    H34   34   4.512   1.655   5.991 -0.1828 -0.9524 -1.8072
    1MOL    H35   35   4.620   1.801   6.016 -0.5121  0.1234  0.2475
    1MOL    H36   36   4.660   1.650   5.921  1.1923  2.5707  0.0620
    1MOL    C37   37   4.574   1.977   5.697 -0.8213  0.4300  0.1855
    1MOL    C38   38   4.493   2.094   5.742  0.2924  0.7086  0.1939
    1MOL    O39   39   4.679   2.037   5.625 -0.3971  0.3357  0.4549
    1MOL    H40   40   4.511   1.926   5.624 -1.4884 -0.4284  1.3474
    1MOL    H41   41   4.462   2.156   5.658 -0.2054  0.1156 -0.0686
    1MOL    H42   42   4.546   2.150   5.819 -1.1692  0.7104  1.2150
    1MOL    H43   43   4.399   2.070   5.791 -1.1500  0.8003 -2.4607
    1MOL    C44   44   4.752   1.953   5.541  0.1842 -0.2192 -0.3642
    1MOL    C45   45   4.735   2.016   5.403 -0.1533  0.6316  0.3661
    1MOL    O46   46   4.889   1.947   5.573  0.0065 -0.2738 -0.3424
    1MOL    H47   47   4.713   1.851   5.542 -2.3406  0.7139  1.5976
    1MOL    H48   48   4.631   2.001   5.377  0.4363  1.8031 -2.8481
    1MOL    H49   49   4.780   1.954   5.326 -2.3881 -0.0399 -0.4269
    1MOL    H50   50   4.783   2.112   5.386  0.6977  0.4594  1.6801
    1MOL    C51   51   4.918   1.861   5.670 -0.0228  0.1242  0.2772
    1MOL    C52   52   4.989   1.749   5.599  0.1276 -0.2846  0.2498
    1MOL    O53   53   4.997   1.912   5.769 -0.3794 -0.5741  0.2164
    1MOL    H54   54   4.830   1.818   5.717 -1.8270  0.5596 -2.6059
    1MOL    H55   55   5.064   1.791   5.531  1.0434  0.3589  1.6188
    1MOL    H56   56   4.915   1.692   5.543  1.6646 -2.7343  0.6422
    1MOL    H57   57   5.026   1.684   5.678  0.5648  1.5326  1.5571
    1MOL    C58   58   4.934   2.008   5.853 -0.1676 -0.5859  0.3155
    1MOL    C59   59   4.905   1.933   5.981 -0.2743 -0.8900  1.2892
    1MOL    O60   60   5.022   2.120   5.879  0.0301 -0.0820  0.8916
    1MOL    H61   61   4.844   2.057   5.814  0.0240 -0.9507 -0.6139
    1MOL    H62   62   4.846   2.005   6.037  1.7922  1.6485  0.2655
    1MOL    H63   63   4.994   1.915   6.041  0.7487  0.2446  0.1232
    1MOL    H64   64   4.855   1.839   5.955  1.6372 -0.9811 -2.3354
    1MOL    C65   65   5.046   2.207   5.773 -0.5908  0.3980  0.2875
    1MOL    C66   66   4.994   2.347   5.796 -0.2961  0.0791 -0.0771
    1MOL    O67   67   5.179   2.217   5.741 -0.4734  0.3373 -0.2587
    1MOL    H68   68   4.998   2.168   5.684 -0.0834 -1.4168  0.7911
    1MOL    H69   69   5.032   2.383   5.892  2.0350 -0.3600 -0.8058
    1MOL    H70   70   4.886   2.337   5.807 -0.0271 -3.0344  0.1795
    1MOL    H71   71   5.006   2.417   5.714 -0.9112  0.2903  0.0080
    1MOL    C72   72   5.225   2.126   5.650  0.0237 -0.0525  0.0022
    1MOL    C73   73   5.250   2.204   5.514 -0.1071  0.1915  0.0039
    1MOL    O74   74   5.347   2.083   5.692  0.3448  0.5075 -0.7315
    1MOL    H75   75   5.159   2.044   5.621  0.0508 -0.2039  0.3693
    1MOL    H76   76   5.314   2.291   5.530  2.2911 -1.2410 -1.5571
    1MOL    H77   77   5.153   2.224   5.469 -0.3200 -1.5020 -0.3261
    1MOL    H78   78   5.297   2.136   5.443 -0.1011 -0.4951  0.6552
    1MOL    C79   79   5.337   1.988   5.797  0.0141  0.1543  0.5660
    1MOL    C80   80   5.316   1.844   5.739 -0.4159 -0.5031  1.0913
    1MOL    O81   81   5.460   1.973   5.867  0.3547 -0.3245 -0.1187
    1MOL    H82   82   5.258   2.017   5.867  0.2972  2.7418 -0.1290
    1MOL    H83   83   5.320   1.765   5.814  1.0788  0.7999  2.4180
    1MOL    H84   84   5.396   1.843   5.664  0.7470  4.1757  2.1302
    1MOL    H85   85   5.225   1.824   5.682 -0.9171 -0.1999  1.7843
    1MOL    C86   86   5.487   2.089   5.939 -0.2780 -0.2898  0.2101
    1MOL    C87   87   5.435   2.068   6.077 -0.4668 -0.0840  0.2203
    1MOL    O88   88   5.623   2.110   5.934 -0.1045  0.2062  0.3560
    1MOL    H89   89   5.442   2.180   5.900  1.0454  0.5996  0.7471
    1MOL    H90   90   5.496   1.997   6.133 -0.3406 -0.0782  0.0907
    1MOL    H91   91   5.334   2.027   6.083 -1.5960  2.3681 -1.2906
    1MOL    H92   92   5.436   2.164   6.128 -0.7644  0.3539 -0.5762
    1MOL    C93   93   5.678   2.136   5.807 -0.6310  0.5538  0.5077
    1MOL    C94   94   5.678   2.287   5.794  0.5927 -0.3240 -0.0078
    1MOL    O95   95   5.818   2.103   5.801  0.0145  0.5065 -0.0209
    1MOL    H96   96   5.617   2.083   5.734 -1.7086 -0.3870  2.0684
    1MOL    H97   97   5.577   2.325   5.807  0.0493 -2.6303  3.1222
    1MOL    H98   98   5.727   2.314   5.700 -1.8569 -0.8612 -1.4640
    1MOL    H99   99   5.740   2.324   5.876 -1.3309  0.5218  1.0865
    1MOL   C100  100   5.842   1.968   5.828 -0.2838  0.1960 -0.0308
    1MOL   C101  101   5.875   1.895   5.703 -1.0748 -0.1300  0.8406
    1MOL   O102  102   5.952   1.946   5.910 -0.0084  0.1584  0.1700
    1MOL   H103  103   5.760   1.916   5.879  1.0223 -0.4238  1.4667
    1MOL   H104  104   5.815   1.935   5.621 -0.0623 -1.8064 -0.7434
    1MOL   H105  105   5.853   1.790   5.720 -0.1102 -0.4157  0.3305
    1MOL   H106  106   5.980   1.908   5.679 -2.0975  4.7334 -1.6315
    1MOL   C107  107   5.970   2.035   6.020 -0.1474 -0.5738 -0.1666
    1MOL   C108  108   5.907   1.980   6.148  0.4455  0.8461  0.5403
    1MOL   O109  109   6.103   2.054   6.048 -0.2052 -0.2546  0.0086
    1MOL   H110  110   5.931   2.136   6.006  2.0162  0.3360  0.2124
    1MOL   H111  111   5.807   1.941   6.129  0.4963  0.2430  1.4750
    1MOL   H112  112   5.910   2.047   6.233 -1.2099  1.2385  0.2979
    1MOL   H113  113   5.969   1.893   6.168 -1.7626 -0.7536  0.6202
    1MOL   C114  114   6.175   2.114   5.944  0.2133 -0.6975 -0.2664
    1MOL   C115  115   6.207   2.263   5.973  0.2596 -0.4356 -0.3252
    1MOL   O116  116   6.293   2.056   5.910  0.4704  0.1594  0.5662
    1MOL   H117  117   6.120   2.117   5.850 -1.5952  2.5149  0.8122
    1MOL   H118  118   6.232   2.316   5.882  3.0288  0.8926  1.1185
    1MOL   H119  119   6.278   2.280   6.055 -1.9859 -1.7242  1.9616
    1MOL   H120  120   6.111   2.305   6.002  1.7989  0.8172  3.3008
    1MOL   C121  121   6.278   1.918   5.871 -0.5438  0.2195 -0.1573
    1MOL   C122  122   6.312   1.901   5.720 -0.6304 -0.3231 -0.5143
    1MOL   O123  123   6.375   1.844   5.943  0.3023  0.4465 -0.2558
    1MOL   H124  124   6.176   1.878   5.880 -0.9762  1.5140  0.9129
    1MOL   H125  125   6.402   1.959   5.700 -0.6525  1.1989  3.2026
    1MOL   H126  126   6.230   1.943   5.662 -0.6882 -0.8752 -0.8389
    1MOL   H127  127   6.324   1.798   5.688 -2.3752  0.1430 -2.7697
    1MOL   C128  128   6.352   1.841   6.077  0.7700  0.0614  0.2775
    1MOL   C129  129   6.326   1.698   6.118 -0.3734 -0.5238 -0.6666
    1MOL   O130  130   6.460   1.876   6.160  0.4198 -0.1566  0.3054
    1MOL   H131  131   6.269   1.900   6.113  1.2050 -0.5847  2.3890
    1MOL   H132  132   6.275   1.698   6.214  1.4437 -0.8700  0.3225
    1MOL   H133  133   6.414   1.633   6.123 -0.3050 -0.4523 -0.9154
    1MOL   H134  134   6.268   1.656   6.035 -0.8130 -2.6482  0.6808
    1MOL   C135  135   6.506   2.002   6.136  0.3539  0.1025 -1.0606
    1MOL   C136  136   6.423   2.094   6.229  0.3598  0.3267 -0.3584
    1MOL   O137  137   6.646   2.003   6.174 -0.4973 -0.6081  0.3302
    1MOL   H138  138   6.496   2.033   6.032  1.5221 -0.6319 -1.4071
    1MOL   H139  139   6.466   2.194   6.225  1.1614 -0.0485 -1.4760
    1MOL   H140  140   6.449   2.056   6.328  0.7394 -0.7449 -0.8642
    1MOL   H141  141   6.316   2.099   6.209 -0.2630  1.4798  2.8243
    1MOL   H142  142   6.687   2.051   6.104 -0.0260  1.0817  1.7213
    2MOL     C1  143   2.664   4.534   6.445  0.3304  0.1126  0.7526
    2MOL     C2  144   2.710   4.638   6.543  0.1550 -0.0178  0.4849
    2MOL     O3  145   2.532   4.486   6.488  0.2346  0.5436  0.4523
    2MOL     H4  146   2.734   4.452   6.438  1.9730  1.6223 -1.0478
    2MOL     H5  147   2.654   4.730   6.559 -1.7469 -1.3308  1.5308
    2MOL     H6  148   2.810   4.672   6.515  0.2551 -1.4685 -0.9811
    2MOL     H7  149   2.716   4.588   6.640  0.8740  0.9517  0.9453
    2MOL     H8  150   2.654   4.581   6.347 -1.8120 -1.1802  0.3209
    2MOL     C9  151   2.498   4.347   6.463  0.5424 -0.7904 -0.4397
    2MOL    C10  152   2.479   4.331   6.311  0.7281  0.1444  0.7426
    2MOL    O11  153   2.580   4.252   6.511 -0.4687  0.6005 -0.1438
    2MOL    H12  154   2.397   4.346   6.503  0.6275  2.5961 -0.0096
    2MOL    H13  155   2.577   4.356   6.270  1.0411 -1.9448  0.1619
    2MOL    H14  156   2.398   4.397   6.282  0.7015  0.2125  0.9686
    2MOL    H15  157   2.452   4.230   6.282  0.3045  0.1363  1.1756
    2MOL    C16  158   2.600   4.254   6.649  0.0858 -0.1106  0.1830
    2MOL    C17  159   2.487   4.181   6.723  0.8599 -0.7233  0.5523
    2MOL    O18  160   2.717   4.185   6.684  1.3673  0.2077 -0.2069
    2MOL    H19  161   2.609   4.357   6.682  3.3987 -0.6808  1.2512
    2MOL    H20  162   2.477   4.079   6.686  1.8723 -0.2979 -0.9439
    2MOL    H21  163   2.396   4.238   6.703 -0.1370 -2.1737  0.9104
    2MOL    H22  164   2.502   4.179   6.831  3.1276 -2.4737  0.2364
    2MOL    C23  165   2.829   4.212   6.605 -0.1425 -0.0530  0.9853
    2MOL    C24  166   2.910   4.332   6.667 -0.1291 -0.3719  0.0625
    2MOL    O25  167   2.918   4.103   6.607  0.2181 -0.0933  0.2483
    2MOL    H26  168   2.800   4.225   6.500  1.0392  0.3138  0.6908
    2MOL    H27  169   2.837   4.407   6.701 -1.0794 -2.2440  2.2842
    2MOL    H28  170   2.989   4.370   6.602  1.1238 -1.2153  1.0914
    2MOL    H29  171   2.944   4.305   6.766 -1.8568  0.5088  0.9301
    2MOL    C30  172   2.864   3.980   6.560 -0.5382 -0.3293  0.2055
    2MOL    C31  173   2.936   3.931   6.437 -0.4706  0.8855 -0.3596
    2MOL    O32  174   2.881   3.877   6.651  0.1204 -0.1227  0.0344
    2MOL    H33  175   2.761   3.980   6.525 -0.3443 -2.5909 -0.4335
    2MOL    H34  176   2.940   4.019   6.373 -1.2538  2.6059  1.8815
    2MOL    H35  177   2.875   3.857   6.384 -2.1710 -1.5007  4.5290
    2MOL    H36  178   3.029   3.885   6.469 -1.9362  0.4870  3.6850
    2MOL    C37  179   2.782   3.871   6.745  0.0381 -0.3065 -0.3551
    2MOL    C38  180   2.679   3.761   6.703  0.5672 -0.1295 -0.2292
    2MOL    O39  181   2.846   3.829   6.862 -0.1630 -0.0996  0.4849
    2MOL    H40  182   2.731   3.967   6.750 -0.4443 -0.6500  1.6923
    2MOL    H41  183   2.589   3.769   6.765  1.1004  0.8181  0.4307
    2MOL    H42  184   2.713   3.657   6.705 -2.2131 -1.1085 -0.7712
    2MOL    H43  185   2.641   3.780   6.603  0.0371  0.2562  0.0444
    2MOL    C44  186   2.929   3.923   6.921 -0.0592 -0.4511 -0.2885
    2MOL    C45  187   2.851   3.998   7.017 -0.1251 -0.6990  0.1153
    2MOL    O46  188   3.046   3.864   6.978  0.2898  0.2015  0.7454
    2MOL    H47  189   2.972   3.992   6.848 -0.8152 -0.9066 -1.1659
    2MOL    H48  190   2.805   3.933   7.091  1.1613 -2.5101 -0.6195
    2MOL    H49  191   2.774   4.057   6.968  0.1491 -0.1584  0.3272
    2MOL    H50  192   2.911   4.076   7.064 -1.2695 -0.7898  1.7711
    2MOL    C51  193   3.139   3.815   6.884 -0.1947 -0.2672 -0.3387
    2MOL    C52  194   3.260   3.908   6.873  0.0778 -0.1066  0.6098
    2MOL    O53  195   3.183   3.682   6.911  0.8272  0.6006 -0.0591
    2MOL    H54  196   3.096   3.808   6.784  0.1764  2.9381 -0.7632
    2MOL    H55  197   3.238   4.005   6.828 -0.7547 -1.5877 -2.2861
    2MOL    H56  198   3.346   3.863   6.823 -0.2495  0.1716 -0.2030
    2MOL    H57  199   3.303   3.932   6.971  1.2864 -2.6231  0.7391
    2MOL    C58  200   3.083   3.585   6.915  0.5544  0.1243 -0.1224
    2MOL    C59  201   3.084   3.502   6.780  0.0361  0.1074  0.1874
    2MOL    O60  202   3.098   3.492   7.015  0.5080 -0.2619 -0.3655
    2MOL    H61  203   2.985   3.630   6.934  1.7871  2.7286  0.3744
    2MOL    H62  204   2.985   3.457   6.781 -0.3840  0.9262 -1.8676
    2MOL    H63  205   3.155   3.419   6.784  1.6901  1.5429  1.8529
    2MOL    H64  206   3.099   3.560   6.689 -0.1523  0.1219  0.1662
    2MOL    C65  207   3.073   3.552   7.146  0.1181  0.2847 -0.8617
    2MOL    C66  208   2.953   3.479   7.213 -0.2633 -0.5446 -0.0316
    2MOL    O67  209   3.188   3.544   7.228  0.2133  1.0888 -0.4120
    2MOL    H68  210   3.039   3.655   7.136  2.3209  0.9614 -1.7633
    2MOL    H69  211   2.935   3.526   7.310  1.1078 -0.3326  0.1286
    2MOL    H70  212   2.974   3.375   7.236  2.6423 -0.0341 -0.1994
    2MOL    H71  213   2.864   3.498   7.154  0.1859  1.3959 -0.1354
    2MOL    C72  214   3.233   3.667   7.268  0.0564 -0.1042  0.0139
    2MOL    C73  215   3.152   3.712   7.389  0.0414  0.9552  0.6154
    2MOL    O74  216   3.364   3.651   7.306 -0.4871  0.1581  0.0122
    2MOL    H75  217   3.225   3.744   7.191 -2.6822 -0.7665 -0.4010
    2MOL    H76  218   3.187   3.805   7.433  0.3706  2.7877 -3.2987
    2MOL    H77  219   3.147   3.638   7.468  2.0345 -1.3007 -1.2600
    2MOL    H78  220   3.049   3.729   7.357  0.2973  2.8951  0.8053
    2MOL    C79  221   3.449   3.621   7.201  0.4416  0.3372  0.1919
    2MOL    C80  222   3.514   3.752   7.169 -0.2206  0.4489  0.0482
    2MOL    O81  223   3.544   3.525   7.233  0.0252  0.3323 -0.1438
    2MOL    H82  224   3.395   3.584   7.114 -0.1295  0.5683  0.4442
    2MOL    H83  225   3.431   3.819   7.144 -2.2546 -1.9218  0.2406
    2MOL    H84  226   3.572   3.737   7.078  2.9072 -0.8687  2.1685
    2MOL    H85  227   3.578   3.789   7.249 -0.2019  0.3108  0.0977
    2MOL    C86  228   3.497   3.410   7.299  0.6601 -0.5623 -0.5836
    2MOL    C87  229   3.526   3.294   7.200  0.2173  0.0135  0.8051
    2MOL    O88  230   3.564   3.383   7.429 -0.4256 -0.2719  0.6237
    2MOL    H89  231   3.390   3.406   7.318  0.7857  0.9006  0.4499
    2MOL    H90  232   3.468   3.304   7.108  1.7511 -1.4314 -0.3406
    2MOL    H91  233   3.512   3.195   7.243  0.3437 -0.0814  0.6274
    2MOL    H92  234   3.631   3.305   7.172  0.7219 -3.6730  1.0266
    2MOL    C93  235   3.543   3.482   7.528 -0.0746  0.1630  0.2962
    2MOL    C94  236   3.423   3.446   7.606 -0.3127 -0.0421 -0.2061
    2MOL    O95  237   3.651   3.467   7.615  0.0289  0.4089  0.1204
    2MOL    H96  238   3.549   3.583   7.490  1.4866 -0.7086 -1.8203
    2MOL    H97  239   3.400   3.515   7.688  1.3021 -0.4851  0.6360
    2MOL    H98  240   3.421   3.344   7.644 -0.5511  0.5418  1.4096
    2MOL    H99  241   3.347   3.450   7.528  0.0887  2.6821 -0.4985
    2MOL   C100  242   3.781   3.496   7.561  0.0114 -0.4420  0.6776
    2MOL   C101  243   3.823   3.641   7.587  0.2820  0.0008  0.4390
    2MOL   O102  244   3.872   3.411   7.619 -0.0296  0.8981 -0.0390
    2MOL   H103  245   3.784   3.483   7.453  2.1079  3.4007  0.1835
    2MOL   H104  246   3.756   3.708   7.534  1.6908  0.0579 -1.2974
    2MOL   H105  247   3.929   3.650   7.566  0.6804  0.2213  2.3979
    2MOL   H106  248   3.815   3.649   7.696 -2.2340  0.5147  0.2464
    2MOL   C107  249   3.866   3.279   7.586 -0.5411  0.4088  0.0522
    2MOL   C108  250   3.927   3.257   7.442  1.0462 -0.3872 -0.1227
    2MOL   O109  251   3.943   3.213   7.677 -0.4011 -0.1436  0.0933
    2MOL   H110  252   3.763   3.245   7.595 -0.8848  1.7138  1.0733
    2MOL   H111  253   3.871   3.306   7.362  0.5880 -3.9342 -2.1042
    2MOL   H112  254   3.924   3.150   7.422 -2.4397 -1.0492  3.2650
    2MOL   H113  255   4.033   3.283   7.441  0.7943  0.9387  3.1282
    2MOL   C114  256   3.881   3.204   7.799  0.5497  0.1726  0.9490
    2MOL   C115  257   3.837   3.053   7.811  0.7656 -0.2352 -0.9840
    2MOL   O116  258   3.972   3.224   7.907  0.7061 -0.3880  0.0111
    2MOL   H117  259   3.801   3.276   7.812  1.7438  1.7308 -0.1485
    2MOL   H118  260   3.923   2.990   7.788  0.4449 -0.5257 -1.3959
    2MOL   H119  261   3.764   3.030   7.733  0.5180 -1.8456 -0.2949
    2MOL   H120  262   3.801   3.044   7.913 -0.9060  2.8600 -1.2567
    2MOL   C121  263   4.051   3.344   7.905  0.1781 -0.1270  0.1143
    2MOL   C122  264   3.975   3.448   0.086 -0.7660  0.2924  0.3605
    2MOL   O123  265   4.172   3.320   0.063 -0.3516 -0.8111 -0.3124
    2MOL   H124  266   4.082   3.381   7.808 -0.0456  1.0986  0.5097
    2MOL   H125  267   4.019   3.547   0.080  2.1415 -0.9073  0.8877
    2MOL   H126  268   3.989   3.414   0.189  1.7450 -0.7853 -0.2978
    2MOL   H127  269   3.867   3.442   0.076 -0.8634  0.6849  1.1925
    2MOL   C128  270   4.256   3.230   7.902 -0.4432 -0.4445 -1.1051
    2MOL   C129  271   4.398   3.289   7.882 -0.1224 -0.2160  0.1376
    2MOL   O130  272   4.281   3.111   0.053  0.0069  1.0261  0.6603
    2MOL   H131  273   4.217   3.216   7.801 -0.6050  1.6235 -1.3649
    2MOL   H132  274   4.449   3.314   0.061 -0.0951  4.0712 -0.9221
    2MOL   H133  275   4.381   3.387   7.838 -0.0817  0.7545  2.2193
    2MOL   H134  276   4.458   3.221   7.822 -0.6457 -1.9482  1.5253
    2MOL   C135  277   4.181   3.015   0.046 -0.3233 -0.9617  0.2971
    2MOL   C136  278   4.259   2.886   0.069  1.0784  0.1837  0.3131
    2MOL   O137  279   4.085   3.032   0.144  0.7416 -0.0454 -0.5768
    2MOL   H138  280   4.138   3.022   7.860 -3.5776 -2.3472  1.5186
    2MOL   H139  281   4.350   2.901   0.010  0.3415 -0.4334 -0.9910
    2MOL   H140  282   4.210   2.800   0.022 -0.5724  2.0379 -1.4137
    2MOL   H141  283   4.291   2.867   0.172  2.9646 -1.5703 -0.5366
    2MOL   H142  284   4.016   3.080   0.101  0.4389 -1.2329 -1.4534
    3MOL     C1  285   6.633   6.460   3.067 -0.4338  0.0262 -0.3369
    3MOL     C2  286   6.634   6.566   2.954 -0.4692 -0.2618 -0.3013
    3MOL     O3  287   6.758   6.470   3.136 -0.3501 -0.0189 -0.4950
    3MOL     H4  288   6.614   6.358   3.035  0.7006  0.1793 -1.5262
    3MOL     H5  289   6.536   6.569   2.905 -0.5390 -0.6115 -0.1832
    3MOL     H6  290   6.711   6.545   2.880  1.4765  1.3873  1.2107
    3MOL     H7  291   6.651   6.670   2.980  0.6231 -0.6962  0.7297
    3MOL     H8  292   6.572   6.480   3.155  1.8370  0.3489  1.2171
    3MOL     C9  293   6.778   6.367   3.229 -0.2686  0.2834  0.6304
    3MOL    C10  294   6.863   6.252   3.160  0.2420  0.2022  0.3935
    3MOL    O11  295   6.851   6.402   3.340 -0.7241  0.0507  0.7855
    3MOL    H12  296   6.686   6.323   3.267  0.4361  0.3003  2.4078
    3MOL    H13  297   6.956   6.300   3.129 -0.0840 -0.0217 -0.9611
    3MOL    H14  298   6.829   6.211   3.065  0.3426 -1.4157  1.0327
    3MOL    H15  299   6.880   6.174   3.235 -0.5835 -1.3839 -1.0198
    3MOL    C16  300   6.791   6.508   3.406  0.1158 -0.4439  0.2947
    3MOL    C17  301   6.778   6.465   3.551  0.1392 -0.4600  0.4247
    3MOL    O18  302   6.882   6.616   3.407  0.4822 -0.7818  0.1405
    3MOL    H19  303   6.691   6.536   3.375  0.7086 -0.7851 -1.9824
    3MOL    H20  304   6.875   6.426   3.581  0.4348  1.2801  1.7990
    3MOL    H21  305   6.693   6.397   3.565  0.8156 -1.0318  1.9110
    3MOL    H22  306   6.757   6.557   3.604 -2.0700 -0.9337  0.4208
    3MOL    C23  307   6.839   6.716   3.319  0.5815  0.3672  0.7280
    3MOL    C24  308   6.783   6.834   3.401  0.3148 -0.4252 -0.2735
    3MOL    O25  309   6.941   6.764   3.247 -0.1424 -0.5320  0.4631
    3MOL    H26  310   6.773   6.679   3.241  0.5129  1.6653  0.1474
    3MOL    H27  311   6.697   6.798   3.458  0.7189 -0.1347  0.5277
    3MOL    H28  312   6.749   6.914   3.335  0.7572  0.4995  0.6110
    3MOL    H29  313   6.854   6.869   3.475  0.2938 -1.0032  0.0164
    3MOL    C30  314   7.013   6.677   3.152 -0.1587  0.7783 -1.0165
    3MOL    C31  315   6.983   6.723   3.013  0.2001  0.4261  0.3417
    3MOL    O32  316   7.153   6.676   3.160 -0.2332  0.1580 -0.3641
    3MOL    H33  317   6.985   6.572   3.166 -0.5338  1.1244  0.8519
    3MOL    H34  318   6.906   6.664   2.964 -0.1694  1.4494 -0.3070
    3MOL    H35  319   7.067   6.724   2.944 -0.6933 -0.9519 -0.7962
    3MOL    H36  320   6.944   6.824   3.010 -1.5239 -0.2596 -0.8572
    3MOL    C37  321   7.198   6.627   3.279  0.0967 -0.2355  0.5417
    3MOL    C38  322   7.266   6.491   3.248  0.2024 -0.2472  0.0888
    3MOL    O39  323   7.293   6.698   3.339 -0.5610 -0.0051 -0.3938
    3MOL    H40  324   7.120   6.617   3.355 -0.7623  0.5553 -0.2358
    3MOL    H41  325   7.201   6.418   3.199 -1.3011  0.3984  1.0737
    3MOL    H42  326   7.284   6.435   3.340  0.2845  0.6382  0.6218
    3MOL    H43  327   7.360   6.508   3.196  1.3405 -1.9278  1.5434
    3MOL    C44  328   7.250   6.821   3.387  0.1180  0.2786  0.0221
    3MOL    C45  329   7.244   6.811   3.539 -0.0273  0.7283  0.7355
    3MOL    O46  330   7.339   6.927   3.350  0.3302  0.3359  0.2324
    3MOL    H47  331   7.148   6.843   3.356  0.3444 -1.3471 -1.9467
    3MOL    H48  332   7.341   6.813   3.588  0.7322  0.5956 -0.7227
    3MOL    H49  333   7.190   6.729   3.585  0.6536  0.0037  0.2462
    3MOL    H50  334   7.192   6.899   3.577  0.7128  1.5010 -0.0175
    3MOL    C51  335   7.338   6.964   3.215  0.5628 -0.3887  0.3562
    3MOL    C52  336   7.286   7.115   3.204 -0.2551  0.8463  0.1069
    3MOL    O53  337   7.473   6.961   3.172 -0.0373  0.2498 -0.0478
    3MOL    H54  338   7.287   6.894   3.148 -0.7594 -1.2445  2.1969
    3MOL    H55  339   7.336   7.188   3.268  2.4970 -1.0309  0.2005
    3MOL    H56  340   7.185   7.113   3.245 -0.8563  0.1568 -1.4049
    3MOL    H57  341   7.265   7.144   3.102 -3.3987  0.1431  0.4911
    3MOL    C58  342   7.515   6.825   3.138 -0.4311 -0.8814  0.0986
    3MOL    C59  343   7.534   6.828   2.982 -0.0022 -0.7994 -0.2100
    3MOL    O60  344   7.647   6.798   3.186  0.2649  0.2187 -0.5585
    3MOL    H61  345   7.448   6.746   3.172 -0.7813 -0.5857  0.1070
    3MOL    H62  346   7.568   6.729   2.951 -1.2339 -2.4120  3.3127
    3MOL    H63  347   7.608   6.906   2.964 -0.2050 -0.2020  1.4231
    3MOL    H64  348   7.438   6.851   2.936 -1.3549 -1.2129  2.2710
    3MOL    C65  349   7.658   6.743   3.314 -0.4219  0.1022  0.5975
    3MOL    C66  350   7.739   6.612   3.294 -0.1706  0.0626  0.7995
    3MOL    O67  351   7.730   6.824   3.408  0.2059 -0.1965 -0.0446
    3MOL    H68  352   7.562   6.724   3.360  0.2423 -0.1693  1.8842
    3MOL    H69  353   7.759   6.559   3.388  0.8904 -0.9441  0.0244
    3MOL    H70  354   7.829   6.622   3.233  0.9812 -0.6884  2.3243
    3MOL    H71  355   7.668   6.559   3.230 -0.9387  1.0622  0.8189
    3MOL    C72  356   7.656   6.933   3.457  0.7823 -0.3777 -0.7073
    3MOL    C73  357   7.620   6.897   3.598  0.3688 -0.0196 -0.0889
    3MOL    O74  358   7.723   7.057   3.461  0.0224  0.0151 -0.1599
    3MOL    H75  359   7.562   6.959   3.407  1.5253  1.8549 -1.0318
    3MOL    H76  360   7.552   6.976   3.631 -2.8103 -2.6117 -0.0926
    3MOL    H77  361   7.715   6.888   3.649  1.8936  1.9539 -2.4809
    3MOL    H78  362   7.559   6.807   3.601  0.2494  0.1103  1.6683
    3MOL    C79  363   7.709   7.139   3.344 -0.2550  0.3305  0.3447
    3MOL    C80  364   7.666   7.269   3.391  0.5293  0.1745 -0.3021
    3MOL    O81  365   7.831   7.155   3.281 -0.0269  0.0349  0.0110
    3MOL    H82  366   7.631   7.102   3.277 -0.1920  0.2995  0.2870
    3MOL    H83  367   7.652   7.344   3.313 -2.1233  0.9599  0.8628
    3MOL    H84  368   7.732   7.302   3.471 -0.0872  0.2689  0.1768
    3MOL    H85  369   7.566   7.263   3.434  0.5182  0.2403 -0.3186
    3MOL    C86  370   7.870   7.055   3.195  0.4860 -0.0142 -0.2953
    3MOL    C87  371   7.830   7.096   3.055 -0.1968 -0.0930 -0.2166
    3MOL    O88  372   0.094   7.025   3.205 -0.2798  0.9036 -0.1272
    3MOL    H89  373   7.828   6.957   3.218  0.4327 -0.9074 -3.9107
    3MOL    H90  374   7.885   7.046   2.975 -2.1765  1.6021 -2.7473
    3MOL    H91  375   7.850   7.202   3.036  0.4017 -0.1157  0.2884
    3MOL    H92  376   7.721   7.085   3.055 -0.3071  0.9314  1.3284
    3MOL    C93  377   0.135   6.962   3.323  0.1584 -0.0996 -0.1342
    3MOL    C94  378   0.184   6.818   3.279  0.5490 -0.5325  0.1931
    3MOL    O95  379   0.245   7.031   3.370  0.2573  0.1683 -0.3694
    3MOL    H96  380   0.058   6.955   3.401 -1.3499 -0.7017 -1.6424
    3MOL    H97  381   0.239   6.825   3.185  1.2639 -0.7307  0.5912
    3MOL    H98  382   0.097   6.763   3.243 -2.1852  1.6625  3.1416
    3MOL    H99  383   0.222   6.761   3.364  0.6144 -1.4425 -0.4462
    3MOL   C100  384   0.208   7.130   3.459  0.3208  0.2281 -0.1985
    3MOL   C101  385   0.200   7.058   3.595 -0.4256  0.4603  0.8265
    3MOL   O102  386   0.298   7.232   3.466  0.4879  0.4098 -0.1005
    3MOL   H103  387   0.105   7.162   3.439  1.1334  1.4472 -2.6344
    3MOL   H104  388   0.196   7.132   3.674  0.2251 -0.9700  2.2279
    3MOL   H105  389   0.298   7.013   3.611 -0.5444 -0.3472 -0.5986
    3MOL   H106  390   0.120   6.986   3.614  0.3416 -0.6013  0.1438
    3MOL   C107  391   0.314   7.311   3.353 -0.0759 -0.2693  0.2706
    3MOL   C108  392   0.232   7.434   3.366  0.2754  0.1952  0.1337
    3MOL   O109  393   0.442   7.364   3.341 -0.5267  0.4657 -0.6008
    3MOL   H110  394   0.287   7.255   3.263 -0.3917  0.7248 -0.2592
    3MOL   H111  395   0.275   7.495   3.446 -0.7417 -1.0758  1.6851
    3MOL   H112  396   0.128   7.411   3.389  0.3830 -2.1483 -1.6413
    3MOL   H113  397   0.240   7.500   3.280  1.0245  0.4006  0.3527
    3MOL   C114  398   0.542   7.276   3.326  0.1332  0.1997  0.0236
    3MOL   C115  399   0.593   7.280   3.181 -0.3855 -0.0955  0.6805
    3MOL   O116  400   0.651   7.311   3.411  0.3159 -0.0318  0.1895
    3MOL   H117  401   0.517   7.175   3.359  1.8045 -1.2722 -2.9619
    3MOL   H118  402   0.516   7.251   3.110 -0.4047  1.1244  0.1891
    3MOL   H119  403   0.688   7.227   3.186 -1.3466 -1.8276  1.0576
    3MOL   H120  404   0.624   7.384   3.171  0.6204 -0.4144  0.4133
    3MOL   C121  405   0.633   7.277   3.543  0.0461 -0.6031 -0.2273
    3MOL   C122  406   0.699   7.147   3.577  0.8130 -0.6454 -0.8328
    3MOL   O123  407   0.690   7.373   3.622  0.5971  0.0276  0.3445
    3MOL   H124  408   0.527   7.276   3.571  0.5306 -0.4538  1.6571
    3MOL   H125  409   0.713   7.131   3.683 -0.5204 -1.4945 -0.7711
    3MOL   H126  410   0.804   7.153   3.548  0.7576  1.0713 -0.7280
    3MOL   H127  411   0.660   7.054   3.536 -0.3162 -0.5555  0.0317
    3MOL   C128  412   0.603   7.481   3.663  0.0767  0.6603  0.3194
    3MOL   C129  413   0.616   7.489   3.813 -0.6483 -0.1888 -0.1807
    3MOL   O130  414   0.635   7.600   3.611  0.3535 -0.1719  0.2592
    3MOL   H131  415   0.497   7.456   3.655  0.4061 -1.0740  1.2300
    3MOL   H132  416   0.709   7.543   3.828  0.1739 -1.8147  0.7684
    3MOL   H133  417   0.610   7.392   3.862 -1.0305  1.3859  2.9936
    3MOL   H134  418   0.533   7.549   3.850 -1.1892 -1.7561  1.2091
    3MOL   C135  419   0.585   7.632   3.478 -0.3359 -0.3526  0.0822
    3MOL   C136  420   0.583   7.787   3.465  0.2677 -0.4196 -0.8797
    3MOL   O137  421   0.671   7.583   3.374  0.2895  0.5754 -0.1491
    3MOL   H138  422   0.489   7.584   3.457  0.8358 -1.8618 -2.0529
    3MOL   H139  423   0.681   7.821   3.498  0.6116 -0.6684 -1.6525
    3MOL   H140  424   0.515   7.842   3.530  0.1544 -0.1863 -1.1970
    3MOL   H141  425   0.551   7.821   3.367  3.1639 -0.9612 -2.0592
    3MOL   H142  426   0.666   7.489   3.371  0.3560  0.5889 -0.6590
    4MOL     C1  427   2.513   5.685   0.520 -0.3076  0.1070  0.4365
    4MOL     C2  428   2.576   5.571   0.603  0.1405 -0.0492  0.1517
    4MOL     O3  429   2.503   5.641   0.388 -0.5224  0.2227  0.0804
    4MOL     H4  430   2.570   5.778   0.526  0.9422 -0.6046 -0.1775
    4MOL     H5  431   2.592   5.595   0.708 -0.0135 -1.6349  0.5568
    4MOL     H6  432   2.663   5.528   0.553 -1.0964  0.1913 -2.2582
    4MOL     H7  433   2.496   5.497   0.603 -0.0612  0.1436 -2.1136
    4MOL     H8  434   2.411   5.703   0.554 -0.3908  1.4424 -0.4761
    4MOL     C9  435   2.387   5.686   0.311 -0.3529  0.2974 -0.3057
    4MOL    C10  436   2.398   5.831   0.296 -0.2596 -0.2971 -0.2834
    4MOL    O11  437   2.397   5.638   0.175 -0.1491  0.4879 -0.8357
    4MOL    H12  438   2.293   5.657   0.358  0.4272 -0.0965  1.0521
    4MOL    H13  439   2.495   5.857   0.253 -1.3765  3.5753 -0.6352
    4MOL    H14  440   2.382   5.876   0.394  0.2724 -0.7160 -0.0009
    4MOL    H15  441   2.327   5.874   0.226  1.8989  0.8838 -1.8138
    4MOL    C16  442   2.378   5.501   0.159 -0.2539 -0.3235 -0.3034
    4MOL    C17  443   2.231   5.462   0.174 -0.6097 -0.6025 -0.3473
    4MOL    O18  444   2.417   5.460   0.033  0.6448  0.0688  0.3754
    4MOL    H19  445   2.437   5.455   0.239 -1.5695 -1.3347  0.1138
    4MOL    H20  446   2.183   5.495   0.266  0.7222 -2.6987  1.1381
    4MOL    H21  447   2.231   5.354   0.170 -0.0338 -0.7183  1.9314
    4MOL    H22  448   2.172   5.483   0.085  0.5062 -0.4325 -1.0545
    4MOL    C23  449   2.551   5.441   0.008  0.0479  0.0699 -0.1962
    4MOL    C24  450   2.565   5.293   7.890  0.0701  0.1430 -0.0176
    4MOL    O25  451   2.599   5.491   7.803  0.0451 -0.0994  0.0219
    4MOL    H26  452   2.614   5.464   0.094  1.2356  1.2800 -1.3706
    4MOL    H27  453   2.658   5.248   7.859  0.5514  1.2709 -0.2319
    4MOL    H28  454   2.492   5.278   7.810 -0.1741  2.0942 -0.1843
    4MOL    H29  455   2.514   5.237   0.055  2.4154 -3.8878 -1.2188
    4MOL    C30  456   2.640   5.619   7.807  0.4805 -0.6102  0.0709
    4MOL    C31  457   2.796   5.620   7.792  0.0970  0.4399 -0.1682
    4MOL    O32  458   2.593   5.687   7.697 -0.2047  0.1192 -0.2877
    4MOL    H33  459   2.610   5.675   7.896  1.6733  1.3748 -0.7550
    4MOL    H34  460   2.830   5.563   7.706  0.9591  2.7162 -1.3638
    4MOL    H35  461   2.852   5.575   7.875  1.0119  0.5772 -0.6961
    4MOL    H36  462   2.832   5.722   7.784  0.8128  0.3542  1.6069
    4MOL    C37  463   2.454   5.692   7.686  0.6342 -0.6597 -0.2280
    4MOL    C38  464   2.406   5.836   7.687 -0.3447  0.6780  0.4149
    4MOL    O39  465   2.415   5.637   7.564 -0.5262  0.0515  0.4762
    4MOL    H40  466   2.400   5.644   7.768  1.8871  0.9780  1.5971
    4MOL    H41  467   2.456   5.886   7.604  1.0926 -0.9310  0.2837
    4MOL    H42  468   2.415   5.888   7.782 -4.7116  2.8313 -0.1801
    4MOL    H43  469   2.299   5.836   7.662 -0.4373 -1.8415  0.5979
    4MOL    C44  470   2.388   5.497   7.564 -0.3145  0.1471 -0.1023
    4MOL    C45  471   2.245   5.485   7.523  0.5091 -0.7376  0.5473
    4MOL    O46  472   2.452   5.445   7.452  0.5792  0.4108  0.3761
    4MOL    H47  473   2.405   5.440   7.655  0.0862  1.6450  0.7771
    4MOL    H48  474   2.234   5.524   7.422  0.1736 -1.9301  0.1085
    4MOL    H49  475   2.183   5.540   7.593  0.1975 -1.5991  0.9608
    4MOL    H50  476   2.227   5.380   7.497 -0.3256  0.0349 -2.1661
    4MOL    C51  477   2.588   5.433   7.476  0.5197 -0.1154  0.2484
    4MOL    C52  478   2.627   5.289   7.503 -0.3222 -0.1033  0.5478
    4MOL    O53  479   2.657   5.475   7.353 -0.7499 -0.0927 -0.1991
    4MOL    H54  480   2.629   5.497   7.554  1.2582  0.9051 -0.9694
    4MOL    H55  481   2.724   5.283   7.552  1.0553  1.7817 -1.8320
    4MOL    H56  482   2.631   5.237   7.406  0.4277 -0.7383  0.9146
    4MOL    H57  483   2.549   5.249   7.568 -1.3893  2.3585  0.8052
    4MOL    C58  484   2.651   5.610   7.328 -0.4653  0.1640  0.2304
    4MOL    C59  485   2.789   5.679   7.355  0.3238  0.1231  0.5124
    4MOL    O60  486   2.629   5.627   7.195  0.1357 -0.0170  0.3813
    4MOL    H61  487   2.575   5.662   7.386  0.5856  0.6946  1.1628
    4MOL    H62  488   2.819   5.680   7.459  1.2857  1.6444  0.2403
    4MOL    H63  489   2.776   5.784   7.329  1.1320 -0.0852 -0.8304
    4MOL    H64  490   2.864   5.642   7.284 -0.0036 -0.4219  0.4513
    4MOL    C65  491   2.497   5.597   7.165 -0.0741  1.0123 -0.2649
    4MOL    C66  492   2.450   5.725   7.095  0.2367  0.3166 -0.1830
    4MOL    O67  493   2.501   5.489   7.074  0.7808 -0.2082 -0.3029
    4MOL    H68  494   2.441   5.574   7.256 -0.6109 -1.2509 -1.1315
    4MOL    H69  495   2.345   5.726   7.067  0.3874  1.8500 -0.7863
    4MOL    H70  496   2.505   5.751   7.004  1.4412 -0.9198  0.1790
    4MOL    H71  497   2.454   5.812   7.160  2.5598  0.7768 -0.8718
    4MOL    C72  498   2.464   5.366   7.128 -0.9082 -0.0984  0.0698
    4MOL    C73  499   2.310   5.348   7.111 -0.8618  0.3801 -0.3045
    4MOL    O74  500   2.529   5.262   7.063 -0.4220 -0.2265  0.2222
    4MOL    H75  501   2.494   5.353   7.232  0.4045 -0.3782 -0.3353
    4MOL    H76  502   2.283   5.249   7.148 -1.1398  0.6972  0.3506
    4MOL    H77  503   2.300   5.354   7.003  0.0887  0.3362 -0.4029
    4MOL    H78  504   2.265   5.430   7.166  1.2849 -0.3740  2.6699
    4MOL    C79  505   2.654   5.226   7.099 -0.1390 -0.8793  0.3206
    4MOL    C80  506   2.642   5.080   7.159 -0.3387  0.6882  0.4105
    4MOL    O81  507   2.726   5.216   6.983  0.0420 -0.6550  0.5846
    4MOL    H82  508   2.705   5.296   7.167  1.2377 -0.2685 -1.2942
    4MOL    H83  509   2.736   5.043   7.201 -0.2231  1.8453  1.1947
    4MOL    H84  510   2.618   5.018   7.073  0.7389  0.1203  0.5096
    4MOL    H85  511   2.560   5.073   7.231 -0.2846  1.3206  0.5401
    4MOL    C86  512   2.779   5.334   6.935  0.3976 -0.4362 -0.4413
    4MOL    C87  513   2.933   5.327   6.941  1.0128  0.6174  0.4307
    4MOL    O88  514   2.739   5.355   6.798  0.2058 -0.1177  0.2830
    4MOL    H89  515   2.739   5.419   6.991  2.6580  1.8146 -2.1730
    4MOL    H90  516   2.969   5.258   6.864  1.5678  1.2449  0.1205
    4MOL    H91  517   2.959   5.280   7.036 -0.1052 -3.8032 -1.3072
    4MOL    H92  518   2.985   5.422   6.928  1.1491  0.7320  1.7544
    4MOL    C93  519   2.614   5.416   6.784  1.0448 -0.2439 -0.0782
    4MOL    C94  520   2.634   5.567   6.761  0.5930 -0.2558 -0.5977
    4MOL    O95  521   2.540   5.368   6.683 -0.1024 -0.0054  0.3290
    4MOL    H96  522   2.549   5.408   6.871  0.1632  0.3464 -0.6740
    4MOL    H97  523   2.538   5.618   6.763  1.0611  0.6182  0.0050
    4MOL    H98  524   2.671   5.589   6.661  0.3084  0.2743 -0.5912
    4MOL    H99  525   2.701   5.605   6.838  2.7527  0.3054 -2.7082
    4MOL   C100  526   2.471   5.243   6.708  0.0241 -0.1307 -0.4238
    4MOL   C101  527   2.322   5.261   6.673  0.4394 -0.3060  0.5541
    4MOL   O102  528   2.512   5.139   6.623 -0.2559 -0.1441  0.1412
    4MOL   H103  529   2.487   5.214   6.811 -2.0002  1.7992  0.4753
    4MOL   H104  530   2.279   5.354   6.711  0.4132 -0.6158  1.2832
    4MOL   H105  531   2.260   5.181   6.712 -0.5528  0.4804  0.5986
    4MOL   H106  532   2.310   5.264   6.564 -3.1070 -1.6124  0.8535
    4MOL   C107  533   2.622   5.067   6.675  0.0216  0.1669  0.4609
    4MOL   C108  534   2.571   4.938   6.734 -0.0422  0.0224 -0.1825
    4MOL   O109  535   2.704   5.027   6.567  0.0401  0.4565  0.4179
    4MOL   H110  536   2.686   5.126   6.741  0.8099  0.0449 -0.1867
    4MOL   H111  537   2.502   4.880   6.673  0.4211  0.2654 -0.9449
    4MOL   H112  538   2.533   4.967   6.833  0.6345  0.6539 -0.0989
    4MOL   H113  539   2.656   4.876   6.763 -0.8542 -1.7480 -1.5314
    4MOL   C114  540   2.775   5.133   6.511  0.0516  0.2579 -0.8508
    4MOL   C115  541   2.924   5.106   6.530  0.0533 -0.3676  0.2822
    4MOL   O116  542   2.754   5.136   6.373 -0.0706 -0.0352  0.2854
    4MOL   H117  543   2.742   5.228   6.551 -1.1809 -0.4690 -0.0827
    4MOL   H118  544   2.976   5.169   6.458 -0.4414  2.2266  2.1193
    4MOL   H119  545   2.948   5.001   6.512 -2.0533 -0.7079 -0.7828
    4MOL   H120  546   2.952   5.134   6.631  1.9110  0.6579 -0.5055
    4MOL   C121  547   2.613   5.123   6.339  0.6220 -0.6500 -0.1026
    4MOL   C122  548   2.557   5.272   6.331  0.0539  1.1494 -0.1227
    4MOL   O123  549   2.601   5.070   6.211 -0.2184  0.2911  0.0163
    4MOL   H124  550   2.551   5.058   6.401 -0.8756 -1.3222 -2.2536
    4MOL   H125  551   2.450   5.258   6.324  0.2027 -0.1856  0.2435
    4MOL   H126  552   2.603   5.307   6.238 -0.7589  1.6487 -0.3412
    4MOL   H127  553   2.582   5.345   6.409 -0.6446 -1.5176  2.6956
    4MOL   C128  554   2.646   4.941   6.199  0.2348  0.3550  1.1796
    4MOL   C129  555   2.528   4.846   6.240 -0.1403  0.2414 -0.1379
    4MOL   O130  556   2.673   4.918   6.065 -0.0182  0.3472 -0.2446
    4MOL   H131  557   2.737   4.914   6.252  0.0188 -1.7190  0.5148
    4MOL   H132  558   2.439   4.877   6.184 -1.0681  1.3669  1.9125
    4MOL   H133  559   2.505   4.847   6.346 -0.5634  1.9950 -0.2363
    4MOL   H134  560   2.545   4.748   6.194 -1.6296  2.1798 -5.1882
    4MOL   C135  561   2.780   4.989   6.011  0.6915 -0.6621  0.0810
    4MOL   C136  562   2.834   4.906   5.889  0.2837  0.0741 -0.9546
    4MOL   O137  563   2.749   5.123   5.971  0.5972 -0.0955 -0.1541
    4MOL   H138  564   2.859   4.994   6.085  0.5453  1.5688  0.0997
    4MOL   H139  565   2.747   4.879   5.829 -1.0294  1.1082  0.4284
    4MOL   H140  566   2.887   4.820   5.931 -1.6517 -0.7705 -0.1650
    4MOL   H141  567   2.901   4.967   5.828  0.3878 -0.0200 -0.9351
    4MOL   H142  568   2.718   5.169   6.048  0.5647  1.4287 -1.0712
    5MOL     C1  569   1.804   2.969   7.716 -0.7827  0.6310  0.1399
    5MOL     C2  570   1.714   3.063   7.791  0.0084 -0.2711  0.4715
    5MOL     O3  571   1.718   2.903   7.623 -0.2269  0.3854  0.2616
    5MOL     H4  572   1.856   2.909   7.789 -0.7701  0.5675  0.0783
    5MOL     H5  573   1.776   3.129   7.852 -0.0190 -0.4768  0.7254
    5MOL     H6  574   1.646   3.006   7.854 -1.2086  0.2991 -0.3185
    5MOL     H7  575   1.649   3.126   7.731  0.5512  0.8611  1.0564
    5MOL     H8  576   1.885   3.019   7.663  0.6985 -1.4833  0.3609
    5MOL     C9  577   1.783   2.819   7.535 -0.5221  0.6279  0.3954
    5MOL    C10  578   1.757   2.670   7.584  0.4547 -0.2867 -0.5694
    5MOL    O11  579   1.732   2.829   7.405  0.3764 -0.1879 -0.4468
    5MOL    H12  580   1.890   2.842   7.538 -0.2643 -0.4462 -0.5293
    5MOL    H13  581   1.762   2.664   7.692 -1.3501 -0.9300 -0.5207
    5MOL    H14  582   1.822   2.590   7.548 -0.8244 -1.0033 -1.3239
    5MOL    H15  583   1.653   2.645   7.565  0.6830 -1.2199 -0.6096
    5MOL    C16  584   1.784   2.942   7.334  0.1568  0.0791  0.6054
    5MOL    C17  585   1.852   2.895   7.207  0.4811  1.0392  0.7862
    5MOL    O18  586   1.673   3.017   7.287  0.3409  0.1360  0.0426
    5MOL    H19  587   1.854   3.002   7.393 -0.3265  0.0109  1.2492
    5MOL    H20  588   1.922   2.815   7.228 -1.1323 -0.2005  1.5610
    5MOL    H21  589   1.900   2.975   7.151  0.7977 -0.9693 -1.9386
    5MOL    H22  590   1.790   2.843   7.134  1.4037  0.2194  0.5780
    5MOL    C23  591   1.628   3.112   7.383  0.4331 -1.0037 -0.8458
    5MOL    C24  592   1.695   3.252   7.373  0.4433  0.3532 -0.0605
    5MOL    O25  593   1.495   3.137   7.370 -0.4078 -0.0715 -0.0905
    5MOL    H26  594   1.631   3.073   7.485 -0.7607  0.7890 -0.1130
    5MOL    H27  595   1.673   3.292   7.274 -0.1213 -1.3813 -0.6488
    5MOL    H28  596   1.800   3.235   7.396  0.7516  2.1104 -0.0960
    5MOL    H29  597   1.653   3.325   7.442 -1.5587 -1.0226  0.2202
    5MOL    C30  598   1.413   3.036   7.419 -0.1518 -0.6110 -0.6201
    5MOL    C31  599   1.338   3.094   7.542  0.0795  0.1712 -0.6375
    5MOL    O32  600   1.314   3.013   7.334 -0.4313 -0.0817 -0.3001
    5MOL    H33  601   1.467   2.947   7.453  0.4453 -0.4997 -1.2880
    5MOL    H34  602   1.296   3.189   7.509 -1.4225 -0.1909  0.2050
    5MOL    H35  603   1.409   3.085   7.623 -0.9556 -0.5286  0.2081
    5MOL    H36  604   1.254   3.033   7.577  0.3133 -0.7251 -1.5904
    5MOL    C37  605   1.348   2.927   7.231  0.7568  0.0671 -0.5035
    5MOL    C38  606   1.307   2.785   7.267  0.1045  0.1436  0.4156
    5MOL    O39  607   1.290   2.966   7.111  0.2019  0.0403  0.9393
    5MOL    H40  608   1.455   2.919   7.214  1.3171  2.1142  1.7212
    5MOL    H41  609   1.373   2.741   7.342  1.7009  1.8854  0.0548
    5MOL    H42  610   1.324   2.727   7.176  1.7777 -0.8808  1.3495
    5MOL    H43  611   1.200   2.776   7.287  0.1113  3.6070  2.2429
    5MOL    C44  612   1.386   3.042   7.040  0.5004 -0.2852  0.2936
    5MOL    C45  613   1.455   2.949   6.943 -0.3797  0.2253 -0.3044
    5MOL    O46  614   1.326   3.130   6.956  0.2462 -0.0145 -0.3705
    5MOL    H47  615   1.463   3.099   7.093  1.4076  1.0957 -2.3819
    5MOL    H48  616   1.378   2.915   6.874 -1.3664  2.4946 -0.3603
    5MOL    H49  617   1.488   2.862   7.000  2.0565 -0.3677 -2.5371
    5MOL    H50  618   1.546   2.986   6.896 -1.2655 -2.1950 -4.1700
    5MOL    C51  619   1.268   3.233   7.025 -0.2520 -0.3391 -0.2043
    5MOL    C52  620   1.361   3.354   7.018 -0.4933 -0.0885 -0.2162
    5MOL    O53  621   1.151   3.267   6.965  0.4515 -0.1141  0.3614
    5MOL    H54  622   1.250   3.210   7.130 -0.1367 -0.3130 -0.1783
    5MOL    H55  623   1.456   3.334   7.068  0.3482  0.5954 -1.5147
    5MOL    H56  624   1.313   3.438   7.070 -0.4843  0.0096 -0.3635
    5MOL    H57  625   1.377   3.374   6.912 -0.8143  0.4592 -0.1652
    5MOL    C58  626   1.048   3.172   6.977 -0.5576  0.3007  0.0616
    5MOL    C59  627   0.909   3.240   7.002 -0.7205 -0.8734 -0.3504
    5MOL    O60  628   1.035   3.108   6.856 -0.0738  1.0399 -0.3219
    5MOL    H61  629   1.068   3.095   7.053  0.0056  0.2657 -0.1196
    5MOL    H62  630   0.851   3.152   7.029 -0.1414 -0.8997  0.8506
    5MOL    H63  631   0.875   3.292   6.912  0.1347 -0.2564 -0.3276
    5MOL    H64  632   0.923   3.313   7.082  1.7183 -1.0364 -0.6096
    5MOL    C65  633   1.058   2.968   6.849  0.6286  1.0122  0.2293
    5MOL    C66  634   0.935   2.888   6.888  0.6231 -1.0015  0.4163
    5MOL    O67  635   1.079   2.937   6.714  0.5093  0.0973  0.3956
    5MOL    H68  636   1.144   2.936   6.907  1.1865 -0.4327 -1.3451
    5MOL    H69  637   0.942   2.781   6.869  0.6851 -1.3505  2.2900
    5MOL    H70  638   0.846   2.934   6.846  1.5623 -0.4808 -1.0340
    5MOL    H71  639   0.922   2.905   6.995 -1.3175 -1.6397  0.2979
    5MOL    C72  640   1.191   2.997   6.644 -0.6881 -0.0418  0.3493
    5MOL    C73  641   1.255   2.909   6.543  0.2985 -0.2540 -0.1150
    5MOL    O74  642   1.156   3.115   6.573 -0.1047 -0.7651 -0.9376
    5MOL    H75  643   1.271   3.018   6.714  1.1011  1.3895 -2.0609
    5MOL    H76  644   1.187   2.883   6.462 -1.2208 -2.5776  1.8507
    5MOL    H77  645   1.284   2.814   6.588  1.8103 -0.6128 -1.8006
    5MOL    H78  646   1.342   2.961   6.502  0.8763  0.3251  1.7660
    5MOL    C79  647   1.214   3.232   6.628 -0.6565  0.5522  0.2610
    5MOL    C80  648   1.363   3.238   6.563  0.2416  0.3151  0.8393
    5MOL    O81  649   1.156   3.347   6.579  0.0086 -0.0528 -0.2401
    5MOL    H82  650   1.216   3.225   6.737 -2.3884 -1.7922  0.1797
    5MOL    H83  651   1.432   3.172   6.615  0.9225  0.6971  0.4310
    5MOL    H84  652   1.407   3.338   6.560 -0.5949  0.6791  0.6187
    5MOL    H85  653   1.356   3.220   6.456 -2.1443  3.6188  0.3574
    5MOL    C86  654   1.030   3.370   6.639  1.1949 -1.0176 -0.1448
    5MOL    C87  655   1.033   3.506   6.711  0.3385 -0.2189 -0.2535
    5MOL    O88  656   0.934   3.375   6.537  0.2797 -0.5116  0.3613
    5MOL    H89  657   0.998   3.297   6.713 -0.1044  0.8695  1.1904
    5MOL    H90  658   0.938   3.530   6.759 -0.1613  0.3758 -1.5101
    5MOL    H91  659   1.053   3.584   6.638  0.8144  2.1199  2.2937
    5MOL    H92  660   1.115   3.498   6.783 -0.6344  2.0118  1.1488
    5MOL    C93  661   0.877   3.251   6.501 -0.4072  0.4273  0.1113
    5MOL    C94  662   0.738   3.240   6.572 -0.1575  0.0327 -0.3870
    5MOL    O95  663   0.864   3.220   6.369  0.4674 -0.1638 -0.2675
    5MOL    H96  664   0.933   3.176   6.558  1.7185  2.0448  0.1849
    5MOL    H97  665   0.676   3.158   6.536  0.1661 -0.6170  0.5093
    5MOL    H98  666   0.677   3.330   6.562 -1.0966 -0.2672  2.1909
    5MOL    H99  667   0.756   3.218   6.677  1.0480  1.9546 -0.1686
    5MOL   C100  668   0.989   3.208   6.295  0.1987 -0.8863 -0.6682
    5MOL   C101  669   0.979   3.067   6.238 -0.2506  0.5452  0.1637
    5MOL   O102  670   0.999   3.311   6.196  0.1213 -0.5520  0.0961
    5MOL   H103  671   1.077   3.211   6.359 -1.2944  1.0905  1.3583
    5MOL   H104  672   0.992   3.001   6.323  1.9239  1.7851  0.8217
    5MOL   H105  673   1.052   3.040   6.162  1.3965  1.3046  1.4554
    5MOL   H106  674   0.876   3.053   6.203 -0.1356  0.6728 -0.2260
    5MOL   C107  675   1.060   3.429   6.236  0.2630 -0.2607  0.0642
    5MOL   C108  676   1.198   3.424   6.162  0.0363 -0.6580 -0.1024
    5MOL   O109  677   0.986   3.539   6.190  0.5907  0.4886  0.2640
    5MOL   H110  678   1.074   3.449   6.342 -0.3734 -2.7425  0.6571
    5MOL   H111  679   1.268   3.505   6.183  1.9563 -1.3622 -3.5232
    5MOL   H112  680   1.180   3.430   6.055 -1.8237  0.0517  0.2366
    5MOL   H113  681   1.245   3.328   6.182  0.0839 -0.5715  0.2010
    5MOL   C114  682   0.862   3.567   6.257  0.0629 -0.3536  0.1454
    5MOL   C115  683   0.880   3.712   6.297  0.2041 -0.4221 -0.3349
    5MOL   O116  684   0.748   3.557   6.180 -0.1057 -0.1134  0.0296
    5MOL   H117  685   0.840   3.505   6.343 -0.1366 -0.3751  0.0787
    5MOL   H118  686   0.794   3.735   6.360  0.4932 -0.3219  0.0246
    5MOL   H119  687   0.890   3.778   6.211  1.8001 -0.9742 -0.5886
    5MOL   H120  688   0.962   3.743   6.361 -0.8315  0.0428  0.7891
    5MOL   C121  689   0.699   3.426   6.164  0.8755 -0.8619  0.0211
    5MOL   C122  690   0.570   3.405   6.242  0.3736 -0.2600  0.0607
    5MOL   O123  691   0.667   3.409   6.028  0.1624  0.0274  0.0956
    5MOL   H124  692   0.768   3.351   6.203  1.6454 -0.0401  0.2809
    5MOL   H125  693   0.476   3.455   6.217  0.1370 -0.3269  0.8021
    5MOL   H126  694   0.596   3.425   6.346  0.1390  1.6698 -0.2330
    5MOL   H127  695   0.545   3.299   6.241  0.8973 -0.4405  2.3151
    5MOL   C128  696   0.771   3.429   5.938 -1.1943 -0.4170  0.2045
    5MOL   C129  697   0.815   3.286   5.901 -0.5078  0.0589 -0.0054
    5MOL   O130  698   0.729   3.489   5.817 -0.2110 -0.1753  0.4279
    5MOL   H131  699   0.852   3.485   5.985 -1.4523  1.2851 -1.3356
    5MOL   H132  700   0.878   3.245   5.980 -1.0789 -0.6428  0.1027
    5MOL   H133  701   0.881   3.287   5.814 -0.9023  0.9287 -0.2952
    5MOL   H134  702   0.729   3.221   5.882 -0.2558 -0.3049  0.1019
    5MOL   C135  703   0.745   3.628   5.828 -0.0330  0.1869 -0.3891
    5MOL   C136  704   0.711   3.679   5.684  0.7247  0.2913  0.1963
    5MOL   O137  705   0.657   3.678   5.926  0.0795 -0.1806  0.3343
    5MOL   H138  706   0.846   3.656   5.858  0.1221  0.5979 -1.2818
    5MOL   H139  707   0.754   3.777   5.663  1.8606 -0.1046  0.6677
    5MOL   H140  708   0.602   3.679   5.676  0.7277 -1.6637 -0.0237
    5MOL   H141  709   0.749   3.608   5.611  1.1669  3.1027 -2.3992
    5MOL   H142  710   0.682   3.646   6.011 -2.2182 -0.5474  0.9129
    6MOL     C1  711   4.672   2.257   4.961 -0.1938 -0.0114 -0.6998
    6MOL     C2  712   4.707   2.155   5.068 -0.6381 -0.4891  0.0665
    6MOL     O3  713   4.785   2.311   4.897 -0.4236  0.2135  0.2854
    6MOL     H4  714   4.615   2.334   5.012 -1.3701 -1.4073  0.1329
    6MOL     H5  715   4.611   2.127   5.111 -1.8146  0.0177 -2.1390
    6MOL     H6  716   4.774   2.203   5.139 -0.3595  0.5762 -0.9026
    6MOL     H7  717   4.759   2.066   5.035 -1.3722 -0.8148 -0.2294
    6MOL     H8  718   4.605   2.201   4.895 -0.7039 -0.5201  0.2375
    6MOL     C9  719   4.747   2.421   4.819 -0.0786 -0.0551  0.2339
    6MOL    C10  720   4.876   2.476   4.759  0.4417 -0.1967  0.7299
    6MOL    O11  721   4.669   2.375   4.709  0.4021 -0.3871 -0.1399
    6MOL    H12  722   4.700   2.491   4.888 -0.1122 -0.6621  0.8324
    6MOL    H13  723   4.931   2.523   4.841  2.6214  0.0284 -0.8071
    6MOL    H14  724   4.858   2.543   4.675 -1.8029  0.3164  1.5841
    6MOL    H15  725   4.943   2.395   4.728 -0.6634 -0.7553 -0.2196
    6MOL    C16  726   4.588   2.482   4.662 -0.3265 -0.0019  0.1898
    6MOL    C17  727   4.515   2.427   4.544 -0.5148  0.1166  0.3498
    6MOL    O18  728   4.490   2.523   4.751 -0.5071 -0.0712  0.3484
    6MOL    H19  729   4.657   2.560   4.628  1.1740 -0.7650  1.4460
    6MOL    H20  730   4.465   2.504   4.483  0.4316 -0.8582 -1.7072
    6MOL    H21  731   4.430   2.364   4.568 -0.1479  0.0251  1.4395
    6MOL    H22  732   4.580   2.365   4.482  2.3444  1.0349  2.2982
    6MOL    C23  733   4.463   2.657   4.741 -0.2773 -0.4749 -0.0530
    6MOL    C24  734   4.335   2.680   4.821  0.2382 -0.2129  0.2879
    6MOL    O25  735   4.571   2.724   4.804  0.5050 -0.0391 -0.1281
    6MOL    H26  736   4.446   2.681   4.636 -1.5906  0.3544  0.3385
    6MOL    H27  737   4.248   2.635   4.773 -0.8341  1.2335  0.8172
    6MOL    H28  738   4.320   2.786   4.838 -0.5164 -0.1948 -0.4610
    6MOL    H29  739   4.342   2.630   4.918 -2.8352 -1.7243 -0.1730
    6MOL    C30  740   4.619   2.826   4.727 -0.0232 -0.3014  0.2771
    6MOL    C31  741   4.696   2.915   4.813 -0.4717  0.3999 -0.4962
    6MOL    O32  742   4.720   2.785   4.642 -0.4101 -0.1840  0.1393
    6MOL    H33  743   4.546   2.886   4.671 -0.4337  0.1624  1.3053
    6MOL    H34  744   4.756   2.990   4.760  2.4454  0.2115  2.3755
    6MOL    H35  745   4.771   2.848   4.856 -0.8686  2.3000  3.3776
    6MOL    H36  746   4.648   2.958   4.901  2.7776  0.1482  1.4761
    6MOL    C37  747   4.725   2.828   4.510 -0.6150 -0.3118  0.0641
    6MOL    C38  748   4.846   2.759   4.445  0.2796 -0.3943  0.1624
    6MOL    O39  749   4.614   2.775   4.452 -0.0677 -0.1033 -0.1652
    6MOL    H40  750   4.733   2.937   4.504 -0.5400 -0.0729  3.2933
    6MOL    H41  751   4.851   2.769   4.337  1.4549  0.7788  0.3106
    6MOL    H42  752   4.849   2.652   4.462 -0.6141  0.0691  3.6813
    6MOL    H43  753   4.941   2.801   4.478 -0.4134  1.3127  0.0659
    6MOL    C44  754   4.580   2.843   4.334 -0.0917  0.5182 -0.2636
    6MOL    C45  755   4.436   2.799   4.299 -0.0221  0.1328 -0.0658
    6MOL    O46  756   4.579   2.986   4.331 -0.1807  1.1235 -0.2963
    6MOL    H47  757   4.649   2.815   4.255  0.2834 -0.9990  0.5673
    6MOL    H48  758   4.392   2.871   4.230 -1.4971 -0.5919  0.0972
    6MOL    H49  759   4.378   2.826   4.387 -0.4833 -0.2715 -0.2440
    6MOL    H50  760   4.426   2.694   4.270  0.4366 -0.7365  2.7614
    6MOL    C51  761   4.646   3.034   4.220 -0.4111 -0.1769  0.5065
    6MOL    C52  762   4.623   3.188   4.212  0.0105 -1.0215 -0.4305
    6MOL    O53  763   4.787   2.993   4.222  0.3124  0.7272  0.1872
    6MOL    H54  764   4.591   2.996   4.134  2.5403  2.7630 -2.8620
    6MOL    H55  765   4.623   3.217   4.107 -0.4071 -0.4552 -0.2787
    6MOL    H56  766   4.694   3.236   4.279  0.3517 -1.4620 -0.4748
    6MOL    H57  767   4.523   3.213   4.248  0.5319  2.6526 -1.3084
    6MOL    C58  768   4.852   3.016   4.099  0.4520  0.1203 -0.5060
    6MOL    C59  769   5.002   2.996   4.126 -0.6921 -0.4465  0.5438
    6MOL    O60  770   4.799   2.918   4.013  0.7878 -0.3371  0.0519
    6MOL    H61  771   4.824   3.118   4.071  1.0424  1.5511  3.6706
    6MOL    H62  772   5.025   3.070   4.203 -0.7349  0.4868 -0.3199
    6MOL    H63  773   5.062   3.027   4.040 -1.3956 -1.2781 -0.2632
    6MOL    H64  774   5.026   2.898   4.165 -1.5410 -1.5804 -1.6536
    6MOL    C65  775   4.821   2.944   3.872  0.1176 -1.2520 -0.3293
    6MOL    C66  776   4.750   2.827   3.805  0.2216  0.5087  0.0360
    6MOL    O67  777   4.757   3.055   3.827 -0.1692 -0.5076  0.7617
    6MOL    H68  778   4.929   2.935   3.854  0.1265  0.5441 -1.3077
    6MOL    H69  779   4.791   2.738   3.853  0.6544  0.7567  0.1325
    6MOL    H70  780   4.785   2.836   3.702  1.2273 -1.7961  0.1473
    6MOL    H71  781   4.642   2.833   3.817  0.2724 -1.6348  1.7035
    6MOL    C72  782   4.830   3.137   3.742  0.4374  0.6719 -0.3415
    6MOL    C73  783   4.735   3.253   3.690  0.0965 -1.0564 -0.3705
    6MOL    O74  784   4.930   3.189   3.825 -0.0312  0.0582 -0.0240
    6MOL    H75  785   4.873   3.078   3.662 -2.1062  0.7879 -1.8637
    6MOL    H76  786   4.689   3.308   3.772  0.6006 -1.3186  0.0945
    6MOL    H77  787   4.656   3.210   3.630 -0.1314 -0.4125 -0.5299
    6MOL    H78  788   4.801   3.318   3.633 -0.5999 -0.1050 -0.0996
    6MOL    C79  789   5.054   3.212   3.758 -0.3008 -0.1569  0.0797
    6MOL    C80  790   5.146   3.303   3.840 -0.2188  0.2359 -0.0546
    6MOL    O81  791   5.127   3.091   3.743 -0.3040  0.8735  0.3044
    6MOL    H82  792   5.023   3.254   3.663  0.9196  1.7044  0.4835
    6MOL    H83  793   5.097   3.399   3.855 -0.3028  0.1294  0.3852
    6MOL    H84  794   5.241   3.327   3.793 -0.5629 -0.3744 -1.0546
    6MOL    H85  795   5.166   3.248   3.932  1.1596  0.2190 -0.3576
    6MOL    C86  796   5.199   3.086   3.620  1.3189 -0.0104  0.6048
    6MOL    C87  797   5.315   2.998   3.644 -0.6171  0.1753  0.3037
    6MOL    O88  798   5.119   3.017   3.523  0.3766  0.9092 -0.1973
    6MOL    H89  799   5.244   3.182   3.597  2.8169 -0.8646 -0.0995
    6MOL    H90  800   5.381   3.056   3.710  0.1388 -0.0503 -0.2491
    6MOL    H91  801   5.369   2.989   3.550 -0.6544 -0.2093  0.3186
    6MOL    H92  802   5.293   2.904   3.693 -0.7750 -0.4194 -0.9039
    6MOL    C93  803   5.135   3.074   3.397 -0.0700 -0.3809  0.0963
    6MOL    C94  804   5.144   2.968   3.295 -0.0624  0.2894 -0.1510
    6MOL    O95  805   5.025   3.159   3.378 -0.2650  0.5074 -0.0711
    6MOL    H96  806   5.233   3.122   3.388  0.3454 -1.3401 -0.5264
    6MOL    H97  807   5.051   2.912   3.303  0.5740 -0.5289  1.7690
    6MOL    H98  808   5.227   2.903   3.323  1.0447  1.6379 -0.2649
    6MOL    H99  809   5.162   3.013   3.197  1.2890  1.2733  0.5394
    6MOL   C100  810   5.064   3.293   3.352  0.5733  0.0029  0.0642
    6MOL   C101  811   4.936   3.360   3.306  0.3590  0.2368 -0.4489
    6MOL   O102  812   5.116   3.346   3.470 -0.0766  0.3833  0.2460
    6MOL   H103  813   5.132   3.293   3.267 -1.9481  0.3664 -1.9844
    6MOL   H104  814   4.894   3.324   3.212 -2.5891  2.6212 -0.1297
    6MOL   H105  815   4.941   3.467   3.284  1.3812 -0.4837 -4.1283
    6MOL   H106  816   4.871   3.330   3.389  1.1430  0.1990  0.1609
    6MOL   C107  817   5.197   3.449   3.445 -1.0292  0.2749  0.0313
    6MOL   C108  818   5.201   3.537   3.564  0.7187 -0.5294 -0.1138
    6MOL   O109  819   5.331   3.405   3.416 -0.6411  0.2269  0.4229
    6MOL   H110  820   5.156   3.507   3.362 -1.8241  1.1643  1.0401
    6MOL   H111  821   5.245   3.633   3.538 -1.0951  0.3882  0.0887
    6MOL   H112  822   5.262   3.493   3.643 -0.7825 -1.6652  0.4319
    6MOL   H113  823   5.100   3.562   3.598  0.5640  2.1593 -2.4053
    6MOL   C114  824   5.382   3.464   3.308 -0.2800 -0.1005  0.3663
    6MOL   C115  825   5.520   3.399   3.293 -0.2196 -0.4889  0.5863
    6MOL   O116  826   5.318   3.427   3.196  1.2176  0.1197  0.5727
    6MOL   H117  827   5.401   3.570   3.319  0.8651  0.3042 -4.5307
    6MOL   H118  828   5.577   3.432   3.207  0.2459 -1.6119  0.4615
    6MOL   H119  829   5.518   3.291   3.278  0.2573 -0.0326 -3.0737
    6MOL   H120  830   5.574   3.399   3.387  0.9934 -1.1255 -0.1029
    6MOL   C121  831   5.301   3.534   3.106 -0.2089  0.2442 -0.6791
    6MOL   C122  832   5.234   3.477   2.985  0.2978  0.0493  0.4182
    6MOL   O123  833   5.223   3.632   3.165 -0.3563  0.3193 -0.4835
    6MOL   H124  834   5.402   3.575   3.102  0.6615 -1.5975  1.5930
    6MOL   H125  835   5.131   3.456   3.013  0.4843 -0.5641  0.6598
    6MOL   H126  836   5.282   3.387   2.946  0.4602 -0.8110  2.5457
    6MOL   H127  837   5.240   3.545   2.900 -0.0794 -0.7290 -0.2513
    6MOL   C128  838   5.249   3.759   3.110 -0.6247 -0.0839  0.0654
    6MOL   C129  839   5.134   3.844   3.164  0.8039 -0.0060  0.6890
    6MOL   O130  840   5.365   3.807   3.170  0.3810 -0.0074  0.4463
    6MOL   H131  841   5.258   3.755   3.001  1.5604 -1.3904  0.2669
    6MOL   H132  842   5.039   3.793   3.153  1.1733 -0.1488 -1.9519
    6MOL   H133  843   5.129   3.938   3.108 -1.9284 -0.7710 -0.4433
    6MOL   H134  844   5.148   3.871   3.269  1.1610 -0.2559  0.7024
    6MOL   C135  845   5.412   3.931   3.119 -0.2756 -0.1231  0.5088
    6MOL   C136  846   5.463   4.012   3.244 -0.0462 -0.3313 -0.3343
    6MOL   O137  847   5.523   3.910   3.027  0.4406 -0.4925  0.0737
    6MOL   H138  848   5.333   3.987   3.068  0.9712  1.4541  0.2707
    6MOL   H139  849   5.500   4.111   3.217  0.0027  0.2377  1.7677
    6MOL   H140  850   5.545   3.958   3.292 -0.0225  0.1086  0.1276
    6MOL   H141  851   5.379   4.022   3.313 -1.5435 -0.6636 -2.0712
    6MOL   H142  852   5.573   3.991   3.024 -1.7483  0.8656 -1.4692
    7MOL     C1  853   2.192   6.435   6.824 -0.0309  0.9173 -0.4285
    7MOL     C2  854   2.073   6.362   6.757 -0.2578 -0.1466  0.8105
    7MOL     O3  855   2.127   6.520   6.910  0.2268  0.8824  0.1688
    7MOL     H4  856   2.255   6.485   6.750  0.1948  2.6489  0.8849
    7MOL     H5  857   2.120   6.312   6.672 -1.1674  1.8086 -0.8822
    7MOL     H6  858   1.992   6.428   6.726 -0.2149  0.7277  2.4968
    7MOL     H7  859   2.024   6.283   6.814 -0.5240 -0.4998  0.0988
    7MOL     H8  860   2.240   6.355   6.880  0.0508  1.3372  0.1053
    7MOL     C9  861   2.211   6.588   6.992 -0.1229  0.4841  0.2089
    7MOL    C10  862   2.119   6.656   7.098 -0.8057  0.6825  0.1332
    7MOL    O11  863   2.300   6.495   7.052  0.1717 -0.1113  0.0547
    7MOL    H12  864   2.276   6.662   6.944  1.3306  0.2269  1.7267
    7MOL    H13  865   2.079   6.571   7.153 -0.1156 -1.0221 -1.9334
    7MOL    H14  866   2.037   6.721   7.069 -0.8824  1.3624  1.8326
    7MOL    H15  867   2.172   6.719   7.170 -0.3414  1.0136 -0.4903
    7MOL    C16  868   2.435   6.534   7.046  0.4833  0.0567 -0.2306
    7MOL    C17  869   2.504   6.428   7.136 -0.1974  0.4686  0.4498
    7MOL    O18  870   2.483   6.514   6.917  0.6432  0.5751  0.2199
    7MOL    H19  871   2.451   6.629   7.096 -0.3985  0.2587 -0.3166
    7MOL    H20  872   2.610   6.444   7.123  0.0184  0.1959  1.7881
    7MOL    H21  873   2.472   6.326   7.113  1.0971  0.1252  0.1688
    7MOL    H22  874   2.491   6.470   7.236  1.9770  3.1922 -0.3578
    7MOL    C23  875   2.569   6.609   6.867 -0.0760 -0.5718  0.0101
    7MOL    C24  876   2.655   6.552   6.749 -0.5108 -0.6310  0.0639
    7MOL    O25  877   2.495   6.715   6.819  0.0095 -0.6185 -0.0905
    7MOL    H26  878   2.637   6.643   6.945 -1.6002  0.0979  1.0675
    7MOL    H27  879   2.701   6.457   6.775 -2.2381 -2.0615 -2.0219
    7MOL    H28  880   2.729   6.623   6.711 -0.3119 -0.3598  0.9347
    7MOL    H29  881   2.593   6.512   6.670  1.0453 -0.4900 -1.2503
    7MOL    C30  882   2.568   6.835   6.824 -0.6425  0.0451 -1.2234
    7MOL    C31  883   2.469   6.931   6.766  0.0394  0.0200  0.4556
    7MOL    O32  884   2.586   6.886   6.957  0.0794  0.0706 -0.0731
    7MOL    H33  885   2.655   6.824   6.761 -0.4545 -0.1035 -0.9394
    7MOL    H34  886   2.388   6.941   6.838 -0.6724 -0.7156 -0.2444
    7MOL    H35  887   2.420   6.885   6.680  0.3488  0.4505  0.0427
    7MOL    H36  888   2.512   7.030   6.749 -3.3745  1.5311  0.1942
    7MOL    C37  889   2.714   6.925   6.982 -0.3104 -0.4639 -0.5144
    7MOL    C38  890   2.705   6.958   7.140 -0.0657  0.3092  0.7603
    7MOL    O39  891   2.805   6.819   6.980  0.2972 -0.1056 -0.1226
    7MOL    H40  892   2.746   7.008   6.920  0.7384  1.6075  2.6819
    7MOL    H41  893   2.660   6.868   7.181  1.6205 -0.5877  0.6764
    7MOL    H42  894   2.655   7.053   7.157 -1.4820 -0.6273  1.9052
    7MOL    H43  895   2.803   6.967   7.186 -0.1629  2.7082  0.5735
    7MOL    C44  896   2.913   6.844   6.894  0.6640 -0.1847  0.5161
    7MOL    C45  897   3.020   6.740   6.927 -0.6728  0.6433 -0.0015
    7MOL    O46  898   2.878   6.831   6.760  0.2140 -0.6079 -0.2713
    7MOL    H47  899   2.958   6.940   6.921 -0.4815  1.3759 -2.8776
    7MOL    H48  900   3.104   6.749   6.859 -0.7265 -0.6996 -0.2677
    7MOL    H49  901   2.981   6.640   6.909  1.9191 -0.2136 -1.0133
    7MOL    H50  902   3.043   6.753   7.033 -0.8091  1.4300 -0.0637
    7MOL    C51  903   2.927   6.938   6.682 -0.9508  0.1842  0.8937
    7MOL    C52  904   2.912   6.895   6.536 -1.0481  0.0155  0.0914
    7MOL    O53  905   2.843   7.044   6.700 -0.1134 -0.0666 -0.7844
    7MOL    H54  906   3.032   6.949   6.709 -1.1492  1.3830  1.2006
    7MOL    H55  907   2.941   6.971   6.464 -0.6652 -0.4417 -0.2434
    7MOL    H56  908   2.809   6.863   6.517 -1.6101  0.5540  2.1203
    7MOL    H57  909   2.976   6.807   6.530 -0.9191 -0.0261  1.7704
    7MOL    C58  910   2.916   7.162   6.701 -0.0951  0.3525  0.0744
    7MOL    C59  911   2.823   7.278   6.656 -0.2669  0.2634 -0.0102
    7MOL    O60  912   2.949   7.195   6.829 -0.1019 -0.5045 -0.6570
    7MOL    H61  913   2.990   7.169   6.622 -0.4944  0.3430 -0.2984
    7MOL    H62  914   2.788   7.278   6.553 -1.6853 -0.4633  0.4633
    7MOL    H63  915   2.881   7.366   6.684  1.9061 -1.1491  0.1361
    7MOL    H64  916   2.737   7.272   6.721 -0.2265 -0.9090 -0.0530
    7MOL    C65  917   3.083   7.217   6.854 -0.2593  0.5610  0.2495
    7MOL    C66  918   3.100   7.281   6.996  0.6532 -0.1665  0.3661
    7MOL    O67  919   3.151   7.096   6.857  0.5384 -0.5037 -0.8471
    7MOL    H68  920   3.126   7.289   6.783 -2.0029  0.3115 -1.0978
    7MOL    H69  921   3.033   7.367   6.999  0.3535 -0.3051 -1.7957
    7MOL    H70  922   3.201   7.303   7.030  1.4293 -0.6086 -1.5415
    7MOL    H71  923   3.058   7.205   7.063 -0.4784 -1.0301 -1.2807
    7MOL    C72  924   3.252   7.091   6.759  0.1120  0.3350 -0.0254
    7MOL    C73  925   3.326   6.967   6.785  0.5278  0.0430  0.1233
    7MOL    O74  926   3.219   7.085   6.624  0.4842 -0.0645 -0.0934
    7MOL    H75  927   3.308   7.182   6.781 -3.0148  2.5233 -0.8779
    7MOL    H76  928   3.420   6.969   6.729  0.4111 -0.8383 -0.1115
    7MOL    H77  929   3.258   6.885   6.765  1.0777  0.1208 -2.2886
    7MOL    H78  930   3.338   6.967   6.893 -1.0624 -1.3530  0.3058
    7MOL    C79  931   3.296   7.161   6.538  0.1735  0.0356  0.5213
    7MOL    C80  932   3.269   7.110   6.397 -0.7621  0.6035  0.1811
    7MOL    O81  933   3.250   7.297   6.544 -0.1996  0.5513 -0.4793
    7MOL    H82  934   3.400   7.151   6.570 -0.4245 -1.8964  1.9493
    7MOL    H83  935   3.310   7.011   6.382 -0.0218  1.4238 -3.7292
    7MOL    H84  936   3.323   7.178   6.331 -0.1571 -1.0638 -1.0624
    7MOL    H85  937   3.161   7.115   6.384 -0.6452  0.1367 -1.0360
    7MOL    C86  938   3.337   7.403   6.576  1.1438  0.0031 -0.1228
    7MOL    C87  939   3.269   7.532   6.518  0.1125  0.1521 -0.5560
    7MOL    O88  940   3.367   7.408   6.714 -0.5872 -0.1140  0.0248
    7MOL    H89  941   3.434   7.394   6.526  1.8121  0.8103  0.9902
    7MOL    H90  942   3.322   7.621   6.552  0.2291 -0.3839  0.6942
    7MOL    H91  943   3.166   7.543   6.551 -0.2506 -0.1064 -1.5804
    7MOL    H92  944   3.276   7.539   6.409 -0.9882  1.3362 -0.5541
    7MOL    C93  945   3.509   7.397   6.742  0.0263  0.4361 -0.6256
    7MOL    C94  946   3.504   7.396   6.890  0.1560  0.4189  0.1566
    7MOL    O95  947   3.567   7.270   6.711 -0.8187  0.2009 -0.3741
    7MOL    H96  948   3.570   7.475   6.697 -0.0519  0.3434 -0.8904
    7MOL    H97  949   3.456   7.489   6.920 -0.3181  0.0155  0.6671
    7MOL    H98  950   3.606   7.396   6.928  1.0989  2.3500 -2.2308
    7MOL    H99  951   3.452   7.309   6.930  2.2028 -0.1366  1.6775
    7MOL   C100  952   3.688   7.280   6.640 -0.9208 -0.1523  0.0906
    7MOL   C101  953   3.765   7.149   6.658  0.1196  0.8516  0.0875
    7MOL   O102  954   3.671   7.299   6.506  0.2917 -0.2841 -0.9947
    7MOL   H103  955   3.755   7.350   6.690  0.8206 -0.4099 -1.7968
    7MOL   H104  956   3.780   7.141   6.766 -2.4228  2.1227  0.5698
    7MOL   H105  957   3.851   7.161   6.592  0.3644 -2.3798 -0.2502
    7MOL   H106  958   3.702   7.067   6.622  1.3231  0.2916 -0.7784
    7MOL   C107  959   3.756   7.398   6.449  0.6607  0.5067  0.2284
    7MOL   C108  960   3.804   7.344   6.313  0.5653  0.8600 -0.3252
    7MOL   O109  961   3.680   7.509   6.422  0.1056 -0.4556 -0.2034
    7MOL   H110  962   3.848   7.407   6.507  0.6529 -1.4175  0.5929
    7MOL   H111  963   3.855   7.250   6.338  0.6738  0.7569 -0.9237
    7MOL   H112  964   3.869   7.420   6.270 -0.9079  1.8051 -0.9178
    7MOL   H113  965   3.718   7.337   6.247 -0.7225  2.0430  1.2054
    7MOL   C114  966   3.746   7.628   6.470 -0.1672 -0.4705 -0.2525
    7MOL   C115  967   3.681   7.754   6.409 -0.1006  0.3551 -0.1003
    7MOL   O116  968   3.740   7.641   6.607  0.6089  0.4591 -0.2140
    7MOL   H117  969   3.846   7.619   6.428 -0.0820 -1.1232  0.0865
    7MOL   H118  970   3.581   7.770   6.450  0.5172  0.4550  1.4033
    7MOL   H119  971   3.681   7.748   6.300  0.8612 -1.3379 -0.0318
    7MOL   H120  972   3.741   7.843   6.427  0.5117 -0.2910  1.0854
    7MOL   C121  973   3.857   7.683   6.666 -0.0135 -0.0284 -0.3786
    7MOL   C122  974   3.832   7.708   6.814 -0.8267 -0.0008 -0.6940
    7MOL   O123  975   3.949   7.585   6.639  0.4932 -0.3729  0.2854
    7MOL   H124  976   3.898   7.768   6.611 -0.1108 -0.0463 -0.4803
    7MOL   H125  977   3.740   7.766   6.821 -0.6660 -0.0241  1.9085
    7MOL   H126  978   3.909   7.766   6.863 -0.8924 -0.9610  0.5622
    7MOL   H127  979   3.808   7.613   6.862 -0.0578 -1.0435 -2.2909
    7MOL   C128  980   4.082   7.621   6.658  0.0701  0.3686  0.6839
    7MOL   C129  981   4.164   7.509   6.588  0.1238 -0.5828  0.2694
    7MOL   O130  982   4.121   7.738   6.595 -0.2143 -0.1194 -0.2845
    7MOL   H131  983   4.098   7.618   6.766  2.2319 -0.6028  0.3576
    7MOL   H132  984   4.160   7.521   6.479 -1.8949  1.1080  0.5035
    7MOL   H133  985   4.132   7.410   6.619  0.0701 -0.2400  1.3318
    7MOL   H134  986   4.270   7.524   6.609 -0.1786  1.9520  0.1468
    7MOL   C135  987   4.216   7.803   6.669 -0.0469 -0.4962 -0.4764
    7MOL   C136  988   4.298   7.901   6.572  0.0682  0.3238  0.6070
    7MOL   O137  989   4.142   7.881   6.762 -0.2760  0.3219  0.3650
    7MOL   H138  990   4.286   7.739   6.723 -0.0625  0.4852  0.7365
    7MOL   H139  991   4.234   0.039   6.501  0.4937  0.2744  0.1873
    7MOL   H140  992   4.364   7.835   6.516 -2.6098 -0.9112 -1.1667
    7MOL   H141  993   4.357   0.069   6.613  0.6641  0.5558 -0.6962
    7MOL   H142  994   4.104   0.041   6.717 -0.0732 -0.2416 -0.7741
    8MOL     C1  995   3.178   2.226   5.298 -0.4381 -0.5744 -0.0115
    8MOL     C2  996   3.159   2.073   5.271  0.0522 -0.6586  0.2402
    8MOL     O3  997   3.284   2.234   5.388 -0.2906 -0.0846  0.6860
    8MOL     H4  998   3.090   2.277   5.337  0.1224  0.0731  0.4035
    8MOL     H5  999   3.129   2.025   5.365 -1.3953  0.8972  0.5812
    8MOL     H6 1000   3.256   2.027   5.254  0.8957  1.2322 -0.1364
    8MOL     H7 1001   3.091   2.050   5.189  1.0221 -0.7965 -0.5353
    8MOL     H8 1002   3.207   2.278   5.206  1.5304  0.1317  0.9800
    8MOL     C9 1003   3.357   2.356   5.393  0.8705 -1.1176 -0.1451
    8MOL    C10 1004   3.432   2.402   5.268  0.3711 -0.2408 -0.2677
    8MOL    O11 1005   3.269   2.467   5.413  0.4425 -0.2203  0.7900
    8MOL    H12 1006   3.427   2.350   5.476  0.0604 -1.5990  0.5216
    8MOL    H13 1007   3.501   2.479   5.304 -1.2216  0.1061  2.1360
    8MOL    H14 1008   3.363   2.443   5.194  0.8774 -0.1881 -0.7178
    8MOL    H15 1009   3.491   2.321   5.225  0.1796 -1.0831  1.0264
    8MOL    C16 1010   3.315   2.569   5.496 -0.6594 -0.1580  0.0377
    8MOL    C17 1011   3.317   2.694   5.419 -0.8701  0.1199 -0.5858
    8MOL    O18 1012   3.239   2.589   5.614 -0.5160 -0.6031 -0.0989
    8MOL    H19 1013   3.419   2.548   5.519 -0.5066 -0.6886 -1.0942
    8MOL    H20 1014   3.216   2.736   5.415 -0.8841  0.0587 -0.8769
    8MOL    H21 1015   3.343   2.672   5.315 -2.4739  1.9105 -1.3876
    8MOL    H22 1016   3.368   2.771   5.476  0.3854  0.1442 -1.7218
    8MOL    C23 1017   3.217   2.480   5.696  0.3286  0.3445  0.0254
    8MOL    C24 1018   3.302   2.493   5.827 -0.3634  0.3177 -0.2266
    8MOL    O25 1019   3.081   2.464   5.720  0.3211  0.1000  0.9535
    8MOL    H26 1020   3.251   2.394   5.638 -1.8528  1.0448 -2.3700
    8MOL    H27 1021   3.402   2.527   5.799  0.5520 -1.7043  0.4918
    8MOL    H28 1022   3.296   2.398   5.879 -0.5512  0.5872  0.2473
    8MOL    H29 1023   3.247   2.558   5.895 -1.7327 -1.4257  0.3522
    8MOL    C30 1024   3.003   2.424   5.608  0.0380  0.0281  0.0361
    8MOL    C31 1025   2.951   2.283   5.640  0.6895 -0.6446 -0.0592
    8MOL    O32 1026   2.897   2.515   5.582 -0.4569 -0.5010 -0.3918
    8MOL    H33 1027   3.058   2.409   5.515  2.1799 -1.5476  1.5019
    8MOL    H34 1028   2.852   2.293   5.684  0.0505 -0.2923 -1.5406
    8MOL    H35 1029   3.012   2.238   5.718  0.4905 -2.2676 -0.8260
    8MOL    H36 1030   2.959   2.215   5.555  2.5729 -0.8483  0.2581
    8MOL    C37 1031   2.932   2.630   5.517 -0.3845  0.9251 -0.2195
    8MOL    C38 1032   2.877   2.624   5.376  0.2920 -0.9698  0.4378
    8MOL    O39 1033   2.867   2.731   5.574 -0.5742  0.1608 -0.4408
    8MOL    H40 1034   3.038   2.657   5.515  0.3868 -1.9311 -2.0539
    8MOL    H41 1035   2.945   2.572   5.309  0.4728 -1.1716  0.7767
    8MOL    H42 1036   2.874   2.726   5.339  1.6412 -0.3254  2.0175
    8MOL    H43 1037   2.778   2.578   5.385  0.2349 -0.6872  1.3022
    8MOL    C44 1038   2.911   2.782   5.699 -0.4827  0.4453 -0.2808
    8MOL    C45 1039   2.951   2.925   5.688 -0.4013  0.0358 -0.0543
    8MOL    O46 1040   2.812   2.785   5.798 -0.0564 -0.3146 -0.1464
    8MOL    H47 1041   2.992   2.716   5.729  1.5760  1.9703 -2.3193
    8MOL    H48 1042   2.856   2.967   5.652 -0.2578  1.1130  0.7952
    8MOL    H49 1043   3.031   2.925   5.615 -2.8499 -4.0752 -2.9590
    8MOL    H50 1044   2.978   2.970   5.784  1.0923 -2.4645  0.7449
    8MOL    C51 1045   2.766   2.664   5.844  0.3734 -0.4617 -0.7258
    8MOL    C52 1046   2.840   2.639   5.980 -0.2084 -0.1473  0.5277
    8MOL    O53 1047   2.636   2.677   5.868 -0.7954 -0.2326  0.3010
    8MOL    H54 1048   2.786   2.582   5.774 -0.5291 -0.8484 -0.5340
    8MOL    H55 1049   2.940   2.602   5.955  0.8341  3.6427 -1.3771
    8MOL    H56 1050   2.781   2.570   6.039  2.3201 -1.6075  1.4420
    8MOL    H57 1051   2.847   2.726   6.046 -3.2763  0.4227  0.1502
    8MOL    C58 1052   2.561   2.670   5.748  0.0245  0.1149 -0.1535
    8MOL    C59 1053   2.479   2.544   5.780 -0.0883  0.4086 -0.5832
    8MOL    O60 1054   2.465   2.770   5.737 -0.1817  0.1372 -0.1723
    8MOL    H61 1055   2.610   2.647   5.653 -1.1719 -0.5929 -0.6082
    8MOL    H62 1056   2.395   2.544   5.710  0.5691  1.0263 -1.3823
    8MOL    H63 1057   2.421   2.552   5.872 -0.1963 -0.7012 -0.5493
    8MOL    H64 1058   2.533   2.451   5.794  0.7340  0.7390 -1.5498
    8MOL    C65 1059   2.527   2.899   5.744 -0.4869  0.9530 -0.5415
    8MOL    C66 1060   2.548   2.946   5.597 -0.3095 -0.2772  0.3115
    8MOL    O67 1061   2.432   2.983   5.812 -0.3512  0.1394  0.1385
    8MOL    H68 1062   2.624   2.904   5.794 -1.5964 -0.2309  1.7692
    8MOL    H69 1063   2.612   3.034   5.591 -1.4161  0.4589 -0.8929
    8MOL    H70 1064   2.446   2.960   5.560  0.8360  1.0182 -2.4457
    8MOL    H71 1065   2.606   2.875   5.538 -0.6410 -2.0136  2.0355
    8MOL    C72 1066   2.416   2.947   5.940  0.8315 -0.2226  0.5910
    8MOL    C73 1067   2.518   3.010   6.031 -0.5246  0.2734 -0.3924
    8MOL    O74 1068   2.287   2.989   5.979 -0.0554 -0.4798  0.0744
    8MOL    H75 1069   2.416   2.839   5.950  2.3006 -0.2207  0.6905
    8MOL    H76 1070   2.509   2.976   6.134 -0.6222  1.4963  0.0025
    8MOL    H77 1071   2.495   3.116   6.039 -0.0605  0.4042 -0.7528
    8MOL    H78 1072   2.619   3.000   5.991 -0.8744  0.9617 -1.4593
    8MOL    C79 1073   2.181   2.918   5.925 -0.3295 -0.4679  0.6091
    8MOL    C80 1074   2.156   2.819   6.040 -0.0298 -0.4948  0.1510
    8MOL    O81 1075   2.069   2.995   5.933 -0.6933 -0.2778 -0.3132
    8MOL    H82 1076   2.203   2.868   5.831 -3.2681 -3.0841  1.2023
    8MOL    H83 1077   2.082   2.744   6.013 -0.7951  0.6131 -0.8571
    8MOL    H84 1078   2.130   2.878   6.128 -0.0325 -0.4925  0.1483
    8MOL    H85 1079   2.254   2.775   6.062  0.6003 -0.1370 -1.8842
    8MOL    C86 1080   2.063   3.095   5.846 -0.5029 -0.2261 -0.0212
    8MOL    C87 1081   1.974   3.040   5.730 -0.0524  0.6612 -0.4316
    8MOL    O88 1082   1.995   3.208   5.893 -0.4819 -0.2045  0.7140
    8MOL    H89 1083   2.156   3.129   5.800  0.0350  0.4164  1.5042
    8MOL    H90 1084   2.005   2.948   5.680 -0.8632  0.6204 -0.8767
    8MOL    H91 1085   1.963   3.119   5.656 -1.2830  0.8855 -0.0245
    8MOL    H92 1086   1.878   3.006   5.770  0.0221  0.7315 -0.1935
    8MOL    C93 1087   2.073   3.283   5.981  0.2132  0.8266 -0.0848
    8MOL    C94 1088   2.147   3.396   5.899  0.7098 -0.4700 -0.2883
    8MOL    O95 1089   1.974   3.343   6.065  0.4410 -0.0483 -0.0165
    8MOL    H96 1090   2.140   3.216   6.035 -1.0380 -0.9444 -0.6924
    8MOL    H97 1091   2.072   3.463   5.858  0.5291 -1.2130 -1.1906
    8MOL    H98 1092   2.211   3.355   5.821  2.4156  0.1090  0.7743
    8MOL    H99 1093   2.208   3.435   5.981 -0.4497 -0.2396  0.4832
    8MOL   C100 1094   1.929   3.258   6.170 -0.7546 -0.0925 -0.7752
    8MOL   C101 1095   2.018   3.279   6.300 -0.0030 -0.3499  0.6668
    8MOL   O102 1096   1.794   3.293   6.201  0.2292  0.3416  0.4862
    8MOL   H103 1097   1.935   3.152   6.145  3.1875 -0.7296  2.3282
    8MOL   H104 1098   2.002   3.384   6.320 -2.7096 -0.3548 -1.1885
    8MOL   H105 1099   2.120   3.247   6.280 -0.7707 -0.3207 -3.9062
    8MOL   H106 1100   1.989   3.223   6.389  2.7100 -1.3933  0.9470
    8MOL   C107 1101   1.702   3.255   6.096 -0.1005 -0.1352  0.6447
    8MOL   C108 1102   1.641   3.124   6.144  0.6176 -0.2625  0.1843
    8MOL   O109 1103   1.598   3.348   6.085  0.3742 -0.1551 -0.2125
    8MOL   H110 1104   1.758   3.229   6.007  4.0095  2.1134  2.4257
    8MOL   H111 1105   1.569   3.086   6.072 -0.4335 -0.4716  1.3466
    8MOL   H112 1106   1.599   3.137   6.243 -4.5359 -0.4557 -1.8294
    8MOL   H113 1107   1.722   3.052   6.160  0.9786  0.2737  0.7883
    8MOL   C114 1108   1.626   3.463   6.015  0.3247  0.0519 -0.0536
    8MOL   C115 1109   1.545   3.461   5.885  0.7064 -0.0820  0.2365
    8MOL   O116 1110   1.592   3.580   6.084 -0.2047 -0.1080  0.4154
    8MOL   H117 1111   1.732   3.459   5.988  0.4506 -2.4382  0.6699
    8MOL   H118 1112   1.550   3.362   5.840 -2.2642 -0.6353  1.0070
    8MOL   H119 1113   1.580   3.533   5.811  0.4859 -0.5251 -0.3020
    8MOL   H120 1114   1.441   3.479   5.912  0.5234 -1.9229  0.8250
    8MOL   C121 1115   1.695   3.613   6.169  0.2694  0.4077 -0.0796
    8MOL   C122 1116   1.772   3.725   6.096 -0.7135  0.3148  0.2704
    8MOL   O123 1117   1.652   3.668   6.279  0.6298 -0.7535 -0.6877
    8MOL   H124 1118   1.774   3.541   6.191  1.8523  2.7548  2.2870
    8MOL   H125 1119   1.804   3.689   5.999 -0.2998  0.9146  0.1818
    8MOL   H126 1120   1.867   3.746   6.145 -0.0277 -2.2837  0.1589
    8MOL   H127 1121   1.710   3.814   6.085  0.1889  0.9925  0.6405
    8MOL   C128 1122   1.592   3.572   6.368 -0.5430 -0.0084 -0.0033
    8MOL   C129 1123   1.709   3.500   6.441 -0.1413  0.1427 -0.0755
    8MOL   O130 1124   1.517   3.638   6.474  0.2369 -0.6161 -0.1747
    8MOL   H131 1125   1.528   3.506   6.309 -1.4228 -0.0328  0.9626
    8MOL   H132 1126   1.776   3.440   6.380 -0.3816 -0.4923  0.2888
    8MOL   H133 1127   1.667   3.434   6.517 -0.9553  1.2162  0.4275
    8MOL   H134 1128   1.761   3.576   6.501  1.3050 -2.1409  1.6623
    8MOL   C135 1129   1.392   3.666   6.425  0.1442  0.5418 -0.9996
    8MOL   C136 1130   1.312   3.708   6.552 -0.0964  0.2994 -0.1632
    8MOL   O137 1131   1.385   3.760   6.322  0.7281  0.8013  0.3462
    8MOL   H138 1132   1.342   3.578   6.384 -0.5093  1.4797 -2.2705
    8MOL   H139 1133   1.211   3.707   6.513 -0.5329 -0.4252  0.9443
    8MOL   H140 1134   1.356   3.801   6.590  0.1601 -0.4212  1.3678
    8MOL   H141 1135   1.316   3.633   6.631  0.3728 -1.9722 -2.2893
    8MOL   H142 1136   1.463   3.746   6.271  0.6447 -0.1318  0.4627
    9MOL     C1 1137   7.772   3.466   1.937 -0.0598 -0.5336  0.5373
    9MOL     C2 1138   7.719   3.324   1.928  0.0708  0.3099  0.4232
    9MOL     O3 1139   7.879   3.453   2.023  0.3540 -0.3932  0.1420
    9MOL     H4 1140   7.701   3.548   1.955  1.7508  1.5087 -1.4067
    9MOL     H5 1141   7.621   3.324   1.879  0.1622  0.7243  0.2420
    9MOL     H6 1142   7.709   3.284   2.029  1.0871 -1.3462 -0.1045
    9MOL     H7 1143   7.796   3.263   1.881 -1.3816 -1.7166  0.6014
    9MOL     H8 1144   7.819   3.501   1.845 -0.5948 -2.7418 -0.6088
    9MOL     C9 1145   7.890   3.556   2.119  0.2031  0.3255  0.3257
    9MOL    C10 1146   7.810   3.512   2.239  0.2122  0.5596 -0.0813
    9MOL    O11 1147   0.110   3.556   2.167 -0.0842 -0.2416 -0.1685
    9MOL    H12 1148   7.845   3.653   2.099  0.3776  0.5114  0.8210
    9MOL    H13 1149   7.708   3.494   2.207  0.3797  0.5967 -0.6355
    9MOL    H14 1150   7.806   3.597   2.307  0.3595 -0.4167  1.1655
    9MOL    H15 1151   7.856   3.420   2.275  0.0818  0.7658  0.6314
    9MOL    C16 1152   0.198   3.601   2.070  0.0757 -0.6417  0.0368
    9MOL    C17 1153   0.247   3.750   2.088 -0.3683 -0.2237  0.4665
    9MOL    O18 1154   0.313   3.526   2.069 -0.0534  0.0976  0.3677
    9MOL    H19 1155   0.156   3.591   1.970  1.9438 -2.1351 -0.6420
    9MOL    H20 1156   0.330   3.753   2.018 -0.6868 -1.2810  0.0384
    9MOL    H21 1157   0.288   3.770   2.187  1.8655  1.3137 -0.7258
    9MOL    H22 1158   0.175   3.822   2.048 -1.3144 -1.3029  0.1995
    9MOL    C23 1159   0.284   3.394   2.016  0.0590 -0.4482  0.9299
    9MOL    C24 1160   0.377   3.393   1.893  0.1632 -0.0309 -0.8233
    9MOL    O25 1161   0.347   3.305   2.109  0.1113 -0.3056 -0.6319
    9MOL    H26 1162   0.183   3.356   2.001  0.1601 -1.4713  2.6529
    9MOL    H27 1163   0.356   3.482   1.833 -0.6885  0.5715  0.3345
    9MOL    H28 1164   0.354   3.304   1.835  0.1172  0.0672 -0.9572
    9MOL    H29 1165   0.479   3.397   1.931 -1.4571 -3.1845  4.3275
    9MOL    C30 1166   0.277   3.277   2.225 -0.3400  0.2993  0.4855
    9MOL    C31 1167   0.226   3.128   2.214 -0.9015  0.3015 -0.2104
    9MOL    O32 1168   0.355   3.282   2.341 -0.6861  0.0866  0.0384
    9MOL    H33 1169   0.191   3.345   2.230 -1.2701 -0.5785 -2.4602
    9MOL    H34 1170   0.153   3.111   2.293 -0.0376  0.0507  0.5344
    9MOL    H35 1171   0.312   3.062   2.225 -1.8573 -0.7354  1.2634
    9MOL    H36 1172   0.182   3.115   2.115  2.1340 -1.3241 -1.3820
    9MOL    C37 1173   0.405   3.413   2.373 -0.7218 -0.0174 -0.3421
    9MOL    C38 1174   0.346   3.474   2.495 -0.1453 -0.5178  0.5828
    9MOL    O39 1175   0.545   3.398   2.399 -0.1634 -0.8823  0.0128
    9MOL    H40 1176   0.392   3.480   2.288 -0.2754 -0.2491 -0.5944
    9MOL    H41 1177   0.354   3.400   2.575 -0.6194 -3.1604 -1.7288
    9MOL    H42 1178   0.247   3.512   2.470  0.0811  0.0381  0.5295
    9MOL    H43 1179   0.397   3.567   2.519 -1.6042 -0.1153  2.2169
    9MOL    C44 1180   0.621   3.355   2.296  0.3600  0.1815 -0.0430
    9MOL    C45 1181   0.695   3.480   2.235  0.0679  0.5103 -0.4542
    9MOL    O46 1182   0.713   3.253   2.334 -0.0018  0.4916 -0.3351
    9MOL    H47 1183   0.556   3.311   2.221 -2.4516 -0.6313  2.7775
    9MOL    H48 1184   0.628   3.557   2.196 -0.6760  0.9087  1.5451
    9MOL    H49 1185   0.764   3.455   2.154  1.3477 -1.1949  1.1076
    9MOL    H50 1186   0.754   3.520   2.317  1.3703 -1.3185 -0.4677
    9MOL    C51 1187   0.664   3.127   2.361 -1.3212 -0.5157 -0.1437
    9MOL    C52 1188   0.725   3.037   2.263 -0.3204  0.0768  0.7581
    9MOL    O53 1189   0.698   3.071   2.482 -0.2003  0.1501 -0.1438
    9MOL    H54 1190   0.556   3.113   2.356 -1.1782 -1.3510 -1.3065
    9MOL    H55 1191   0.672   2.941   2.262 -2.2580  1.1228 -0.9559
    9MOL    H56 1192   0.826   3.006   2.288  0.7346  2.3000 -0.7061
    9MOL    H57 1193   0.709   3.082   2.165  1.1855 -2.2761 -0.5985
    9MOL    C58 1194   0.638   3.142   2.588  0.1509  0.1658 -0.0530
    9MOL    C59 1195   0.536   3.061   2.655 -0.9267 -0.3491  0.0717
    9MOL    O60 1196   0.728   3.172   2.681 -0.4132 -0.3733 -0.1821
    9MOL    H61 1197   0.594   3.235   2.553  1.7036  1.5896  1.7311
    9MOL    H62 1198   0.454   3.039   2.586 -0.9323  0.2700 -0.1278
    9MOL    H63 1199   0.497   3.101   2.749  1.5834 -2.1327  1.9069
    9MOL    H64 1200   0.593   2.971   2.675  0.4040  0.8972  1.9981
    9MOL    C65 1201   0.816   3.274   2.643  0.8569 -0.0063 -0.7907
    9MOL    C66 1202   0.769   3.409   2.704 -0.5188  0.0323 -0.6109
    9MOL    O67 1203   0.937   3.242   2.703 -0.6754  0.3019  0.0424
    9MOL    H68 1204   0.834   3.274   2.536  3.5480  1.0140 -0.3728
    9MOL    H69 1205   0.826   3.487   2.654  2.6733 -0.1477  2.5639
    9MOL    H70 1206   0.790   3.411   2.811 -1.1573 -0.4675 -0.4770
    9MOL    H71 1207   0.661   3.417   2.692 -0.3458  0.9656 -1.6191
    9MOL    C72 1208   1.002   3.138   2.633 -0.1311  0.2925 -0.0143
    9MOL    C73 1209   1.085   3.205   2.521  0.1958 -0.4694 -0.2757
    9MOL    O74 1210   1.091   3.066   2.715  0.3674 -0.3896 -1.1299
    9MOL    H75 1211   0.934   3.062   2.594  0.5811 -0.4028  0.0598
    9MOL    H76 1212   1.028   3.280   2.465  0.2623  0.7831  1.2921
    9MOL    H77 1213   1.126   3.135   2.448 -1.1930 -2.2658  0.6178
    9MOL    H78 1214   1.166   3.260   2.568  0.7321 -0.1368 -1.5745
    9MOL    C79 1215   1.031   3.003   2.822 -0.4993  0.0142 -0.0109
    9MOL    C80 1216   1.065   2.849   2.815 -0.9560 -0.1124 -0.4779
    9MOL    O81 1217   1.078   3.044   2.944 -0.4507  0.7062  0.3628
    9MOL    H82 1218   0.922   3.010   2.824 -0.4209  1.0589  0.5631
    9MOL    H83 1219   1.080   2.805   2.913  2.7552  0.4729 -0.7074
    9MOL    H84 1220   1.163   2.835   2.770 -1.0426 -0.3118 -0.6031
    9MOL    H85 1221   0.990   2.794   2.760 -0.0661 -0.3950 -1.4156
    9MOL    C86 1222   1.022   3.151   3.002  0.0772 -0.4330 -0.2442
    9MOL    C87 1223   0.955   3.114   3.130  0.5189 -0.1806 -1.0674
    9MOL    O88 1224   1.127   3.234   3.040  0.1589  0.3920 -0.1765
    9MOL    H89 1225   0.960   3.215   2.940  0.4901  2.1869  1.9282
    9MOL    H90 1226   0.871   3.048   3.108 -1.2021  1.6441 -0.1746
    9MOL    H91 1227   0.922   3.199   3.190 -1.4976 -3.0401  2.0497
    9MOL    H92 1228   1.018   3.058   3.199 -2.1891 -0.1528  1.5427
    9MOL    C93 1229   1.187   3.299   2.932  0.0165 -0.0573  0.0714
    9MOL    C94 1230   1.115   3.437   2.925  0.0101 -0.4937  0.5203
    9MOL    O95 1231   1.316   3.335   2.965  0.3127 -0.0187 -0.0678
    9MOL    H96 1232   1.174   3.238   2.842  1.0840  1.2340 -0.9774
    9MOL    H97 1233   1.023   3.423   2.868 -1.4543  1.2224  2.3939
    9MOL    H98 1234   1.179   3.511   2.876 -2.9696  0.8077 -1.5337
    9MOL    H99 1235   1.098   3.479   3.024 -1.9079 -1.1728  0.5013
    9MOL   C100 1236   1.408   3.235   2.931 -0.4523 -0.0048 -0.6163
    9MOL   C101 1237   1.497   3.299   2.833 -0.3403 -0.1005 -0.0980
    9MOL   O102 1238   1.488   3.187   3.033  0.2471 -0.4905  0.1510
    9MOL   H103 1239   1.358   3.151   2.883  1.6160 -1.2865 -0.6075
    9MOL   H104 1240   1.456   3.306   2.733 -0.4803  1.4420  0.0429
    9MOL   H105 1241   1.587   3.239   2.831  0.3457  0.8615  0.8966
    9MOL   H106 1242   1.513   3.404   2.860 -0.7898 -0.0297 -0.0996
    9MOL   C107 1243   1.430   3.094   3.121  0.0378  0.2201  0.6363
    9MOL   C108 1244   1.510   2.966   3.091 -0.2897  0.4610  1.1822
    9MOL   O109 1245   1.454   3.138   3.250 -0.1665  0.2343 -0.1139
    9MOL   H110 1246   1.324   3.078   3.102  0.5068 -1.5021 -0.6104
    9MOL   H111 1247   1.503   2.937   2.986 -0.3066 -1.1813  1.6208
    9MOL   H112 1248   1.485   2.887   3.163 -0.8420 -0.1975  0.2813
    9MOL   H113 1249   1.610   3.000   3.120 -0.9162  2.2490  1.2444
    9MOL   C114 1250   1.350   3.214   3.306 -0.4403  0.0523  0.3119
    9MOL   C115 1251   1.275   3.114   3.402 -0.6082 -0.5057  0.0440
    9MOL   O116 1252   1.406   3.310   3.388 -0.3569 -0.4152 -0.2319
    9MOL   H117 1253   1.276   3.261   3.241 -0.8113 -0.7869  0.1166
    9MOL   H118 1254   1.200   3.166   3.462 -0.1295 -1.0798  1.1611
    9MOL   H119 1255   1.351   3.076   3.471 -0.6627  3.3753  2.4577
    9MOL   H120 1256   1.242   3.025   3.351 -0.0071 -0.3232 -0.6694
    9MOL   C121 1257   1.468   3.412   3.310  0.1432  0.4985 -0.5708
    9MOL   C122 1258   1.374   3.529   3.297 -0.5031 -0.7522  0.0145
    9MOL   O123 1259   1.585   3.463   3.359 -0.5390  0.2723  0.0225
    9MOL   H124 1260   1.487   3.373   3.210 -0.3655  0.5930 -0.7072
    9MOL   H125 1261   1.348   3.568   3.395  0.9006 -0.6804  0.3700
    9MOL   H126 1262   1.274   3.496   3.267 -1.4724  0.1254  2.1706
    9MOL   H127 1263   1.404   3.617   3.240 -1.7745  0.1693  0.7451
    9MOL   C128 1264   1.695   3.385   3.343 -0.0756  0.1259 -0.3165
    9MOL   C129 1265   1.791   3.458   3.253 -0.1150  0.4954 -0.2044
    9MOL   O130 1266   1.754   3.368   3.468 -0.1916  0.3338 -0.0776
    9MOL   H131 1267   1.675   3.286   3.302  2.5673 -1.3016  1.6428
    9MOL   H132 1268   1.825   3.548   3.304 -2.6873  1.3660  0.0538
    9MOL   H133 1269   1.760   3.492   3.155  0.9710  0.1442 -0.6775
    9MOL   H134 1270   1.862   3.376   3.237 -0.6693 -0.2683  1.1496
    9MOL   C135 1271   1.682   3.284   3.557 -0.3332 -0.1823  0.1804
    9MOL   C136 1272   1.774   3.245   3.662  0.6580 -0.6781 -0.1424
    9MOL   O137 1273   1.570   3.352   3.621  0.5161  0.2170 -0.1354
    9MOL   H138 1274   1.635   3.204   3.499  0.2398 -0.7299  0.4612
    9MOL   H139 1275   1.794   3.346   3.698  1.0137 -0.5397 -0.7209
    9MOL   H140 1276   1.872   3.209   3.631  1.8871  0.6297  2.1086
    9MOL   H141 1277   1.726   3.198   3.748 -0.3594  1.6228  0.6017
    9MOL   H142 1278   1.498   3.332   3.563 -0.7432 -0.2806  1.5320
   10MOL     C1 1279   5.085   5.613   0.220  0.2695 -0.4876  0.0824
   10MOL     C2 1280   5.146   5.470   0.229  0.3713 -0.1627 -0.2484
   10MOL     O3 1281   4.977   5.628   0.307 -0.4332 -0.5829 -0.2463
   10MOL     H4 1282   5.057   5.635   0.117 -0.1802 -1.9135 -0.1210
   10MOL     H5 1283   5.230   5.453   0.162  1.0198 -1.9208  0.9737
   10MOL     H6 1284   5.063   5.413   0.188 -1.3147 -0.6453  3.6129
   10MOL     H7 1285   5.170   5.423   0.325  1.1827 -1.1812 -0.9437
   10MOL     H8 1286   5.159   5.685   0.256 -0.6226 -0.1118  1.1991
   10MOL     C9 1287   4.953   5.760   0.344 -0.0405  0.8661 -0.6377
   10MOL    C10 1288   4.808   5.753   0.376 -0.2604 -0.1405  0.0200
   10MOL    O11 1289   5.022   5.785   0.459  0.1316  0.0287  0.0678
   10MOL    H12 1290   4.970   5.825   0.258 -0.4953  0.7322 -0.8308
   10MOL    H13 1291   4.785   5.690   0.462  0.3503  1.1185  1.1308
   10MOL    H14 1292   4.751   5.712   0.293  0.1782  0.2494 -0.4769
   10MOL    H15 1293   4.772   5.853   0.399 -2.0928 -1.1776  1.8196
   10MOL    C16 1294   5.090   5.904   0.464  0.1751 -0.0630  0.2197
   10MOL    C17 1295   5.142   5.910   0.605  0.0902  0.1243  0.9983
   10MOL    O18 1296   5.207   5.894   0.377 -0.5089 -0.3505  0.3336
   10MOL    H19 1297   5.020   5.984   0.441  3.4668  2.0795 -2.8607
   10MOL    H20 1298   5.184   6.010   0.622 -0.3248  0.8893 -2.0701
   10MOL    H21 1299   5.221   5.839   0.630  0.9208  0.3686 -0.8015
   10MOL    H22 1300   5.062   5.900   0.678 -1.2985 -3.0219 -0.8559
   10MOL    C23 1301   5.239   6.025   0.332 -0.9500 -0.8116  0.1383
   10MOL    C24 1302   5.381   6.025   0.253 -0.6426  0.0483  0.0255
   10MOL    O25 1303   5.141   6.061   0.244 -0.3827 -0.4910  0.5335
   10MOL    H26 1304   5.247   6.088   0.420 -1.7371 -0.7172  0.1459
   10MOL    H27 1305   5.449   5.967   0.316 -0.0309 -2.3167 -2.6894
   10MOL    H28 1306   5.423   6.123   0.231 -0.1052 -0.7890 -2.9447
   10MOL    H29 1307   5.368   5.968   0.161  0.6315 -0.4313  0.1318
   10MOL    C30 1308   5.105   6.193   0.267 -0.4727  0.5393  0.5167
   10MOL    C31 1309   5.065   6.246   0.132 -0.4917  0.3696  0.1720
   10MOL    O32 1310   5.002   6.210   0.362 -0.0760 -0.4669 -0.1275
   10MOL    H33 1311   5.188   6.253   0.305  0.2324 -0.7190  0.9912
   10MOL    H34 1312   5.041   6.351   0.148 -0.5635  0.2026  1.2282
   10MOL    H35 1313   4.970   6.201   0.104  0.7255 -1.8463 -0.4889
   10MOL    H36 1314   5.137   6.213   0.058 -2.5763 -0.0025 -1.7364
   10MOL    C37 1315   5.029   6.293   0.470 -0.1498  0.4308 -0.6067
   10MOL    C38 1316   4.899   6.299   0.550 -0.6021  0.1497 -0.2355
   10MOL    O39 1317   5.125   6.245   0.560  0.2658  0.0005  0.4548
   10MOL    H40 1318   5.055   6.389   0.427  2.6741  0.4783  1.0663
   10MOL    H41 1319   4.823   6.351   0.491 -0.0332  1.1518 -0.0925
   10MOL    H42 1320   4.915   6.364   0.635  0.6606  0.0932 -0.4299
   10MOL    H43 1321   4.864   6.198   0.574 -0.9926 -0.3452 -2.6814
   10MOL    C44 1322   5.217   6.334   0.608 -0.2900  0.8976  0.2647
   10MOL    C45 1323   5.283   6.286   0.740 -0.4391  0.7254 -0.4792
   10MOL    O46 1324   5.319   6.333   0.514  0.2960 -0.3340 -0.1081
   10MOL    H47 1325   5.172   6.432   0.625  0.1397  0.7559  2.2700
   10MOL    H48 1326   5.218   6.279   0.827 -0.2224 -0.4966 -0.4111
   10MOL    H49 1327   5.368   6.352   0.761  1.4600 -1.6401 -0.4340
   10MOL    H50 1328   5.326   6.188   0.719 -1.8355  0.3325 -1.6052
   10MOL    C51 1329   5.353   6.464   0.461 -0.2018  0.2634 -0.1136
   10MOL    C52 1330   5.479   6.452   0.374  0.5764 -0.7411 -0.1934
   10MOL    O53 1331   5.253   6.525   0.383 -0.1300  0.5638 -0.7679
   10MOL    H54 1332   5.366   6.531   0.546  1.5589  0.6634 -0.6905
   10MOL    H55 1333   5.494   6.547   0.323  0.6880 -0.4937  0.3037
   10MOL    H56 1334   5.465   6.385   0.288  0.4731  0.8263 -1.4178
   10MOL    H57 1335   5.564   6.421   0.434  1.5884 -0.5297 -1.5157
   10MOL    C58 1336   5.207   6.651   0.419 -0.8263  0.3259 -0.0178
   10MOL    C59 1337   5.130   6.701   0.295 -0.0241 -0.3981  0.0021
   10MOL    O60 1338   5.117   6.649   0.521 -0.0500  0.0861 -0.0131
   10MOL    H61 1339   5.293   6.712   0.446 -0.8228  0.3384 -0.0574
   10MOL    H62 1340   5.029   6.659   0.293  0.8071 -2.4282 -0.6599
   10MOL    H63 1341   5.190   6.673   0.208  2.0082  1.9823  0.5786
   10MOL    H64 1342   5.122   6.809   0.293 -1.2099 -0.4752  0.1609
   10MOL    C65 1343   5.152   6.745   0.620  0.0873  0.3214  0.5869
   10MOL    C66 1344   5.016   6.769   0.689  0.3361  0.5310 -0.1100
   10MOL    O67 1345   5.242   6.689   0.713 -0.3574 -0.4324 -0.5360
   10MOL    H68 1346   5.189   6.837   0.573  0.6023 -1.1715 -2.0415
   10MOL    H69 1347   4.983   6.686   0.752 -1.5962  1.0231 -0.4514
   10MOL    H70 1348   4.943   6.781   0.609 -2.3669  0.7018  2.2949
   10MOL    H71 1349   5.018   6.857   0.753  1.6692  0.1641  0.3669
   10MOL    C72 1350   5.351   6.775   0.738  0.6491 -0.2168  0.7543
   10MOL    C73 1351   5.420   6.727   0.862  0.0052  0.3341  0.6306
   10MOL    O74 1352   5.446   6.769   0.639  0.1800 -0.6228  0.0494
   10MOL    H75 1353   5.316   6.877   0.751 -0.8355  0.1441 -4.7689
   10MOL    H76 1354   5.492   6.802   0.896  0.6853  0.5870 -1.2841
   10MOL    H77 1355   5.470   6.631   0.847 -0.8046  0.1383 -0.8836
   10MOL    H78 1356   5.349   6.709   0.942 -0.8038  1.3829  0.1533
   10MOL    C79 1357   5.483   6.894   0.580 -0.0085  0.0634 -0.2815
   10MOL    C80 1358   5.575   6.864   0.469 -0.5979  0.5074 -0.1563
   10MOL    O81 1359   5.381   6.965   0.526  0.4008 -0.2409  0.2687
   10MOL    H82 1360   5.526   6.942   0.668 -0.1163 -0.3057 -0.0265
   10MOL    H83 1361   5.652   6.790   0.494 -1.7481 -0.6987 -0.1604
   10MOL    H84 1362   5.631   6.953   0.438 -0.4634  0.4488 -0.0846
   10MOL    H85 1363   5.516   6.825   0.386 -0.0265  2.1358 -1.3469
   10MOL    C86 1364   5.395   7.108   0.545  0.5702  0.0755 -0.6434
   10MOL    C87 1365   5.291   7.172   0.455 -0.0999 -0.2774  0.2597
   10MOL    O88 1366   5.368   7.141   0.680  0.4951  0.7324  0.0575
   10MOL    H89 1367   5.499   7.139   0.529  1.5832 -1.9713  1.5258
   10MOL    H90 1368   5.274   7.273   0.493 -0.3111  0.0898 -0.7951
   10MOL    H91 1369   5.195   7.122   0.452  0.8073 -1.9514 -1.4100
   10MOL    H92 1370   5.333   7.179   0.355  0.0738  1.0057  0.4106
   10MOL    C93 1371   5.430   7.254   0.724 -0.6031  0.4685  0.2260
   10MOL    C94 1372   5.386   7.288   0.869 -0.1089 -0.2777 -0.1715
   10MOL    O95 1373   5.565   7.228   0.725 -0.2786  0.5142 -0.2762
   10MOL    H96 1374   5.400   7.332   0.654  0.6640  1.2523  0.5306
   10MOL    H97 1375   5.429   7.385   0.894  2.2487 -1.4025  0.2742
   10MOL    H98 1376   5.395   7.207   0.942 -1.3113 -1.5261 -1.3758
   10MOL    H99 1377   5.278   7.290   0.860 -0.0838  0.4714 -0.2819
   10MOL   C100 1378   5.652   7.334   0.700  0.7687  0.0632 -0.1395
   10MOL   C101 1379   5.791   7.293   0.759 -0.6709  0.5465 -0.6554
   10MOL   O102 1380   5.671   7.366   0.567 -0.8190  0.6270 -0.0307
   10MOL   H103 1381   5.609   7.413   0.762 -1.3720 -1.5703  0.4891
   10MOL   H104 1382   5.826   7.200   0.713 -0.2734  0.6812 -0.6251
   10MOL   H105 1383   5.774   7.248   0.857 -2.3902  0.4498 -0.9765
   10MOL   H106 1384   5.859   7.376   0.774  0.5557 -0.7199  1.0202
   10MOL   C107 1385   5.656   7.499   0.544  0.1860  0.5668 -0.4298
   10MOL   C108 1386   5.701   7.529   0.401 -0.5118  0.0093  0.8851
   10MOL   O109 1387   5.525   7.537   0.562  0.0222  0.2225  0.0862
   10MOL   H110 1388   5.726   7.546   0.614  1.3390  0.7618 -1.6945
   10MOL   H111 1389   5.785   7.465   0.375 -0.7560  0.4864 -1.1462
   10MOL   H112 1390   5.731   7.633   0.391  0.7589 -0.6581 -2.8395
   10MOL   H113 1391   5.631   7.489   0.327  0.4335  1.2100 -0.6779
   10MOL   C114 1392   5.515   7.658   0.620 -0.3085 -0.3792 -0.0553
   10MOL   C115 1393   5.379   7.719   0.561 -0.6782  0.2366  0.3238
   10MOL   O116 1394   5.504   7.639   0.759 -0.9798 -0.6930 -0.0361
   10MOL   H117 1395   5.603   7.715   0.589  0.5041 -1.2808  0.5687
   10MOL   H118 1396   5.383   7.827   0.575  0.8920  0.3149 -0.5663
   10MOL   H119 1397   5.291   7.663   0.592 -1.3654  1.5355  0.7582
   10MOL   H120 1398   5.377   7.694   0.455 -1.6148 -0.5528  0.5181
   10MOL   C121 1399   5.599   7.713   0.835  0.0718 -0.0045  0.3350
   10MOL   C122 1400   5.551   7.696   0.976 -0.2537 -0.1120 -0.2068
   10MOL   O123 1401   5.729   7.668   0.827  0.0409  0.0865 -0.5246
   10MOL   H124 1402   5.591   7.818   0.808  0.2731 -0.1277 -0.1958
   10MOL   H125 1403   5.566   7.591   1.000  0.3385  0.0766  0.2702
   10MOL   H126 1404   5.446   7.719   0.990 -0.1244 -0.5434  1.7269
   10MOL   H127 1405   5.623   7.746   1.042 -1.7967 -0.3329  1.6926
   10MOL   C128 1406   5.823   7.767   0.801  0.2320  0.7673  0.5990
   10MOL   C129 1407   5.955   7.703   0.805  0.0084  0.0760 -0.3142
   10MOL   O130 1408   5.799   7.821   0.673 -0.1213  0.4544  0.3215
   10MOL   H131 1409   5.836   7.842   0.879 -1.1425  0.8457  0.7645
   10MOL   H132 1410   5.959   7.624   0.730 -0.2227  0.2705 -0.5309
   10MOL   H133 1411   5.973   7.662   0.904  1.1522 -0.2804 -0.6600
   10MOL   H134 1412   6.032   7.778   0.784  0.0352  0.4521  1.0705
   10MOL   C135 1413   5.834   0.041   0.654 -0.2509  0.9980 -0.2534
   10MOL   C136 1414   5.787   0.073   0.510  0.8165 -0.0639  0.3957
   10MOL   O137 1415   5.777   0.130   0.754  0.4410  0.9614 -0.0022
   10MOL   H138 1416   5.942   0.049   0.651 -0.0895 -0.8181  0.0987
   10MOL   H139 1417   5.856   0.149   0.474  0.3989  0.1378  0.0255
   10MOL   H140 1418   5.684   0.106   0.497  1.2650  0.8020 -1.0265
   10MOL   H141 1419   5.800   7.897   0.450 -0.8044 -0.8619  1.2056
   10MOL   H142 1420   5.821   0.213   0.761  1.1592  0.7718 -1.9039
   11MOL     C1 1421   2.849   0.836   4.055  0.6538  0.0615 -0.4260
   11MOL     C2 1422   2.973   0.799   3.975 -0.6690  0.8822  0.4141
   11MOL     O3 1423   2.813   0.972   4.039 -0.1504  0.5271 -0.7799
   11MOL     H4 1424   2.893   0.813   4.152  2.4064 -2.7562 -1.8019
   11MOL     H5 1425   2.972   0.819   3.868 -0.0632  1.5851  0.5409
   11MOL     H6 1426   2.991   0.692   3.989  2.9358  1.1876 -1.2929
   11MOL     H7 1427   3.057   0.854   4.016  1.1275 -2.3612  1.2607
   11MOL     H8 1428   2.769   0.769   4.025  0.3517  0.5720 -0.7663
   11MOL     C9 1429   2.689   1.003   4.095  0.1533 -0.4014  0.5417
   11MOL    C10 1430   2.723   1.044   4.238  0.3972  0.0949  0.1220
   11MOL    O11 1431   2.636   1.116   4.031 -0.3272  0.1195 -0.2313
   11MOL    H12 1432   2.618   0.921   4.088  0.7567 -0.8915  0.1610
   11MOL    H13 1433   2.633   1.070   4.294  0.3468  2.5662 -1.0153
   11MOL    H14 1434   2.778   1.138   4.239  0.4859  0.0526 -0.5526
   11MOL    H15 1435   2.782   0.968   4.288  0.1161 -0.5648 -0.5522
   11MOL    C16 1436   2.568   1.093   3.910 -0.2298  0.1026  0.4358
   11MOL    C17 1437   2.424   1.132   3.940 -0.5828 -0.6211 -0.3840
   11MOL    O18 1438   2.610   1.183   3.818 -0.8726 -0.2769  0.4777
   11MOL    H19 1439   2.580   0.990   3.879  1.3970 -0.2750  2.2147
   11MOL    H20 1440   2.428   1.236   3.973 -0.0795 -1.2415  1.5822
   11MOL    H21 1441   2.386   1.071   4.022 -1.6176 -0.3886 -0.6916
   11MOL    H22 1442   2.358   1.136   3.854  1.3259  2.5612 -1.8024
   11MOL    C23 1443   2.751   1.175   3.793 -0.0707 -0.0352 -0.4246
   11MOL    C24 1444   2.765   1.070   3.683 -0.4446 -0.4892  0.7602
   11MOL    O25 1445   2.794   1.297   3.739  0.2078 -0.6585 -0.3786
   11MOL    H26 1446   2.816   1.144   3.876  0.0979 -1.6403 -1.1416
   11MOL    H27 1447   2.706   1.103   3.597  0.4206 -0.8444  0.0161
   11MOL    H28 1448   2.727   0.970   3.705 -0.4092 -0.3893  1.2770
   11MOL    H29 1449   2.870   1.064   3.654  0.2064  0.7595  2.7806
   11MOL    C30 1450   2.815   1.398   3.829 -0.9059 -0.2522 -0.1162
   11MOL    C31 1451   2.958   1.436   3.815  0.2520  0.5947 -0.1278
   11MOL    O32 1452   2.747   1.515   3.794  0.5745  0.1040  0.3229
   11MOL    H33 1453   2.794   1.361   3.929 -2.8351  1.3827  0.1364
   11MOL    H34 1454   3.020   1.347   3.821  2.1627  1.7590 -1.8325
   11MOL    H35 1455   2.979   1.507   3.895 -1.2705  1.6991 -0.6769
   11MOL    H36 1456   2.974   1.471   3.713  1.7185  2.5105  0.7521
   11MOL    C37 1457   2.611   1.501   3.824  0.4127 -0.1034  0.5908
   11MOL    C38 1458   2.585   1.583   3.955 -0.0249  0.1796  0.1975
   11MOL    O39 1459   2.541   1.581   3.729  0.1020  0.1712  0.9747
   11MOL    H40 1460   2.577   1.398   3.822  2.1925 -0.7466  1.6627
   11MOL    H41 1461   2.642   1.536   4.035 -2.7814 -1.2282  1.3946
   11MOL    H42 1462   2.478   1.577   3.972 -0.2760 -1.7950 -1.8824
   11MOL    H43 1463   2.620   1.687   3.948  1.2657 -0.1395  1.5799
   11MOL    C44 1464   2.539   1.512   3.604 -0.5658  0.4306  0.1097
   11MOL    C45 1465   2.419   1.410   3.607 -0.4603  0.2427  0.6075
   11MOL    O46 1466   2.513   1.603   3.505  0.0749 -0.3353  0.5910
   11MOL    H47 1467   2.628   1.453   3.582 -0.8131  0.5972 -1.3201
   11MOL    H48 1468   2.457   1.331   3.673  0.0571  1.7038  2.1003
   11MOL    H49 1469   2.390   1.369   3.511 -0.6650  2.2922 -0.2296
   11MOL    H50 1470   2.330   1.464   3.638  0.0346  0.6515  1.3390
   11MOL    C51 1471   2.607   1.701   3.493 -0.6168 -1.0358 -0.7439
   11MOL    C52 1472   2.664   1.686   3.351  0.3167  0.5401 -0.2989
   11MOL    O53 1473   2.550   1.835   3.502  0.1699  0.0565  0.2547
   11MOL    H54 1474   2.686   1.694   3.568 -1.3140 -0.9394  0.0061
   11MOL    H55 1475   2.704   1.585   3.341 -0.6864  0.2762 -1.7456
   11MOL    H56 1476   2.750   1.753   3.338 -0.6793  1.6187 -1.4624
   11MOL    H57 1477   2.595   1.707   3.270 -1.2249 -2.3758  0.1977
   11MOL    C58 1478   2.471   1.868   3.611 -0.6811 -0.2216 -0.4582
   11MOL    C59 1479   2.561   1.919   3.722 -0.1258 -0.5173  0.7300
   11MOL    O60 1480   2.393   1.968   3.570  0.0864 -0.0243  0.8872
   11MOL    H61 1481   2.404   1.796   3.657 -0.9693  0.1555 -0.2870
   11MOL    H62 1482   2.616   2.008   3.690  0.7547 -1.1726  0.4132
   11MOL    H63 1483   2.632   1.842   3.752  1.5094  0.3368 -0.8926
   11MOL    H64 1484   2.504   1.948   3.811  0.1130  0.9380  0.4192
   11MOL    C65 1485   2.277   1.920   3.497 -0.1457 -0.6472 -0.5518
   11MOL    C66 1486   2.164   1.930   3.603  0.1797 -0.3323  0.2801
   11MOL    O67 1487   2.258   2.012   3.395  0.2923 -0.0981 -0.2010
   11MOL    H68 1488   2.274   1.819   3.457 -0.0769 -1.1445  0.6700
   11MOL    H69 1489   2.071   1.897   3.557  0.0845 -1.9182  1.5650
   11MOL    H70 1490   2.160   2.038   3.617  2.7558 -0.2515  0.7028
   11MOL    H71 1491   2.185   1.883   3.699 -2.3771 -2.4369 -0.1343
   11MOL    C72 1492   2.322   1.980   3.269  0.4623 -0.1850  0.6088
   11MOL    C73 1493   2.205   1.940   3.172 -0.3098 -0.1974 -0.6312
   11MOL    O74 1494   2.384   2.092   3.213 -0.0173  0.4274 -0.1449
   11MOL    H75 1495   2.391   1.897   3.289  0.8632 -0.0871 -0.3613
   11MOL    H76 1496   2.253   1.911   3.079 -0.6569 -1.2794 -0.4815
   11MOL    H77 1497   2.134   2.022   3.165 -1.4501 -1.2999 -2.3729
   11MOL    H78 1498   2.155   1.854   3.218  0.3063  1.5589  3.5702
   11MOL    C79 1499   2.509   2.119   3.267 -0.4512  0.5684  0.5978
   11MOL    C80 1500   2.599   2.088   3.150  0.0869 -0.1183 -0.8434
   11MOL    O81 1501   2.527   2.251   3.295  0.0150 -0.0147  0.5314
   11MOL    H82 1502   2.529   2.053   3.351 -0.9206 -0.0219  0.2457
   11MOL    H83 1503   2.702   2.121   3.166 -0.1689 -0.2540  1.2657
   11MOL    H84 1504   2.563   2.143   3.063 -2.5353 -0.0889  0.2056
   11MOL    H85 1505   2.594   1.981   3.135 -0.6234 -0.1494 -0.3825
   11MOL    C86 1506   2.467   2.289   3.414  0.3834 -0.0680  0.5380
   11MOL    C87 1507   2.580   2.276   3.511 -0.1374  0.2992  0.3834
   11MOL    O88 1508   2.444   2.427   3.408  0.1930  0.2429 -0.2559
   11MOL    H89 1509   2.381   2.231   3.449 -1.1000  1.5224 -0.3574
   11MOL    H90 1510   2.559   2.334   3.602  0.2010 -1.0933  1.3649
   11MOL    H91 1511   2.663   2.322   3.458 -0.3402 -0.6483 -0.7567
   11MOL    H92 1512   2.594   2.170   3.532 -0.4977 -0.0276 -1.0338
   11MOL    C93 1513   2.341   2.470   3.321  0.4565 -0.6412 -0.2737
   11MOL    C94 1514   2.241   2.559   3.392  0.0174 -0.3942  0.2309
   11MOL    O95 1515   2.398   2.547   3.220  0.1217  0.3689  0.2530
   11MOL    H96 1516   2.288   2.387   3.274 -0.8471  0.8234 -1.4457
   11MOL    H97 1517   2.186   2.509   3.472 -0.4829  0.2136  0.2723
   11MOL    H98 1518   2.170   2.598   3.319 -0.5438  0.8114  1.3933
   11MOL    H99 1519   2.297   2.643   3.434  0.4076 -0.2886 -0.4822
   11MOL   C100 1520   2.408   2.481   3.094 -0.3373 -0.5852  0.1979
   11MOL   C101 1521   2.278   2.505   3.029  0.3651  0.0556 -0.6077
   11MOL   O102 1522   2.508   2.534   3.020  0.2905 -0.1708 -0.3262
   11MOL   H103 1523   2.424   2.373   3.091  2.6181 -0.1761 -0.3546
   11MOL   H104 1524   2.201   2.446   3.078  0.5798  1.6264  1.6897
   11MOL   H105 1525   2.289   2.472   2.925 -1.7528 -3.3700  0.2044
   11MOL   H106 1526   2.248   2.610   3.038 -0.1436 -0.1027 -0.4516
   11MOL   C107 1527   2.634   2.502   3.072 -0.6061  0.4512 -0.4997
   11MOL   C108 1528   2.708   2.399   2.989  0.4629 -0.1795  0.2494
   11MOL   O109 1529   2.712   2.616   3.076 -0.0850 -0.1797  0.2555
   11MOL   H110 1530   2.626   2.456   3.171  0.8968  0.8828 -0.1696
   11MOL   H111 1531   2.784   2.363   3.058  1.1813  0.1313 -0.3734
   11MOL   H112 1532   2.753   2.452   2.905  0.1458 -0.5862 -0.1826
   11MOL   H113 1533   2.645   2.314   2.962 -0.0441 -0.0337  0.9601
   11MOL   C114 1534   2.664   2.715   3.170  0.1837 -0.1186 -0.1150
   11MOL   C115 1535   2.736   2.680   3.302 -1.0584 -0.0160 -0.5160
   11MOL   O116 1536   2.695   2.847   3.124 -0.0814  0.0842 -0.2042
   11MOL   H117 1537   2.556   2.715   3.181  0.2247 -3.0871  0.5613
   11MOL   H118 1538   2.682   2.600   3.353  1.6450 -2.2899 -1.1158
   11MOL   H119 1539   2.733   2.764   3.372  1.8760  1.1125 -1.6823
   11MOL   H120 1540   2.842   2.661   3.285 -1.0051  0.1015 -0.3166
   11MOL   C121 1541   2.624   2.892   3.015 -0.8338 -0.1542  0.0265
   11MOL   C122 1542   2.522   3.001   3.067  0.4563 -0.4369  0.3339
   11MOL   O123 1543   2.701   2.956   2.923 -0.4103  0.5822  0.1881
   11MOL   H124 1544   2.562   2.816   2.967  2.3161 -1.4072 -2.1640
   11MOL   H125 1545   2.472   2.955   3.153  2.9831 -0.8807  1.6019
   11MOL   H126 1546   2.447   3.028   2.993  0.1418 -0.2549  0.7133
   11MOL   H127 1547   2.578   3.088   3.101 -2.8766  1.8734  0.1811
   11MOL   C128 1548   2.771   2.870   2.839  0.0151  0.2333  0.0823
   11MOL   C129 1549   2.690   2.861   2.706  0.3985  0.6708  0.3455
   11MOL   O130 1550   2.893   2.921   2.808 -0.3346 -0.8507  0.0230
   11MOL   H131 1551   2.784   2.776   2.892 -1.2857  0.6449  1.1452
   11MOL   H132 1552   2.738   2.787   2.642 -0.1488  0.2763  0.3898
   11MOL   H133 1553   2.712   2.949   2.645  1.6344  0.3837  0.3577
   11MOL   H134 1554   2.582   2.851   2.713  0.6801 -2.0282  1.4732
   11MOL   C135 1555   2.980   2.932   2.915  0.4530 -0.6326 -0.5162
   11MOL   C136 1556   3.118   2.919   2.852  0.7501 -0.7657 -0.1055
   11MOL   O137 1557   2.977   3.057   2.982 -0.3167 -0.2774 -0.3076
   11MOL   H138 1558   2.949   2.855   2.985 -0.1092 -0.5974 -0.7271
   11MOL   H139 1559   3.136   2.824   2.801  1.0329 -0.1884 -1.0935
   11MOL   H140 1560   3.194   2.954   2.922  1.3339  1.2246 -1.6740
   11MOL   H141 1561   3.132   2.984   2.765  1.4791  2.6580  2.4875
   11MOL   H142 1562   2.890   3.069   3.018 -0.5875 -1.5172 -0.4975
   12MOL     C1 1563   2.062   6.129   7.472  0.4747  0.3747  0.1845
   12MOL     C2 1564   2.157   6.048   7.390 -0.3149 -0.3599 -0.0931
   12MOL     O3 1565   1.959   6.052   7.539  0.0485 -0.3265  0.4740
   12MOL     H4 1566   2.008   6.182   7.393 -0.8061 -1.5497 -0.2859
   12MOL     H5 1567   2.101   5.978   7.329 -3.4456  1.4732  0.5786
   12MOL     H6 1568   2.235   6.002   7.451  0.6477  2.2199  0.7107
   12MOL     H7 1569   2.202   6.125   7.327  1.3900  0.6324  2.2583
   12MOL     H8 1570   2.110   6.200   7.538  1.1766  1.7143 -1.7076
   12MOL     C9 1571   1.856   6.128   7.588 -0.0263 -0.5688 -0.3767
   12MOL    C10 1572   1.743   6.132   7.480  0.4750  0.3989  0.1119
   12MOL    O11 1573   1.801   6.062   7.699  0.1067  0.0609 -0.3680
   12MOL    H12 1574   1.887   6.229   7.617 -1.5862 -0.3419  0.5317
   12MOL    H13 1575   1.761   6.198   7.395  1.5634  1.2667  0.9997
   12MOL    H14 1576   1.653   6.171   7.528 -0.3101 -1.6086  0.3285
   12MOL    H15 1577   1.732   6.031   7.441 -0.5987  0.3627  0.4707
   12MOL    C16 1578   1.878   6.071   7.814 -0.5002  0.0242 -0.2539
   12MOL    C17 1579   1.825   6.167   7.912  0.5951 -0.3459  0.1666
   12MOL    O18 1580   1.899   5.945   7.874  0.4816 -0.4222 -0.0102
   12MOL    H19 1581   1.979   6.101   7.784 -1.2768  1.5812 -1.3342
   12MOL    H20 1582   1.827   6.276   7.899  0.2126 -0.2978  0.5016
   12MOL    H21 1583   1.881   6.141   0.088 -0.7004 -0.5202  0.9297
   12MOL    H22 1584   1.721   6.144   0.018  0.6321 -2.8608 -2.2797
   12MOL    C23 1585   1.947   5.847   7.789  0.0025  0.5855  0.2390
   12MOL    C24 1586   2.087   5.804   7.828 -0.6004 -0.5825  0.1964
   12MOL    O25 1587   1.863   5.733   7.783  0.1451  0.3457 -0.4959
   12MOL    H26 1588   1.953   5.876   7.684  2.3787  2.3952  0.8279
   12MOL    H27 1589   2.080   5.734   7.911 -1.6636 -0.5994  0.0892
   12MOL    H28 1590   2.138   5.896   7.857 -1.0388 -0.6115  1.0835
   12MOL    H29 1591   2.139   5.750   7.749 -0.5442 -0.2191 -0.0134
   12MOL    C30 1592   1.730   5.764   7.733 -1.0145  0.0397 -0.3919
   12MOL    C31 1593   1.721   5.741   7.586  0.3249  0.5502 -0.0133
   12MOL    O32 1594   1.643   5.675   7.797  0.1762 -0.4290  0.1864
   12MOL    H33 1595   1.703   5.867   7.756  3.1364  0.8627  1.1733
   12MOL    H34 1596   1.782   5.819   7.541  1.1517  0.0526  0.2206
   12MOL    H35 1597   1.615   5.742   7.562  0.1251 -0.3851  0.7749
   12MOL    H36 1598   1.769   5.645   7.564  1.1952  1.4453 -2.0968
   12MOL    C37 1599   1.626   5.702   0.016  0.1186 -0.2001 -0.1020
   12MOL    C38 1600   1.495   5.790   0.034  0.0190  0.1850  0.2910
   12MOL    O39 1601   1.600   5.585   0.088  0.4130  0.3785 -0.2835
   12MOL    H40 1602   1.704   5.758   0.067 -0.7622 -1.1959  2.4310
   12MOL    H41 1603   1.487   5.886   7.896 -2.2731  0.1500  0.5339
   12MOL    H42 1604   1.483   5.823   0.137 -1.2215  0.3202  0.1118
   12MOL    H43 1605   1.405   5.736   0.005  0.1758  0.4324 -0.6808
   12MOL    C44 1606   1.720   5.516   0.124 -0.5921 -0.4416  0.3162
   12MOL    C45 1607   1.764   5.572   0.257  0.3115  0.2285 -0.1430
   12MOL    O46 1608   1.712   5.374   0.140  0.0656  0.2319 -0.0564
   12MOL    H47 1609   1.791   5.531   0.043 -3.3659 -0.7810 -2.2835
   12MOL    H48 1610   1.677   5.569   0.322  0.2016 -1.6880 -0.3527
   12MOL    H49 1611   1.798   5.674   0.236 -2.1401  0.6387 -2.3900
   12MOL    H50 1612   1.842   5.510   0.300  0.7304  0.7444 -0.1450
   12MOL    C51 1613   1.676   5.313   0.022  0.4172  0.6064 -0.3542
   12MOL    C52 1614   1.803   5.267   7.855 -0.4940 -0.6166  0.2573
   12MOL    O53 1615   1.595   5.206   0.045  0.6066  0.2093 -0.1036
   12MOL    H54 1616   1.618   5.379   7.872  0.5888  0.3056 -0.8249
   12MOL    H55 1617   1.866   5.223   0.019 -1.2744 -1.6529  0.3240
   12MOL    H56 1618   1.840   5.358   7.810  0.9718 -0.2307  2.1510
   12MOL    H57 1619   1.790   5.194   7.775  0.0420  1.7329 -1.9965
   12MOL    C58 1620   1.484   5.232   0.133  0.6445 -0.1288 -0.5859
   12MOL    C59 1621   1.362   5.273   0.053 -0.6935  0.2185  0.4469
   12MOL    O60 1622   1.445   5.117   0.199  0.2345 -0.4421  0.0972
   12MOL    H61 1623   1.506   5.317   0.199 -0.7012 -0.5123  0.3909
   12MOL    H62 1624   1.334   5.191   7.901  0.4126  0.0526  0.1734
   12MOL    H63 1625   1.383   5.354   7.897 -1.4661 -1.2712 -1.5796
   12MOL    H64 1626   1.282   5.304   0.121 -1.1405 -2.9327  1.4342
   12MOL    C65 1627   1.522   5.091   0.307 -0.3251 -0.0386  0.1325
   12MOL    C66 1628   1.434   5.123   0.435 -1.1243 -0.2320 -0.2113
   12MOL    O67 1629   1.555   4.962   0.319 -0.8632 -0.1557  0.3311
   12MOL    H68 1630   1.617   5.145   0.308 -0.3112 -0.0086 -1.7946
   12MOL    H69 1631   1.426   5.231   0.448 -0.9266 -0.1302 -0.9197
   12MOL    H70 1632   1.472   5.065   0.519  1.1266 -3.0092 -3.0428
   12MOL    H71 1633   1.333   5.081   0.426 -0.5091 -1.6619 -0.6134
   12MOL    C72 1634   1.648   4.915   0.228 -0.0978  0.7579  0.1770
   12MOL    C73 1635   1.787   4.930   0.285 -0.9739  0.2059 -0.0682
   12MOL    O74 1636   1.627   4.782   0.200  0.3430  0.2928  0.2879
   12MOL    H75 1637   1.649   4.981   0.141 -0.6631  1.4354  0.6681
   12MOL    H76 1638   1.815   5.031   0.315  0.8144 -0.1530 -0.4488
   12MOL    H77 1639   1.871   4.903   0.221  0.9249 -0.6296  2.6832
   12MOL    H78 1640   1.799   4.868   0.374 -2.2209  0.6512  0.4088
   12MOL    C79 1641   1.517   4.753   0.110 -0.1041  0.2489  0.3931
   12MOL    C80 1642   1.583   4.688   7.903  0.5117  0.5029  0.1472
   12MOL    O81 1643   1.419   4.658   0.148  0.3070 -0.0833 -0.6712
   12MOL    H82 1644   1.485   4.853   0.080 -3.7261 -0.7992  0.6317
   12MOL    H83 1645   1.500   4.669   7.835  0.4461 -0.7545  0.5621
   12MOL    H84 1646   1.601   4.581   0.001 -1.9271  0.1451  0.8486
   12MOL    H85 1647   1.673   4.738   7.869  1.7700 -1.2990  0.7348
   12MOL    C86 1648   1.332   4.708   0.247  0.7962 -0.7870 -0.2515
   12MOL    C87 1649   1.192   4.687   0.197  0.1465  0.3966 -0.0795
   12MOL    O88 1650   1.332   4.638   0.366 -0.2143  0.2213 -0.1012
   12MOL    H89 1651   1.335   4.813   0.274  0.3206 -0.9840  0.5894
   12MOL    H90 1652   1.181   4.724   0.095  1.6745 -1.7566 -1.0635
   12MOL    H91 1653   1.126   4.730   0.272  0.4295 -0.0737  0.4378
   12MOL    H92 1654   1.176   4.580   0.185 -1.8937  0.5047  1.4221
   12MOL    C93 1655   1.434   4.682   0.454  0.4427 -0.1196  0.2618
   12MOL    C94 1656   1.364   4.756   0.571  0.4939 -0.9990 -0.0761
   12MOL    O95 1657   1.504   4.573   0.510  0.4020 -0.2490  0.7510
   12MOL    H96 1658   1.508   4.749   0.409  0.7144 -0.5709  0.0297
   12MOL    H97 1659   1.298   4.838   0.541 -0.0098 -0.3147  2.7330
   12MOL    H98 1660   1.437   4.792   0.643  0.8057 -0.5432 -0.6099
   12MOL    H99 1661   1.309   4.678   0.623 -0.5070 -1.7420 -2.2007
   12MOL   C100 1662   1.596   4.512   0.424  0.6028  0.5298 -0.6275
   12MOL   C101 1663   1.733   4.512   0.487  0.1279  0.5804  0.4532
   12MOL   O102 1664   1.558   4.373   0.412 -0.1314  0.8569  0.6396
   12MOL   H103 1665   1.597   4.556   0.324 -0.8320  2.3554  0.1499
   12MOL   H104 1666   1.751   4.612   0.527 -1.7464  0.5283  1.4996
   12MOL   H105 1667   1.801   4.475   0.411 -0.4728  0.8214 -0.2016
   12MOL   H106 1668   1.746   4.431   0.558  0.9108  0.1118 -0.2189
   12MOL   C107 1669   1.466   4.345   0.312  0.0221 -0.1351 -0.3472
   12MOL   C108 1670   1.542   4.279   0.201  0.5358  0.5006  0.1666
   12MOL   O109 1671   1.367   4.249   0.360  0.2324  0.0805  0.1541
   12MOL   H110 1672   1.405   4.422   0.263  0.9145 -0.9811 -2.8671
   12MOL   H111 1673   1.599   4.199   0.247 -0.0236  0.0730  0.1188
   12MOL   H112 1674   1.602   4.354   0.150 -2.6557  2.8686 -0.2726
   12MOL   H113 1675   1.478   4.224   0.132 -0.6106  2.6860 -0.5807
   12MOL   C114 1676   1.273   4.318   0.440  0.7462  0.0332 -0.2856
   12MOL   C115 1677   1.132   4.313   0.365  0.2823  0.2345  0.1371
   12MOL   O116 1678   1.252   4.264   0.572 -0.2694 -0.2001  0.2682
   12MOL   H117 1679   1.296   4.424   0.448  0.5751 -0.0369  1.3162
   12MOL   H118 1680   1.060   4.363   0.431  1.5726 -0.3178  1.9977
   12MOL   H119 1681   1.102   4.209   0.354  0.3916  0.2067  0.1034
   12MOL   H120 1682   1.138   4.353   0.264 -2.3886 -1.4033 -0.7098
   12MOL   C121 1683   1.359   4.288   0.668 -0.1647  0.3871 -0.0894
   12MOL   C122 1684   1.308   4.370   0.779  0.4976  0.1937 -0.4777
   12MOL   O123 1685   1.400   4.161   0.726 -0.0431 -0.2590 -0.0458
   12MOL   H124 1686   1.449   4.333   0.625 -0.1185 -0.2167 -0.6451
   12MOL   H125 1687   1.388   4.405   0.844 -0.2731  0.8526  0.1143
   12MOL   H126 1688   1.255   4.298   0.842  0.0360  0.4685 -0.5513
   12MOL   H127 1689   1.243   4.450   0.744  0.1354 -0.5051 -1.4430
   12MOL   C128 1690   1.457   4.079   0.628  0.7793  0.1262 -0.1323
   12MOL   C129 1691   1.602   4.084   0.644  1.0275 -0.3781 -0.0451
   12MOL   O130 1692   1.424   3.941   0.638 -0.3594 -0.2193 -0.4568
   12MOL   H131 1693   1.439   4.102   0.523  0.2468  2.5223  0.4536
   12MOL   H132 1694   1.634   4.188   0.635 -2.0879  0.5853 -0.4480
   12MOL   H133 1695   1.657   4.031   0.566  3.5799  0.3260  1.2086
   12MOL   H134 1696   1.627   4.051   0.745 -0.4357 -1.0679  0.1104
   12MOL   C135 1697   1.288   3.923   0.625  0.1459 -0.2387 -0.1598
   12MOL   C136 1698   1.260   3.771   0.609 -0.0069  0.7172  0.4668
   12MOL   O137 1699   1.217   3.967   0.734  0.0747  0.6370  0.3747
   12MOL   H138 1700   1.248   3.975   0.538  2.5190  0.7383 -0.7142
   12MOL   H139 1701   1.304   3.738   0.703  1.0604  1.3836  0.2136
   12MOL   H140 1702   1.307   3.730   0.520 -1.0036 -0.4923  0.4812
   12MOL   H141 1703   1.154   3.746   0.616  0.0571  0.1239 -0.5823
   12MOL   H142 1704   1.235   4.059   0.739  0.1094  0.6863 -0.5736
   13MOL     C1 1705   5.105   1.778   0.182  0.0061  0.0724 -0.2817
   13MOL     C2 1706   4.981   1.702   0.167  0.6408 -0.0289  0.2493
   13MOL     O3 1707   5.125   1.841   0.057  0.0578  0.3467  0.0532
   13MOL     H4 1708   5.198   1.727   0.207  1.8308  2.9204 -0.9798
   13MOL     H5 1709   4.965   1.669   0.064  0.7699  1.4437 -0.2592
   13MOL     H6 1710   4.894   1.758   0.201 -1.9410 -2.5720 -1.9439
   13MOL     H7 1711   4.990   1.610   0.224  0.1673  1.0726  2.1309
   13MOL     H8 1712   5.102   1.860   0.254  2.4544  0.8992 -1.0762
   13MOL     C9 1713   5.199   1.960   0.068 -0.1249 -0.4135  0.2001
   13MOL    C10 1714   5.119   2.077   0.127  0.1230 -0.2077  0.0126
   13MOL    O11 1715   5.321   1.937   0.127  0.3170 -0.2848 -0.1560
   13MOL    H12 1716   5.213   1.983   7.876 -1.8730 -0.6087 -0.0888
   13MOL    H13 1717   5.101   2.070   0.234 -0.9421  1.3507 -0.0301
   13MOL    H14 1718   5.017   2.066   0.089 -1.0357 -0.6439  3.0778
   13MOL    H15 1719   5.162   2.169   0.087  1.0663 -0.3591  0.6758
   13MOL    C16 1720   5.432   1.997   0.065 -0.1991  0.1586  0.0824
   13MOL    C17 1721   5.476   2.101   0.167  0.3767 -0.1895 -0.3382
   13MOL    O18 1722   5.540   1.912   0.063 -0.4069  0.4510  0.2324
   13MOL    H19 1723   5.408   2.040   7.882 -0.6988 -3.5810 -1.5611
   13MOL    H20 1724   5.399   2.179   0.168 -0.3132 -0.8220 -2.0807
   13MOL    H21 1725   5.572   2.149   0.149  1.5315 -1.1674  2.9013
   13MOL    H22 1726   5.488   2.053   0.264 -3.8723 -0.5862  0.0855
   13MOL    C23 1727   5.546   1.831   7.872  0.1514 -0.2923 -0.4630
   13MOL    C24 1728   5.676   1.862   7.802 -0.8665 -0.1017  0.2518
   13MOL    O25 1729   5.565   1.694   0.002  0.1161 -0.2227 -0.2426
   13MOL    H26 1730   5.457   1.839   7.809  0.0426  0.5002 -0.2064
   13MOL    H27 1731   5.704   1.785   7.731 -1.1738  1.3731 -1.5042
   13MOL    H28 1732   5.758   1.864   7.873 -1.3754  4.8637  0.9198
   13MOL    H29 1733   5.681   1.953   7.742  1.6755  0.8356  1.8067
   13MOL    C30 1734   5.449   1.629   0.044 -0.0144 -0.6552  0.2142
   13MOL    C31 1735   5.399   1.518   7.868 -0.2493 -0.1156  0.0381
   13MOL    O32 1736   5.469   1.562   0.163 -0.6405 -0.1059  0.1587
   13MOL    H33 1737   5.369   1.701   0.065  0.0694 -0.5076  0.0266
   13MOL    H34 1738   5.474   1.439   7.865 -0.3658 -0.2719  0.9734
   13MOL    H35 1739   5.366   1.552   7.770  1.5195  0.3987 -0.4036
   13MOL    H36 1740   5.319   1.464   0.003 -0.4422 -2.6601 -2.9363
   13MOL    C37 1741   5.487   1.641   0.282  0.7385 -0.4509 -1.1216
   13MOL    C38 1742   5.394   1.588   0.385  0.2533  0.0673 -0.0147
   13MOL    O39 1743   5.609   1.617   0.335  0.4008 -0.6298 -0.1052
   13MOL    H40 1744   5.477   1.749   0.267 -0.0447 -0.7171 -2.5689
   13MOL    H41 1745   5.409   1.624   0.487  0.1998 -0.6743  0.2582
   13MOL    H42 1746   5.400   1.481   0.401 -0.9496 -0.6348 -3.8417
   13MOL    H43 1747   5.293   1.607   0.348  0.5838 -1.8856 -2.0139
   13MOL    C44 1748   5.708   1.708   0.299  0.2109 -0.5483 -1.0178
   13MOL    C45 1749   5.734   1.798   0.424 -0.1544 -0.3687 -0.1657
   13MOL    O46 1750   5.834   1.642   0.278  0.1551 -1.0257  0.5030
   13MOL    H47 1751   5.688   1.774   0.215  2.1423  0.1020 -0.9936
   13MOL    H48 1752   5.799   1.883   0.400  1.4151 -1.4472  0.1597
   13MOL    H49 1753   5.778   1.735   0.501  0.7981  0.3051 -0.1348
   13MOL    H50 1754   5.647   1.854   0.457  1.2781  2.1913 -0.5670
   13MOL    C51 1755   5.864   1.612   0.145 -0.3475 -0.4460  0.9829
   13MOL    C52 1756   5.984   1.702   0.107  0.6190 -0.1726 -0.6722
   13MOL    O53 1757   5.900   1.478   0.140 -0.3515  1.0426  0.6388
   13MOL    H54 1758   5.795   1.641   0.066  1.0562  0.3559  0.0225
   13MOL    H55 1759   6.017   1.669   0.009 -0.8220  1.1928 -1.6560
   13MOL    H56 1760   6.064   1.681   0.177  0.8507 -0.7243 -1.1003
   13MOL    H57 1761   5.969   1.810   0.109 -0.0399 -0.2018 -2.8056
   13MOL    C58 1762   5.792   1.396   0.128 -0.6945 -0.0603 -1.1349
   13MOL    C59 1763   5.768   1.357   7.891 -0.5235 -0.2353  0.5005
   13MOL    O60 1764   5.805   1.281   0.202 -0.1177 -0.4684  0.7777
   13MOL    H61 1765   5.698   1.448   0.150 -0.0741  0.5658  0.0785
   13MOL    H62 1766   5.757   1.451   7.835 -1.2192  0.5735  1.9666
   13MOL    H63 1767   5.673   1.306   7.900 -0.1083 -1.0338  0.3566
   13MOL    H64 1768   5.847   1.296   7.847  0.6991  0.4731  1.6704
   13MOL    C65 1769   5.759   1.299   0.331  0.2197 -0.2433  0.6644
   13MOL    C66 1770   5.609   1.254   0.323 -0.3476  0.3775  0.0486
   13MOL    O67 1771   5.826   1.219   0.413  0.4136  0.1972 -1.3506
   13MOL    H68 1772   5.762   1.405   0.354  3.0756 -0.2268  0.3727
   13MOL    H69 1773   5.607   1.148   0.300 -1.0503  0.5607 -0.7581
   13MOL    H70 1774   5.546   1.321   0.265  0.2385  0.7150 -0.2074
   13MOL    H71 1775   5.553   1.268   0.415 -0.7792 -0.2371 -0.1158
   13MOL    C72 1776   5.955   1.273   0.441  0.4263 -0.0916  0.7312
   13MOL    C73 1777   5.947   1.331   0.581 -0.0142  0.8343 -0.2212
   13MOL    O74 1778   6.047   1.174   0.438 -0.6219 -0.6347 -1.0257
   13MOL    H75 1779   5.977   1.360   0.379  0.3209  0.6283  1.6878
   13MOL    H76 1780   5.922   1.256   0.656  2.2403  0.1095 -0.1296
   13MOL    H77 1781   5.873   1.411   0.583 -1.4239 -0.4491 -0.0106
   13MOL    H78 1782   6.046   1.366   0.608  0.1367  0.1855  0.0978
   13MOL    C79 1783   6.072   1.128   0.309  0.3698  0.0610 -0.1833
   13MOL    C80 1784   6.211   1.182   0.264 -0.5227  0.2484  0.3448
   13MOL    O81 1785   6.090   0.990   0.312  0.2901 -0.0771 -0.0081
   13MOL    H82 1786   5.999   1.158   0.233 -1.2246 -2.3231  0.3688
   13MOL    H83 1787   6.292   1.120   0.302 -2.7401 -1.7558  1.8862
   13MOL    H84 1788   6.217   1.288   0.290 -0.6760  0.7834 -1.6952
   13MOL    H85 1789   6.223   1.175   0.156  0.0487  1.0904  0.3405
   13MOL    C86 1790   5.966   0.926   0.272 -0.0211  0.0328 -0.0770
   13MOL    C87 1791   5.978   0.861   0.129 -0.2693 -0.2685 -0.1400
   13MOL    O88 1792   5.930   0.827   0.358 -0.1289  0.2046 -0.4261
   13MOL    H89 1793   5.876   0.987   0.283 -0.1163 -0.3607  1.4455
   13MOL    H90 1794   6.046   0.776   0.139  0.0216  0.0306  0.4330
   13MOL    H91 1795   6.010   0.926   0.047  1.3896  0.5417  1.1276
   13MOL    H92 1796   5.884   0.825   0.088  0.7580 -2.1679 -0.8714
   13MOL    C93 1797   5.869   0.869   0.476  0.0312 -0.2472 -0.0194
   13MOL    C94 1798   5.713   0.869   0.451  0.6806 -0.0207 -0.0219
   13MOL    O95 1799   5.910   0.778   0.577  0.5464 -0.0831  0.0551
   13MOL    H96 1800   5.904   0.969   0.500 -1.9904  0.2925  0.7621
   13MOL    H97 1801   5.692   0.951   0.382  0.6393 -0.4773 -0.5568
   13MOL    H98 1802   5.667   0.884   0.549  0.5950 -2.7290  0.4037
   13MOL    H99 1803   5.676   0.777   0.404 -0.7653  0.3395  0.3812
   13MOL   C100 1804   6.044   0.795   0.613 -0.6041  0.9309  0.2672
   13MOL   C101 1805   6.044   0.867   0.754 -0.2472 -0.3710  0.6284
   13MOL   O102 1806   6.115   0.680   0.630 -0.3499 -0.7521  0.4550
   13MOL   H103 1807   6.091   0.864   0.544  2.1510  0.8171  1.9633
   13MOL   H104 1808   6.149   0.883   0.779 -0.6048 -1.9437  3.3415
   13MOL   H105 1809   6.002   0.812   0.838 -0.6329  2.1220  2.1088
   13MOL   H106 1810   5.989   0.961   0.753  1.0999  0.4380 -1.3669
   13MOL   C107 1811   6.150   0.613   0.508 -0.2625 -0.3050  0.2703
   13MOL   C108 1812   6.295   0.635   0.473 -0.3061 -0.1730 -0.0650
   13MOL   O109 1813   6.134   0.478   0.522 -0.4093 -0.2517 -0.0030
   13MOL   H110 1814   6.089   0.659   0.430  0.8844 -0.5899 -0.8108
   13MOL   H111 1815   6.315   0.742   0.465 -0.5636 -0.2286 -1.4171
   13MOL   H112 1816   6.316   0.589   0.377 -1.3418  2.8675 -1.8061
   13MOL   H113 1817   6.360   0.598   0.553 -2.1762  0.8340  1.9896
   13MOL   C114 1818   5.998   0.442   0.520 -0.7874  0.0247  0.3501
   13MOL   C115 1819   5.979   0.360   0.392  0.6707 -0.1934 -0.5358
   13MOL   O116 1820   5.956   0.366   0.626 -0.3218  0.0689  0.3521
   13MOL   H117 1821   5.931   0.528   0.516 -0.3893  0.2730 -1.7058
   13MOL   H118 1822   5.873   0.339   0.380  0.0560  2.0061  0.6856
   13MOL   H119 1823   6.042   0.272   0.386  0.6388 -0.1179 -2.0559
   13MOL   H120 1824   6.019   0.417   0.308 -1.4882  0.7018 -0.9838
   13MOL   C121 1825   5.956   0.429   0.757 -0.3656  0.7183  0.5989
   13MOL   C122 1826   5.828   0.513   0.760  0.1938  0.4133  0.6168
   13MOL   O123 1827   5.945   0.332   0.851  0.1436 -0.2290 -0.4570
   13MOL   H124 1828   6.049   0.484   0.772  2.0165 -3.2178  1.0112
   13MOL   H125 1829   5.743   0.446   0.749  1.5668 -1.0157 -1.9942
   13MOL   H126 1830   5.827   0.581   0.675  1.3236 -0.1734  0.1185
   13MOL   H127 1831   5.810   0.563   0.855 -0.5835  1.0175  0.1552
   13MOL   C128 1832   6.062   0.267   0.885  0.0535 -0.1136 -0.8009
   13MOL   C129 1833   6.021   0.164   0.987 -0.2867  0.1210  0.3224
   13MOL   O130 1834   6.105   0.187   0.774  0.0844 -0.5371  0.1572
   13MOL   H131 1835   6.137   0.333   0.927 -0.4922  0.2313 -0.3696
   13MOL   H132 1836   6.106   0.119   1.039 -1.9316 -2.8337  0.5710
   13MOL   H133 1837   5.970   0.082   0.938 -1.5881  1.1202 -0.0365
   13MOL   H134 1838   5.943   0.202   1.053 -1.0661 -0.1656 -0.4384
   13MOL   C135 1839   6.237   0.206   0.734 -0.2450 -0.3655  0.1843
   13MOL   C136 1840   6.264   0.130   0.611  0.4486 -0.8531  0.2052
   13MOL   O137 1841   6.273   0.341   0.711  0.2307 -0.5621  0.3365
   13MOL   H138 1842   6.310   0.171   0.806  1.2893  0.0139 -1.1323
   13MOL   H139 1843   6.237   0.028   0.638 -2.2088 -0.6346 -1.3444
   13MOL   H140 1844   6.370   0.126   0.587  0.7192  1.9115  0.7622
   13MOL   H141 1845   6.198   0.175   0.536  3.3661  1.2635 -1.1602
   13MOL   H142 1846   6.228   0.380   0.637  0.4434 -0.1218  0.4360
   14MOL     C1 1847   0.414   6.630   2.635 -0.4042 -0.2027  0.3372
   14MOL     C2 1848   0.348   6.565   2.747  0.3557  0.1068  0.0295
   14MOL     O3 1849   0.544   6.673   2.683 -0.2297 -0.6140 -0.3629
   14MOL     H4 1850   0.345   6.710   2.609 -0.3698 -0.5398 -0.8071
   14MOL     H5 1851   0.251   6.531   2.709 -1.7169  1.0766  4.1314
   14MOL     H6 1852   0.348   6.627   2.837  1.1336 -1.0010  0.8024
   14MOL     H7 1853   0.401   6.477   2.784  0.5754  0.4503  0.5361
   14MOL     H8 1854   0.424   6.569   2.546 -0.8819  1.8213 -1.1374
   14MOL     C9 1855   0.640   6.719   2.594  0.7475 -0.2142  0.1453
   14MOL    C10 1856   0.594   6.852   2.523  0.4435 -0.1869  0.5943
   14MOL    O11 1857   0.757   6.749   2.662 -0.5686 -0.4848 -0.1616
   14MOL    H12 1858   0.655   6.632   2.529  3.0477 -0.5099  1.0111
   14MOL    H13 1859   0.554   6.920   2.598 -0.0116  0.5068 -0.2699
   14MOL    H14 1860   0.511   6.843   2.454  1.9798 -2.2567 -1.0787
   14MOL    H15 1861   0.674   6.907   2.474  1.3476 -0.4547  1.7374
   14MOL    C16 1862   0.807   6.637   2.730 -0.2226 -0.2094  0.5291
   14MOL    C17 1863   0.944   6.614   2.667  0.8066 -0.3638 -0.1726
   14MOL    O18 1864   0.835   6.666   2.864  0.1862  0.1405 -0.5080
   14MOL    H19 1865   0.750   6.545   2.713  0.6356 -0.4143 -1.3995
   14MOL    H20 1866   1.000   6.707   2.661 -2.6326  1.8880  0.6639
   14MOL    H21 1867   0.912   6.577   2.570 -2.3084  0.8595  0.2910
   14MOL    H22 1868   0.989   6.529   2.718  1.3045  0.1256  0.2028
   14MOL    C23 1869   0.722   6.666   2.946  0.6120  0.3721  0.0006
   14MOL    C24 1870   0.688   6.520   2.988  0.1476 -0.6086  0.1530
   14MOL    O25 1871   0.754   6.741   3.059  0.1052 -0.0878 -0.2419
   14MOL    H26 1872   0.626   6.698   2.904 -0.1427  0.8559  2.0262
   14MOL    H27 1873   0.596   6.524   3.045  2.2281  0.4468  3.5810
   14MOL    H28 1874   0.775   6.479   3.039  0.1742 -0.7787 -0.0296
   14MOL    H29 1875   0.672   6.459   2.899 -0.0892 -1.6922  0.9384
   14MOL    C30 1876   0.689   6.863   3.072  0.0712 -0.3820 -0.0779
   14MOL    C31 1877   0.621   6.847   3.207 -0.8601  0.0597 -0.5473
   14MOL    O32 1878   0.781   6.978   3.082  1.1542  0.6122  0.0531
   14MOL    H33 1879   0.629   6.885   2.984  0.5523 -1.2688 -0.6237
   14MOL    H34 1880   0.582   6.945   3.234  2.4819  1.4017 -0.3699
   14MOL    H35 1881   0.690   6.810   3.283 -2.7528 -0.7464  0.8025
   14MOL    H36 1882   0.546   6.773   3.179 -1.0670  0.5575 -1.3154
   14MOL    C37 1883   0.846   7.002   2.962  0.2432  0.3323  0.5465
   14MOL    C38 1884   0.792   7.137   2.911  0.2480 -0.2512  0.3881
   14MOL    O39 1885   0.985   7.019   2.985  0.4310 -0.2580  0.3233
   14MOL    H40 1886   0.838   6.929   2.882  0.1940  1.2331 -0.2862
   14MOL    H41 1887   0.842   7.158   2.817  0.7453  0.8005  0.8782
   14MOL    H42 1888   0.808   7.222   2.977  0.7110  1.3111 -1.6794
   14MOL    H43 1889   0.685   7.125   2.891  0.2315  0.4038  0.0741
   14MOL    C44 1890   1.061   6.903   3.007  0.3416 -0.7105  0.7446
   14MOL    C45 1891   1.147   6.883   2.885 -0.2967  0.5064  0.1590
   14MOL    O46 1892   1.140   6.923   3.120  0.1273  0.4823 -0.0956
   14MOL    H47 1893   1.004   6.811   3.017 -0.7942 -0.2850 -1.4282
   14MOL    H48 1894   1.213   6.969   2.871  0.8185 -0.6936 -2.2361
   14MOL    H49 1895   1.094   6.875   2.790 -0.4813 -1.1729  0.3847
   14MOL    H50 1896   1.210   6.798   2.911 -2.0820 -1.2985 -1.2080
   14MOL    C51 1897   1.073   6.965   3.236  0.0594 -0.1539  0.1003
   14MOL    C52 1898   1.090   6.852   3.332 -0.1220  0.0488  0.1467
   14MOL    O53 1899   1.151   7.071   3.286  0.0005  0.5318 -0.7556
   14MOL    H54 1900   0.966   6.981   3.222 -0.1527 -1.2558  0.3896
   14MOL    H55 1901   1.197   6.847   3.350 -0.1520  1.7413  0.8723
   14MOL    H56 1902   1.047   6.765   3.281  1.7202 -1.4087  1.0060
   14MOL    H57 1903   1.047   6.876   3.429 -2.4458  1.0792 -1.0883
   14MOL    C58 1904   1.101   7.186   3.228 -0.0054  0.0159  0.4435
   14MOL    C59 1905   0.982   7.244   3.300 -0.3727 -0.4225  0.4530
   14MOL    O60 1906   1.200   7.286   3.238  0.3694 -0.0898 -0.2298
   14MOL    H61 1907   1.078   7.172   3.122 -0.9773  0.2603  0.6164
   14MOL    H62 1908   0.888   7.190   3.289 -0.5093  0.1585 -1.4164
   14MOL    H63 1909   0.970   7.344   3.258  0.5763  0.5276  2.3738
   14MOL    H64 1910   1.004   7.244   3.407 -3.1557  0.4708  1.0623
   14MOL    C65 1911   1.293   7.275   3.135  0.0164  0.0896  0.4137
   14MOL    C66 1912   1.268   7.403   3.046 -0.0373  0.0582 -0.4300
   14MOL    O67 1913   1.422   7.277   3.183  0.3497  0.3497 -0.3029
   14MOL    H68 1914   1.277   7.190   3.068 -0.4395  1.4271 -1.2012
   14MOL    H69 1915   1.333   7.485   3.076  2.0288 -1.0975 -1.5740
   14MOL    H70 1916   1.168   7.446   3.045  0.7040  1.8022 -1.1150
   14MOL    H71 1917   1.291   7.373   2.943  2.6869 -0.4309  0.2680
   14MOL    C72 1918   1.466   7.151   3.224 -0.7330  0.6369  0.5478
   14MOL    C73 1919   1.567   7.103   3.120  0.1917  0.2412  0.0432
   14MOL    O74 1920   1.536   7.166   3.348 -0.2389  0.5848  0.3760
   14MOL    H75 1921   1.388   7.075   3.233  0.7070 -1.3751 -2.7049
   14MOL    H76 1922   1.613   7.010   3.154 -0.4008 -0.6732 -1.6324
   14MOL    H77 1923   1.639   7.184   3.106 -1.2457  1.7923  1.3494
   14MOL    H78 1924   1.514   7.096   3.025 -3.3063  0.5758  1.8794
   14MOL    C79 1925   1.449   7.157   3.451 -0.3449 -0.3495  0.1958
   14MOL    C80 1926   1.459   7.017   3.501 -0.0825  0.0627 -0.6971
   14MOL    O81 1927   1.471   7.241   3.562 -0.4862 -0.0927 -0.1263
   14MOL    H82 1928   1.350   7.188   3.418 -0.0717 -0.7156 -0.9835
   14MOL    H83 1929   1.386   6.999   3.580  0.8064 -0.4890  0.0117
   14MOL    H84 1930   1.558   6.987   3.535  0.3149  1.7309 -0.3829
   14MOL    H85 1931   1.448   6.945   3.420 -0.7286  0.4103 -0.9223
   14MOL    C86 1932   1.465   7.372   3.522 -0.1335  0.3828 -0.2936
   14MOL    C87 1933   1.351   7.437   3.590 -0.1581  0.1473  0.3705
   14MOL    O88 1934   1.586   7.439   3.559  0.2447 -0.2168  0.5380
   14MOL    H89 1935   1.450   7.386   3.415  0.0509  0.0252 -0.3674
   14MOL    H90 1936   1.260   7.385   3.558  0.4437  0.3511 -1.6963
   14MOL    H91 1937   1.347   7.539   3.553 -0.3788  0.1226  0.3258
   14MOL    H92 1938   1.372   7.440   3.697 -1.5974 -0.4272  0.6879
   14MOL    C93 1939   1.704   7.397   3.501 -0.4303  0.0672  0.2565
   14MOL    C94 1940   1.713   7.462   3.362  0.1652  0.7972  0.0427
   14MOL    O95 1941   1.814   7.439   3.580 -0.0112 -0.7435 -0.2011
   14MOL    H96 1942   1.707   7.289   3.491 -0.7625  0.0280  0.5473
   14MOL    H97 1943   1.798   7.410   3.317 -0.3887  1.3189 -1.6237
   14MOL    H98 1944   1.735   7.568   3.375  1.2572  0.6582 -0.6040
   14MOL    H99 1945   1.620   7.447   3.308 -1.1739  0.8651  2.2415
   14MOL   C100 1946   1.812   7.402   3.720  0.1231  0.2324  0.3482
   14MOL   C101 1947   1.880   7.261   3.728  0.6259 -0.0736 -0.0645
   14MOL   O102 1948   1.890   7.489   3.801 -0.2035 -0.0936 -0.1179
   14MOL   H103 1949   1.713   7.409   3.763  1.3864  0.5257  3.2954
   14MOL   H104 1950   1.973   7.245   3.673  0.7736 -1.7076  0.6448
   14MOL   H105 1951   1.807   7.180   3.724 -0.8867  1.1670  1.6337
   14MOL   H106 1952   1.907   7.249   3.833  0.6207  1.4910  0.1332
   14MOL   C107 1953   1.854   7.615   3.790  0.0329 -0.0781  0.3611
   14MOL   C108 1954   1.725   7.635   3.872  0.4620  0.5682  0.0642
   14MOL   O109 1955   1.954   7.690   3.845  0.0855 -0.5502  0.5255
   14MOL   H110 1956   1.839   7.642   3.685 -0.7536 -0.5207  0.3564
   14MOL   H111 1957   1.638   7.584   3.832  0.1930  0.6766  0.5194
   14MOL   H112 1958   1.700   7.740   3.866  1.3686  0.7756 -0.2828
   14MOL   H113 1959   1.744   7.612   3.977  2.4719 -0.7952 -0.5512
   14MOL   C114 1960   2.066   7.699   3.765 -0.5331 -0.2673 -0.0308
   14MOL   C115 1961   2.049   7.823   3.677 -0.3171 -0.7072 -0.0267
   14MOL   O116 1962   2.184   7.711   3.840 -0.1313  0.1754 -0.0680
   14MOL   H117 1963   2.084   7.610   3.704  0.5189  0.4319 -0.7711
   14MOL   H118 1964   2.130   7.825   3.604 -1.3004 -2.2071 -1.2072
   14MOL   H119 1965   2.051   7.910   3.742 -0.5499 -0.2467 -0.6276
   14MOL   H120 1966   1.954   7.822   3.623 -0.1796 -0.1358 -0.2832
   14MOL   C121 1967   2.228   7.592   3.898 -0.1184  0.3679  0.5324
   14MOL   C122 1968   2.364   7.572   3.831 -0.7308 -0.1003  0.4838
   14MOL   O123 1969   2.246   7.608   4.032  0.0247 -0.4151  0.4731
   14MOL   H124 1970   2.166   7.505   3.879 -0.7761  1.4769 -2.7134
   14MOL   H125 1971   2.413   7.480   3.860  0.5838  0.0265 -1.2136
   14MOL   H126 1972   2.429   7.657   3.851  1.6925 -1.6384 -0.6030
   14MOL   H127 1973   2.355   7.575   3.722 -0.7962 -0.9721  0.4610
   14MOL   C128 1974   2.138   7.598   4.117 -0.3916  0.1692 -0.8995
   14MOL   C129 1975   2.167   7.481   4.215 -0.6075 -0.3524  0.8621
   14MOL   O130 1976   2.124   7.709   4.191 -0.5390 -0.6732 -0.2548
   14MOL   H131 1977   2.041   7.584   4.069 -0.5462 -0.9865 -0.2454
   14MOL   H132 1978   2.074   7.459   4.268 -0.4768 -1.7705  0.5333
   14MOL   H133 1979   2.254   7.506   4.275  0.7261 -2.0877 -0.2947
   14MOL   H134 1980   2.194   7.390   4.161  0.0941 -0.0308  0.6643
   14MOL   C135 1981   2.055   7.809   4.119  0.0888 -0.7062  0.1095
   14MOL   C136 1982   2.012   0.002   4.223 -0.3443  0.8296  0.8115
   14MOL   O137 1983   2.145   7.880   4.033  0.2949 -0.0207  0.8106
   14MOL   H138 1984   1.966   7.778   4.064 -0.2590  0.2539  0.1223
   14MOL   H139 1985   2.105   0.039   4.266 -0.3968  2.3721 -0.3588
   14MOL   H140 1986   1.947   7.875   4.300 -1.3583  0.2017 -0.3495
   14MOL   H141 1987   1.963   0.083   4.168 -1.9415 -1.8626 -1.8694
   14MOL   H142 1988   2.146   7.835   3.950 -0.7534 -0.0280  0.7963
   15MOL     C1 1989   0.423   2.060   4.986 -0.0836 -0.0521  0.1306
   15MOL     C2 1990   0.338   1.928   4.981  0.0540 -0.3957  0.3746
   15MOL     O3 1991   0.331   2.161   5.006 -0.2548  0.2735 -0.5730
   15MOL     H4 1992   0.475   2.077   4.892  2.8777  2.3665  2.0715
   15MOL     H5 1993   0.411   1.851   4.957 -0.2259 -0.3578 -0.6057
   15MOL     H6 1994   0.270   1.937   4.896  1.2448 -2.3346 -0.8200
   15MOL     H7 1995   0.283   1.903   5.071  1.5823 -0.1195  1.4067
   15MOL     H8 1996   0.492   2.060   5.071  0.2464  2.2098 -0.1085
   15MOL     C9 1997   0.385   2.288   5.015  0.1574  0.2996  0.8393
   15MOL    C10 1998   0.407   2.346   4.875  0.2052  1.0204  0.0865
   15MOL    O11 1999   0.306   2.382   5.070  0.0296  0.3749 -0.8981
   15MOL    H12 2000   0.485   2.286   5.058  0.8854  0.0603 -0.8291
   15MOL    H13 2001   0.472   2.294   4.804  1.2781  0.7470  1.2607
   15MOL    H14 2002   0.449   2.446   4.885  0.5626  1.2517 -3.1273
   15MOL    H15 2003   0.315   2.362   4.819 -0.4478 -0.0633  0.8299
   15MOL    C16 2004   0.297   2.367   5.210  0.2721 -0.4760 -0.2155
   15MOL    C17 2005   0.396   2.465   5.271  0.4568  0.4300  0.1958
   15MOL    O18 2006   0.171   2.414   5.256 -0.1999 -0.3387 -0.3388
   15MOL    H19 2007   0.322   2.266   5.242 -1.5861 -0.8743  0.0418
   15MOL    H20 2008   0.373   2.460   5.377 -0.7467  1.0927 -0.0270
   15MOL    H21 2009   0.367   2.565   5.240  1.3713  0.7025  0.2246
   15MOL    H22 2010   0.502   2.446   5.254  0.0054  1.0624 -3.9001
   15MOL    C23 2011   0.072   2.315   5.257 -0.5738  0.3030  0.2504
   15MOL    C24 2012   7.914   2.334   5.384  0.3186 -0.0115  0.0406
   15MOL    O25 2013   7.884   2.340   5.166  0.2553 -0.1176 -0.0116
   15MOL    H26 2014   0.114   2.215   5.246 -2.2227 -0.2939 -0.9822
   15MOL    H27 2015   7.842   2.416   5.383  0.3351  0.0187 -2.3635
   15MOL    H28 2016   0.073   2.331   5.465  2.0815  1.3193 -1.4473
   15MOL    H29 2017   7.849   2.247   5.397  1.7670 -1.2303 -0.6698
   15MOL    C30 2018   0.000   2.297   5.032 -0.5410 -0.4200 -0.3416
   15MOL    C31 2019   7.847   2.162   5.018 -0.5357  0.4993 -0.3398
   15MOL    O32 2020   7.860   2.381   4.932  0.1718 -0.2500  0.8173
   15MOL    H33 2021   0.105   2.282   5.006 -0.2307 -0.2377  0.7797
   15MOL    H34 2022   7.738   2.163   5.019 -0.6307 -1.3515  3.8958
   15MOL    H35 2023   7.871   2.102   5.106  0.3408  0.0429 -0.8866
   15MOL    H36 2024   7.885   2.105   4.933 -1.1582 -1.4905  0.6794
   15MOL    C37 2025   7.902   2.512   4.941  0.5073 -0.3063 -0.3551
   15MOL    C38 2026   0.054   2.545   4.810  0.3351 -0.3026  0.3605
   15MOL    O39 2027   7.804   2.609   4.963  0.0157  0.3909 -0.1146
   15MOL    H40 2028   0.066   2.530   5.016  1.2723  2.8264 -1.8076
   15MOL    H41 2029   7.892   2.532   4.733  0.2681 -1.5282  0.6153
   15MOL    H42 2030   0.130   2.469   4.794  1.7122  0.9919  0.5801
   15MOL    H43 2031   0.106   2.641   4.814 -0.4761  0.1948 -0.7365
   15MOL    C44 2032   7.773   2.629   5.092  0.6704  1.2713 -0.5755
   15MOL    C45 2033   7.805   2.772   5.118 -1.0240 -0.2186 -0.3543
   15MOL    O46 2034   7.629   2.618   5.099 -0.4742 -0.0883 -0.0541
   15MOL    H47 2035   7.818   2.571   5.173 -0.2386  0.5709 -0.5612
   15MOL    H48 2036   7.753   2.839   5.049 -1.7781  0.4776  0.8733
   15MOL    H49 2037   7.913   2.785   5.112 -0.9204 -1.1483 -0.5082
   15MOL    H50 2038   7.768   2.808   5.214 -1.7228 -1.6188 -0.0946
   15MOL    C51 2039   7.576   2.484   5.091 -0.2593 -0.0555 -0.2562
   15MOL    C52 2040   7.516   2.460   5.222  0.3286  0.6459 -0.1529
   15MOL    O53 2041   7.474   2.470   4.999 -0.1348 -0.2602 -0.3610
   15MOL    H54 2042   7.650   2.409   5.061  1.5674  1.3070  0.7382
   15MOL    H55 2043   7.599   2.434   5.288 -1.1420 -1.8977  0.7358
   15MOL    H56 2044   7.442   2.380   5.215  0.3149  0.5585  0.9042
   15MOL    H57 2045   7.464   2.543   5.269  0.2950  0.2453  0.5255
   15MOL    C58 2046   7.519   2.489   4.868  0.1453  0.2458  0.0043
   15MOL    C59 2047   7.537   2.349   4.796 -0.2242  0.4551  0.0255
   15MOL    O60 2048   7.427   2.562   4.802  0.1758 -0.3073  0.2168
   15MOL    H61 2049   7.612   2.544   4.860 -0.6703  1.4449 -1.4869
   15MOL    H62 2050   7.597   2.275   4.849 -2.2968 -1.3481 -0.0541
   15MOL    H63 2051   7.577   2.372   4.698 -0.7885 -0.9205 -0.5413
   15MOL    H64 2052   7.440   2.303   4.776 -0.2020  1.0925 -1.5506
   15MOL    C65 2053   7.405   2.684   4.858 -0.4182  1.3663 -0.4158
   15MOL    C66 2054   7.452   2.791   4.759  0.1922  0.2799  0.1557
   15MOL    O67 2055   7.264   2.687   4.889 -0.0538 -0.0671 -0.3951
   15MOL    H68 2056   7.469   2.701   4.945  1.1276  0.3545 -1.3355
   15MOL    H69 2057   7.429   2.889   4.800 -0.8217  0.2007 -0.2105
   15MOL    H70 2058   7.389   2.776   4.671  2.8362  0.0347 -1.7570
   15MOL    H71 2059   7.556   2.766   4.735  0.0171  1.9380 -2.5283
   15MOL    C72 2060   7.228   2.647   5.018  0.0595  0.3865 -0.9253
   15MOL    C73 2061   7.208   2.777   5.097  0.6718 -0.2251  0.8447
   15MOL    O74 2062   7.111   2.569   5.022  0.8033  0.1565 -0.1332
   15MOL    H75 2063   7.303   2.587   5.069  0.1783  0.1484 -1.3686
   15MOL    H76 2064   7.131   2.849   5.067  1.1648  0.0312  0.1917
   15MOL    H77 2065   7.302   2.831   5.085  1.0387 -0.6614  1.7105
   15MOL    H78 2066   7.191   2.757   5.203  1.7368 -3.0282  0.5244
   15MOL    C79 2067   7.133   2.444   4.969 -0.0355  0.0397 -0.1885
   15MOL    C80 2068   7.108   2.342   5.079  0.2580 -0.2348 -0.4813
   15MOL    O81 2069   7.038   2.422   4.866 -0.1815 -0.3470  0.1030
   15MOL    H82 2070   7.228   2.433   4.918  0.8123  2.8663  0.6882
   15MOL    H83 2071   7.013   2.370   5.125  1.0882 -0.1147  1.1573
   15MOL    H84 2072   7.188   2.339   5.153  0.4844 -1.6394 -0.7730
   15MOL    H85 2073   7.104   2.244   5.032  2.4061 -0.1162 -0.9605
   15MOL    C86 2074   7.071   2.470   4.735 -0.3039  0.3128 -0.6446
   15MOL    C87 2075   7.107   2.351   4.659  0.1153  0.5487  0.4774
   15MOL    O88 2076   6.967   2.538   4.679  0.2725 -0.2668  0.3189
   15MOL    H89 2077   7.155   2.538   4.739  1.6242 -1.9698 -1.1226
   15MOL    H90 2078   7.132   2.390   4.560 -0.5793 -0.0498  0.0609
   15MOL    H91 2079   7.028   2.276   4.652  1.1168 -0.4407 -0.4518
   15MOL    H92 2080   7.201   2.313   4.699  0.1288 -0.9625 -0.9030
   15MOL    C93 2081   6.950   2.663   4.736  0.3855 -0.0401 -0.1720
   15MOL    C94 2082   6.982   2.764   4.631 -0.0234 -0.6817  0.2301
   15MOL    O95 2083   6.813   2.681   4.768 -0.0413 -0.3783 -0.7480
   15MOL    H96 2084   7.024   2.686   4.812 -0.4364  0.7928  0.3772
   15MOL    H97 2085   7.088   2.757   4.605 -0.5554 -1.2643 -1.9189
   15MOL    H98 2086   6.975   2.862   4.679 -0.0113  0.4106 -1.9087
   15MOL    H99 2087   6.924   2.767   4.539 -1.8041  0.2383  1.3581
   15MOL   C100 2088   6.781   2.646   4.908  0.0901 -0.0727  0.0865
   15MOL   C101 2089   6.746   2.775   4.976 -0.3233 -0.1638 -0.1050
   15MOL   O102 2090   6.667   2.562   4.912  0.4550  0.7494 -0.2352
   15MOL   H103 2091   6.860   2.600   4.966  0.6240  0.0715 -0.5154
   15MOL   H104 2092   6.710   2.751   5.076  0.5180 -0.0196  0.2377
   15MOL   H105 2093   6.679   2.827   4.907  0.2921 -0.9767 -1.3460
   15MOL   H106 2094   6.839   2.830   4.993 -0.9385  1.1041 -0.8062
   15MOL   C107 2095   6.705   2.427   4.869  0.4677 -0.5383  0.2019
   15MOL   C108 2096   6.713   2.342   5.000 -0.3521  0.5881 -0.5065
   15MOL   O109 2097   6.603   2.372   4.789  0.3317 -0.2673  0.1444
   15MOL   H110 2098   6.797   2.424   4.811  0.5535  4.0584 -0.0924
   15MOL   H111 2099   6.755   2.242   4.994 -0.7850  0.4842 -2.2025
   15MOL   H112 2100   6.612   2.339   5.041  0.4205  1.7538  1.5569
   15MOL   H113 2101   6.775   2.402   5.067 -0.1754  0.4694 -0.5628
   15MOL   C114 2102   6.617   2.420   4.655  0.0263 -0.0910 -0.2617
   15MOL   C115 2103   6.670   2.307   4.580 -0.2217 -0.1247  0.1972
   15MOL   O116 2104   6.484   2.446   4.612 -0.5299 -0.4876  0.4793
   15MOL   H117 2105   6.676   2.511   4.646 -0.8008  0.5722  0.8012
   15MOL   H118 2106   6.772   2.287   4.611  0.0459  0.7313 -0.1145
   15MOL   H119 2107   6.679   2.332   4.474 -0.0743  1.9137  0.6737
   15MOL   H120 2108   6.624   2.213   4.611  1.1644  0.2090  3.3640
   15MOL   C121 2109   6.424   2.544   4.683  0.3907  1.0384 -0.3111
   15MOL   C122 2110   6.414   2.668   4.589  0.4173  0.5897 -0.0490
   15MOL   O123 2111   6.292   2.510   4.715  0.1530 -0.2040  0.3350
   15MOL   H124 2112   6.481   2.574   4.771 -0.5507  0.0224  0.6631
   15MOL   H125 2113   6.340   2.739   4.626  0.9530 -0.1648  2.6132
   15MOL   H126 2114   6.380   2.640   4.490  1.0121 -0.3044 -0.0076
   15MOL   H127 2115   6.511   2.716   4.577  0.1721  0.6021 -2.1970
   15MOL   C128 2116   6.279   2.396   4.791 -0.0100  0.0302  0.7219
   15MOL   C129 2117   6.246   2.441   4.935 -0.3007 -0.7796  0.3743
   15MOL   O130 2118   6.166   2.319   4.750  0.5814  1.1441 -0.1526
   15MOL   H131 2119   6.365   2.329   4.786 -0.8835 -1.0050 -0.8360
   15MOL   H132 2120   6.261   2.359   5.005 -0.3897 -0.8785  0.2770
   15MOL   H133 2121   6.144   2.478   4.945  0.0025 -0.2036  1.4025
   15MOL   H134 2122   6.314   2.524   4.958 -1.0873 -0.8636  3.1167
   15MOL   C135 2123   6.153   2.288   4.619  0.0530 -0.0614 -0.0940
   15MOL   C136 2124   6.240   2.164   4.604 -0.2017 -0.2336 -0.2648
   15MOL   O137 2125   6.020   2.257   4.589  0.2196 -0.1332  0.1358
   15MOL   H138 2126   6.181   2.368   4.550 -0.5482  0.9228  0.7913
   15MOL   H139 2127   6.342   2.200   4.586  0.0761 -0.7632  0.2437
   15MOL   H140 2128   6.209   2.109   4.515 -1.8299  0.9417 -0.4423
   15MOL   H141 2129   6.237   2.102   4.693 -1.3637 -0.3732 -0.3908
   15MOL   H142 2130   5.973   2.339   4.596  2.6278  1.4001 -0.8342
   16MOL     C1 2131   5.911   5.337   1.993 -0.9366  0.4014  0.3994
   16MOL     C2 2132   6.048   5.283   2.031 -0.1753  0.0068 -0.0339
   16MOL     O3 2133   5.888   5.284   1.861  0.1565 -0.7440  0.0388
   16MOL     H4 2134   5.922   5.444   1.980 -0.5469  0.1012 -2.0297
   16MOL     H5 2135   6.100   5.337   2.109  0.7856  0.4274 -0.9605
   16MOL     H6 2136   6.112   5.298   1.944 -1.2783  0.9676 -0.6988
   16MOL     H7 2137   6.053   5.175   2.048 -0.1913 -0.3687 -2.2685
   16MOL     H8 2138   5.834   5.315   2.067 -1.5651 -0.1145 -0.4037
   16MOL     C9 2139   5.769   5.321   1.802  0.0093  0.2924 -0.5705
   16MOL    C10 2140   5.799   5.461   1.744 -0.1300 -0.7032 -0.0068
   16MOL    O11 2141   5.740   5.244   1.689 -0.4787 -0.6665 -0.0723
   16MOL    H12 2142   5.687   5.311   1.872  0.0492  1.5924 -0.3124
   16MOL    H13 2143   5.880   5.475   1.673 -0.9990  2.6584 -0.4271
   16MOL    H14 2144   5.816   5.532   1.826 -0.0061 -0.2136 -0.4525
   16MOL    H15 2145   5.708   5.492   1.692  0.2375  3.8260  1.7537
   16MOL    C16 2146   5.731   5.109   1.720 -0.7392 -0.3368 -0.2109
   16MOL    C17 2147   5.603   5.082   1.792 -0.6233  0.3265  0.1890
   16MOL    O18 2148   5.721   5.043   1.598  0.0588  0.6380 -0.8231
   16MOL    H19 2149   5.822   5.075   1.769 -0.9289 -3.2868 -1.8281
   16MOL    H20 2150   5.598   5.116   1.895  2.4154 -0.7656  0.7523
   16MOL    H21 2151   5.579   4.975   1.793  1.2807 -0.1085  0.7385
   16MOL    H22 2152   5.521   5.125   1.735  1.0448  0.7492 -1.9640
   16MOL    C23 2153   5.828   4.983   1.547 -0.2105  0.2959 -0.1427
   16MOL    C24 2154   5.818   4.838   1.594 -0.7155  0.4061  0.2182
   16MOL    O25 2155   5.814   4.982   1.404 -0.1591  0.5190 -0.3061
   16MOL    H26 2156   5.921   5.034   1.571  0.0510  1.3439 -3.1206
   16MOL    H27 2157   5.908   4.788   1.558 -0.8138 -0.5293  1.2394
   16MOL    H28 2158   5.732   4.802   1.537 -0.1609 -1.1539  0.3494
   16MOL    H29 2159   5.813   4.825   1.702  0.4834 -3.4056 -0.1343
   16MOL    C30 2160   5.872   5.092   1.344  0.0876  0.3028 -0.1383
   16MOL    C31 2161   5.971   5.044   1.242  0.2864 -0.3324  0.3009
   16MOL    O32 2162   5.776   5.166   1.274 -0.5875  0.0063 -0.1676
   16MOL    H33 2163   5.918   5.157   1.418 -0.8884  1.7018 -0.7320
   16MOL    H34 2164   5.979   5.110   1.155  0.3755 -1.7099 -0.7651
   16MOL    H35 2165   5.927   4.952   1.203  2.0073 -2.3223  2.9252
   16MOL    H36 2166   6.070   5.032   1.285  0.0916  2.2704  1.5840
   16MOL    C37 2167   5.719   5.273   1.339 -0.0077 -0.1208  0.0336
   16MOL    C38 2168   5.794   5.401   1.302 -0.9091 -1.0596 -0.5029
   16MOL    O39 2169   5.583   5.295   1.311  0.3966 -0.5373 -0.4530
   16MOL    H40 2170   5.732   5.259   1.446  0.4134 -0.7035 -0.0903
   16MOL    H41 2171   5.900   5.392   1.326 -1.3661 -1.3066  1.5357
   16MOL    H42 2172   5.746   5.481   1.358  0.6178 -1.3573  1.2792
   16MOL    H43 2173   5.780   5.430   1.198  0.9657 -2.2749 -1.1028
   16MOL    C44 2174   5.499   5.219   1.393 -0.0724 -0.0995 -0.1437
   16MOL    C45 2175   5.407   5.323   1.451  0.2647 -0.1562 -0.4526
   16MOL    O46 2176   5.422   5.130   1.318  0.1477  0.4479  0.0710
   16MOL    H47 2177   5.536   5.168   1.482 -3.6594  0.4375  1.7560
   16MOL    H48 2178   5.315   5.334   1.393 -0.7312  3.4873  1.6464
   16MOL    H49 2179   5.452   5.420   1.471  0.9940 -0.3113 -1.3399
   16MOL    H50 2180   5.372   5.294   1.550  1.4948 -1.8208 -0.4914
   16MOL    C51 2181   5.487   5.014   1.278 -0.2043  0.3010  0.7591
   16MOL    C52 2182   5.441   4.894   1.368 -0.0901  0.2558  0.1773
   16MOL    O53 2183   5.456   4.981   1.142 -0.0828 -0.8038 -0.5716
   16MOL    H54 2184   5.596   5.016   1.282 -0.2065 -1.1082  2.0608
   16MOL    H55 2185   5.456   4.924   1.472  1.7696  1.0177 -0.2942
   16MOL    H56 2186   5.496   4.802   1.347  0.5089  0.4902  0.6957
   16MOL    H57 2187   5.335   4.871   1.353 -0.2094  0.9982 -0.1278
   16MOL    C58 2188   5.522   5.060   1.049 -0.3976 -0.1361 -0.0214
   16MOL    C59 2189   5.655   4.993   0.996  0.3901 -0.3171  0.8642
   16MOL    O60 2190   5.442   5.086   0.939  0.2969  0.0468  0.6931
   16MOL    H61 2191   5.549   5.152   1.100 -1.8631  0.9198 -1.0749
   16MOL    H62 2192   5.717   4.956   1.078  2.0787 -0.2178 -0.3543
   16MOL    H63 2193   5.711   5.068   0.941 -0.5529  2.0137  2.9451
   16MOL    H64 2194   5.614   4.918   0.929  1.3388 -0.4953  0.4772
   16MOL    C65 2195   5.323   5.155   0.956 -0.1579  0.7756  0.1301
   16MOL    C66 2196   5.334   5.301   0.902 -0.3252  0.0326 -0.4429
   16MOL    O67 2197   5.224   5.088   0.883 -0.1680 -0.0862 -0.5001
   16MOL    H68 2198   5.297   5.168   1.061  0.0393 -0.9073  0.4009
   16MOL    H69 2199   5.430   5.342   0.934  0.8500 -2.4548 -0.5951
   16MOL    H70 2200   5.250   5.362   0.935 -1.0773 -0.6660 -1.0595
   16MOL    H71 2201   5.340   5.292   0.794  1.2448  0.7262 -0.4352
   16MOL    C72 2202   5.183   4.964   0.932  0.3827  0.2714 -0.1990
   16MOL    C73 2203   5.086   4.978   1.042  0.0387 -0.3015 -0.5530
   16MOL    O74 2204   5.117   4.883   0.839 -0.4969 -0.1403  0.1787
   16MOL    H75 2205   5.271   4.910   0.966 -0.4227 -0.6123  0.5052
   16MOL    H76 2206   5.061   4.878   1.078 -1.2130  0.1869 -0.0446
   16MOL    H77 2207   4.988   5.022   1.027 -0.0454  0.4198  1.8828
   16MOL    H78 2208   5.133   5.035   1.122  1.3019 -1.6608 -0.3026
   16MOL    C79 2209   5.199   4.849   0.727 -0.1642 -0.4290 -0.0659
   16MOL    C80 2210   5.208   4.698   0.719  0.4368  0.0773 -0.4519
   16MOL    O81 2211   5.130   4.885   0.605  0.3863 -0.5052 -0.4784
   16MOL    H82 2212   5.297   4.897   0.717 -0.4525  0.1223 -0.2624
   16MOL    H83 2213   5.105   4.666   0.701  0.3470  0.6197 -0.8904
   16MOL    H84 2214   5.255   4.661   0.809 -1.1841  1.7662  1.1339
   16MOL    H85 2215   5.269   4.667   0.634  1.4854 -2.1138  1.0477
   16MOL    C86 2216   5.166   5.005   0.546 -0.5031  0.3111 -0.2515
   16MOL    C87 2217   5.248   4.984   0.417 -0.5506 -0.6857 -0.3538
   16MOL    O88 2218   5.050   5.091   0.519  0.3136 -0.6808  0.2425
   16MOL    H89 2219   5.225   5.077   0.602  0.1293 -1.3704  1.2735
   16MOL    H90 2220   5.200   4.903   0.363  0.5983 -1.5390 -0.1020
   16MOL    H91 2221   5.346   4.955   0.453 -1.0454 -1.2088  0.5890
   16MOL    H92 2222   5.258   5.075   0.357  1.2259 -0.2740  0.5385
   16MOL    C93 2223   4.990   5.141   0.637 -0.5400  0.0123  0.0399
   16MOL    C94 2224   5.037   5.285   0.651  0.1486 -0.0106 -0.1200
   16MOL    O95 2225   4.849   5.129   0.633 -0.1020 -0.4843 -0.4765
   16MOL    H96 2226   5.009   5.083   0.728 -0.4458 -0.9453 -0.5908
   16MOL    H97 2227   5.137   5.286   0.695 -0.7940 -0.3684  2.1350
   16MOL    H98 2228   4.976   5.337   0.725 -1.1970 -1.4504 -0.2074
   16MOL    H99 2229   5.036   5.341   0.558  0.0310  1.6808  0.8605
   16MOL   C100 2230   4.803   4.999   0.634 -0.6470 -0.8378 -0.7747
   16MOL   C101 2231   4.703   4.991   0.755 -0.7307 -0.1445 -0.0831
   16MOL   O102 2232   4.726   4.972   0.524 -0.2589  0.1860  0.1983
   16MOL   H103 2233   4.891   4.935   0.647 -0.4811 -0.4665 -0.0074
   16MOL   H104 2234   4.620   5.062   0.760 -0.3359  0.2419  1.1560
   16MOL   H105 2235   4.762   5.015   0.843 -1.7433  0.5234  0.4266
   16MOL   H106 2236   4.660   4.893   0.777  0.5788 -0.4590  1.1352
   16MOL   C107 2237   4.796   4.924   0.405 -0.9547 -0.2214  0.1228
   16MOL   C108 2238   4.741   4.781   0.373 -0.2647 -0.1431 -0.7107
   16MOL   O109 2239   4.759   4.999   0.292  0.7712 -0.3618 -0.2397
   16MOL   H110 2240   4.904   4.919   0.418 -0.8957  0.9593  0.1753
   16MOL   H111 2241   4.806   4.729   0.302  0.7743 -0.1170  0.2051
   16MOL   H112 2242   4.640   4.791   0.335 -0.2043  0.9382 -0.5921
   16MOL   H113 2243   4.747   4.722   0.465  1.6823  0.5576 -0.3679
   16MOL   C114 2244   4.850   5.107   0.262 -0.1242 -0.0277 -0.0848
   16MOL   C115 2245   4.967   5.045   0.177  0.0634 -0.5760 -0.0404
   16MOL   O116 2246   4.793   5.211   0.185 -0.7060 -0.4253 -0.3101
   16MOL   H117 2247   4.867   5.152   0.360 -1.7740 -3.5120  1.9338
   16MOL   H118 2248   4.932   4.986   0.092 -0.5870 -0.8993  0.4568
   16MOL   H119 2249   5.021   4.987   0.251  0.3244  0.6553  0.7600
   16MOL   H120 2250   5.022   5.135   0.149  2.2395 -0.4309  4.3196
   16MOL   C121 2251   4.679   5.271   0.243 -0.0095  0.0475  0.6721
   16MOL   C122 2252   4.718   5.397   0.324 -1.1792  0.1016  0.5976
   16MOL   O123 2253   4.581   5.313   0.154 -0.1987  0.0127  0.1566
   16MOL   H124 2254   4.636   5.210   0.322  1.7534 -1.3591  0.5984
   16MOL   H125 2255   4.751   5.472   0.252  0.2967  0.9556  2.1157
   16MOL   H126 2256   4.812   5.385   0.378  0.2624  0.2867 -1.7914
   16MOL   H127 2257   4.648   5.437   0.398 -0.8209 -0.4748  1.2471
   16MOL   C128 2258   4.516   5.212   0.089  0.5120 -0.0815  0.7120
   16MOL   C129 2259   4.376   5.241   0.120 -0.5575  0.3672 -0.0296
   16MOL   O130 2260   4.520   5.218   7.863  0.4470  0.6925 -0.9399
   16MOL   H131 2261   4.545   5.113   0.125 -3.2938 -1.4144  0.3342
   16MOL   H132 2262   4.311   5.157   0.096  0.4254 -0.1118 -1.0848
   16MOL   H133 2263   4.341   5.330   0.066 -1.6031  0.2186  0.3914
   16MOL   H134 2264   4.360   5.271   0.223 -0.4299  0.7068 -0.1065
   16MOL   C135 2265   4.641   5.160   7.807  0.6730 -0.3588  0.0184
   16MOL   C136 2266   4.610   5.128   7.658 -0.1691 -0.4781 -0.1003
   16MOL   O137 2267   4.748   5.245   7.830 -0.4313 -0.3832  0.0577
   16MOL   H138 2268   4.657   5.064   7.856  1.0385  0.2347  1.1011
   16MOL   H139 2269   4.692   5.072   7.613  0.1787  1.2845 -1.7453
   16MOL   H140 2270   4.600   5.220   7.600 -0.8052 -0.1828  0.4766
   16MOL   H141 2271   4.517   5.073   7.646 -1.0864  0.9398  0.4533
   16MOL   H142 2272   4.753   5.263   0.009  2.3317  1.5019 -0.3761
   17MOL     C1 2273   3.817   7.599   5.262 -0.1698 -0.2477 -0.0867
   17MOL     C2 2274   3.915   7.716   5.230 -1.1712  0.0447 -0.1058
   17MOL     O3 2275   3.904   7.494   5.266 -0.0129 -0.7355  0.3558
   17MOL     H4 2276   3.736   7.587   5.190 -0.9579  0.0214  0.7589
   17MOL     H5 2277   3.977   7.734   5.318 -2.1520 -2.3448  1.1247
   17MOL     H6 2278   3.862   7.804   5.195 -2.1104 -0.9439 -1.2126
   17MOL     H7 2279   3.980   7.685   5.148 -2.5102 -0.7178 -0.8965
   17MOL     H8 2280   3.776   7.638   5.355 -0.0077  1.5086 -0.7275
   17MOL     C9 2281   3.859   7.394   5.345 -0.6955  0.4596  0.4130
   17MOL    C10 2282   3.755   7.312   5.266  0.0127  0.3238  0.0388
   17MOL    O11 2283   3.961   7.311   5.386  0.0702  0.2816 -0.3852
   17MOL    H12 2284   3.812   7.436   5.434 -2.2192  1.8494 -1.0135
   17MOL    H13 2285   3.665   7.371   5.253 -0.6983 -1.2846 -2.5711
   17MOL    H14 2286   3.737   7.226   5.331  2.4594  0.3168  0.7726
   17MOL    H15 2287   3.784   7.278   5.167 -1.9046  0.4825 -0.5898
   17MOL    C16 2288   4.041   7.353   5.489  0.1392  0.6897 -0.3147
   17MOL    C17 2289   4.007   7.262   5.621  0.0013  0.4826  0.1934
   17MOL    O18 2290   4.175   7.327   5.463  0.2841  0.0897  0.4715
   17MOL    H19 2291   4.025   7.460   5.503 -0.2682  0.6417 -0.4121
   17MOL    H20 2292   4.044   7.160   5.608 -3.1169 -0.3826 -2.5275
   17MOL    H21 2293   3.903   7.277   5.649  0.5719  0.8168  2.1951
   17MOL    H22 2294   4.067   7.302   5.702 -2.2994  2.7313  0.8623
   17MOL    C23 2295   4.231   7.408   5.364 -0.3459  0.1144 -0.2819
   17MOL    C24 2296   4.351   7.478   5.443  0.3062  0.3328  0.7374
   17MOL    O25 2297   4.304   7.333   5.278  0.2549 -0.0382  0.2455
   17MOL    H26 2298   4.164   7.474   5.308 -0.0738 -0.3729 -1.2008
   17MOL    H27 2299   4.314   7.524   5.534 -0.4402  0.6267  0.2923
   17MOL    H28 2300   4.402   7.555   5.385  0.3776  2.5234  3.5808
   17MOL    H29 2301   4.419   7.396   5.465 -2.7779 -2.5291  0.1601
   17MOL    C30 2302   4.241   7.300   5.163 -0.4125  0.4091 -1.0337
   17MOL    C31 2303   4.329   7.356   5.053  0.4162 -0.0770  0.3018
   17MOL    O32 2304   4.242   7.167   5.149  0.2019 -0.0914  0.1842
   17MOL    H33 2305   4.137   7.330   5.160 -1.4959 -2.7722  1.4255
   17MOL    H34 2306   4.432   7.318   5.049 -0.2536 -1.9628  0.6474
   17MOL    H35 2307   4.323   7.465   5.065  4.5702  0.5512 -2.2747
   17MOL    H36 2308   4.280   7.320   4.963  0.4726 -1.5527  0.8604
   17MOL    C37 2309   4.135   7.105   5.210 -0.4141  0.3056 -0.1449
   17MOL    C38 2310   4.039   7.063   5.095 -0.3987 -0.4243  0.6098
   17MOL    O39 2311   4.191   6.985   5.267 -0.1911  0.3125  0.6968
   17MOL    H40 2312   4.080   7.163   5.284 -1.5302 -0.1991 -0.5612
   17MOL    H41 2313   4.009   7.149   5.036  1.7266  0.7583  1.1942
   17MOL    H42 2314   3.951   7.015   5.139 -1.2861 -0.1170 -0.8029
   17MOL    H43 2315   4.086   6.989   5.030 -0.5960 -0.2934  0.3161
   17MOL    C44 2316   4.233   7.004   5.398 -0.4679  0.3897 -0.0938
   17MOL    C45 2317   4.144   6.932   5.491  0.1198 -0.4932  0.3316
   17MOL    O46 2318   4.356   6.948   5.426 -0.0456  0.3216 -0.0752
   17MOL    H47 2319   4.244   7.111   5.416 -0.9743  0.6640 -1.3727
   17MOL    H48 2320   4.037   6.950   5.478  0.2150  0.9051  1.4287
   17MOL    H49 2321   4.164   6.952   5.596 -0.8704  0.2438  0.3854
   17MOL    H50 2322   4.153   6.826   5.468  0.5474 -0.0740 -1.5468
   17MOL    C51 2323   4.467   7.023   5.382  0.1999  0.8049  0.7149
   17MOL    C52 2324   4.542   7.060   5.507  0.2501  0.4533 -0.2776
   17MOL    O53 2325   4.559   6.947   5.315  0.6092 -0.3008  0.0220
   17MOL    H54 2326   4.432   7.109   5.326 -0.0061  0.6329  0.5793
   17MOL    H55 2327   4.487   7.130   5.571  0.4189 -1.2448  1.7538
   17MOL    H56 2328   4.631   7.119   5.485  0.4520 -0.2572 -1.4077
   17MOL    H57 2329   4.561   6.972   5.568 -2.7980  0.2294  0.4536
   17MOL    C58 2330   4.546   6.952   5.176 -0.4371 -0.1105 -0.2458
   17MOL    C59 2331   4.647   7.049   5.115 -0.0705 -0.2200  0.1296
   17MOL    O60 2332   4.565   6.821   5.127  0.2346 -0.4171  0.0675
   17MOL    H61 2333   4.446   6.982   5.142 -0.9634  0.8312  2.0525
   17MOL    H62 2334   4.735   7.045   5.178  1.1716  0.4466 -1.5316
   17MOL    H63 2335   4.600   7.147   5.117 -1.0051 -0.6070 -1.5515
   17MOL    H64 2336   4.666   7.021   5.011 -1.5568  1.8247 -0.7348
   17MOL    C65 2337   4.455   6.741   5.152  0.3449  0.0494  0.7211
   17MOL    C66 2338   4.365   6.738   5.020 -0.4141  0.0559 -0.1148
   17MOL    O67 2339   4.492   6.610   5.173 -0.2857  0.9573  0.3601
   17MOL    H68 2340   4.392   6.781   5.231 -0.7607 -0.2602  0.0188
   17MOL    H69 2341   4.408   6.667   4.950  1.3423 -0.9951  1.9572
   17MOL    H70 2342   4.369   6.831   4.964  1.0127  0.4991  0.7096
   17MOL    H71 2343   4.260   6.710   5.031 -0.0632 -1.0511  0.5159
   17MOL    C72 2344   4.565   6.585   5.291 -0.1972 -0.3017 -0.2092
   17MOL    C73 2345   4.497   6.462   5.355  0.0306 -0.2155 -0.0531
   17MOL    O74 2346   4.692   6.544   5.257 -1.0914  0.1462  0.3335
   17MOL    H75 2347   4.576   6.672   5.355  0.6708 -0.0614 -0.6907
   17MOL    H76 2348   4.553   6.441   5.447  1.9110 -0.1348 -1.1492
   17MOL    H77 2349   4.499   6.373   5.292  0.3350 -1.2244  1.3561
   17MOL    H78 2350   4.392   6.472   5.380  0.2367  1.4260  0.1984
   17MOL    C79 2351   4.796   6.633   5.274 -0.0760 -0.4176  0.5161
   17MOL    C80 2352   4.857   6.622   5.416  0.5578  0.2908  0.0252
   17MOL    O81 2353   4.886   6.608   5.169  0.4799  0.1487  0.2452
   17MOL    H82 2354   4.772   6.740   5.268  3.6466  0.3890 -2.5870
   17MOL    H83 2355   4.916   6.530   5.420  0.6051  0.2315 -1.6510
   17MOL    H84 2356   4.780   6.610   5.492 -0.4490  0.6260 -0.9233
   17MOL    H85 2357   4.924   6.704   5.440  0.4647  0.1572  0.7519
   17MOL    C86 2358   4.837   6.633   5.044 -0.1685  0.0184 -0.2922
   17MOL    C87 2359   4.933   6.724   4.977  0.2768  0.3593 -0.3829
   17MOL    O88 2360   4.828   6.515   4.967  0.0795 -0.0990  0.0338
   17MOL    H89 2361   4.739   6.681   5.047 -0.3051 -0.2809  0.0646
   17MOL    H90 2362   4.910   6.757   4.876 -1.2969  0.5408  0.0169
   17MOL    H91 2363   5.018   6.660   4.956  1.0344  1.3006 -0.1821
   17MOL    H92 2364   4.956   6.806   5.045 -1.1285 -0.6399  1.3692
   17MOL    C93 2365   4.700   6.463   4.945 -0.2202 -0.1746 -0.2450
   17MOL    C94 2366   4.647   6.527   4.813  0.3419 -0.0582 -0.9122
   17MOL    O95 2367   4.716   6.329   4.928 -0.0152 -0.1219 -0.4795
   17MOL    H96 2368   4.632   6.495   5.024  1.4933  0.1091  1.1543
   17MOL    H97 2369   4.721   6.521   4.733  0.5890  2.1066 -0.8615
   17MOL    H98 2370   4.642   6.635   4.822  0.3939 -0.1040 -0.3055
   17MOL    H99 2371   4.546   6.495   4.786  0.3025 -0.3769 -0.3987
   17MOL   C100 2372   4.735   6.275   5.053  0.0696  0.2825 -0.0837
   17MOL   C101 2373   4.599   6.198   5.074  0.1195  0.1509  0.0474
   17MOL   O102 2374   4.836   6.184   5.062 -0.7447  0.2395  0.2920
   17MOL   H103 2375   4.750   6.354   5.126 -1.0869 -0.6047  1.1319
   17MOL   H104 2376   4.580   6.119   5.001  2.4651 -0.2782 -0.1441
   17MOL   H105 2377   4.519   6.272   5.073 -0.3762 -0.3788  0.0522
   17MOL   H106 2378   4.597   6.151   5.172  2.7737 -1.2107 -0.4953
   17MOL   C107 2379   4.965   6.246   5.088  1.0576 -0.2100  0.3420
   17MOL   C108 2380   4.993   6.204   5.231 -0.0157  0.4405  0.2738
   17MOL   O109 2381   5.067   6.193   5.010 -0.2757 -0.5296  0.3718
   17MOL   H110 2382   4.958   6.355   5.083  1.7976 -0.2161 -1.5560
   17MOL   H111 2383   4.930   6.249   5.307  2.3956 -0.1208  2.7167
   17MOL   H112 2384   5.090   6.242   5.263  0.3949  0.2894 -0.7817
   17MOL   H113 2385   5.000   6.095   5.221  1.3887  0.6145 -0.7453
   17MOL   C114 2386   5.066   6.260   4.879 -0.1338 -0.2551 -0.2974
   17MOL   C115 2387   5.202   6.329   4.875  0.3033  0.1821 -0.5636
   17MOL   O116 2388   5.071   6.172   4.778  0.3216  0.3967 -0.3734
   17MOL   H117 2389   4.994   6.342   4.866 -0.0884 -0.4363 -1.7868
   17MOL   H118 2390   5.196   6.419   4.937  0.8897  0.7028 -1.2479
   17MOL   H119 2391   5.211   6.369   4.774 -1.5236  1.2141 -0.3402
   17MOL   H120 2392   5.279   6.261   4.912 -0.2905 -1.3892 -2.1634
   17MOL   C121 2393   4.951   6.109   4.750  0.3940 -0.7095 -0.0550
   17MOL   C122 2394   4.876   6.192   4.640 -0.2156  0.1618  0.5678
   17MOL   O123 2395   4.972   5.986   4.694 -0.1462  0.2073 -0.4031
   17MOL   H124 2396   4.895   6.100   4.843  0.6841  2.6307  0.4856
   17MOL   H125 2397   4.780   6.146   4.616 -0.0057 -0.5621  1.0819
   17MOL   H126 2398   4.935   6.185   4.549 -1.5800  2.7295 -0.5564
   17MOL   H127 2399   4.852   6.293   4.674  1.5006  0.0564  2.1627
   17MOL   C128 2400   5.032   5.904   4.787 -0.3876  0.0993  0.1950
   17MOL   C129 2401   4.930   5.794   4.807  0.2593  0.9727 -0.4747
   17MOL   O130 2402   5.153   5.847   4.729 -0.4678  0.2452  0.3318
   17MOL   H131 2403   5.058   5.949   4.883  0.4345 -1.3439  0.6554
   17MOL   H132 2404   4.838   5.838   4.844 -0.7807 -1.5428  0.0717
   17MOL   H133 2405   4.961   5.727   4.888 -0.6658 -0.6872 -1.4638
   17MOL   H134 2406   4.913   5.741   4.713  0.1873  1.1293 -0.5487
   17MOL   C135 2407   5.257   5.932   4.727  0.1264  0.5216  0.3557
   17MOL   C136 2408   5.384   5.850   4.716  0.5380 -0.1926 -0.4284
   17MOL   O137 2409   5.250   6.015   4.616 -0.3932  0.5277 -0.4588
   17MOL   H138 2410   5.264   6.001   4.812 -0.7065 -0.4669  1.2452
   17MOL   H139 2411   5.384   5.792   4.624  2.0157 -2.8755  1.2115
   17MOL   H140 2412   5.387   5.778   4.798  0.3982  1.4388  1.0525
   17MOL   H141 2413   5.465   5.924   4.718 -0.2757  0.6891  0.8290
   17MOL   H142 2414   5.194   6.088   4.639 -1.6276 -0.4599 -0.2845
   18MOL     C1 2415   5.231   2.511   4.033 -0.5450 -0.6259  0.3020
   18MOL     C2 2416   5.297   2.454   3.909  0.2952 -0.0801 -0.0277
   18MOL     O3 2417   5.261   2.438   4.153  0.9113  0.1430 -0.3951
   18MOL     H4 2418   5.124   2.512   4.009 -0.7403 -0.4307  1.1648
   18MOL     H5 2419   5.270   2.355   3.875 -1.1021 -0.2157  1.4252
   18MOL     H6 2420   5.403   2.456   3.933  0.0701 -0.8520  1.0769
   18MOL     H7 2421   5.287   2.518   3.821  2.2400 -0.1874 -0.3496
   18MOL     H8 2422   5.271   2.612   4.045 -1.5978 -0.1821  0.1621
   18MOL     C9 2423   5.167   2.461   4.255 -0.2376  0.3640 -0.1510
   18MOL    C10 2424   5.162   2.605   4.303  0.1524 -0.1687 -0.0371
   18MOL    O11 2425   5.040   2.413   4.213  0.5398 -0.5609 -0.2415
   18MOL    H12 2426   5.204   2.400   4.337  0.8585  0.5430 -0.5010
   18MOL    H13 2427   5.264   2.644   4.302 -0.2392  1.2629  3.9139
   18MOL    H14 2428   5.104   2.618   4.395 -1.3704  0.4599 -1.0714
   18MOL    H15 2429   5.119   2.665   4.223  1.4581  4.5302  2.5502
   18MOL    C16 2430   5.024   2.281   4.250 -0.5320  1.1756 -0.8787
   18MOL    C17 2431   4.967   2.286   4.388  0.0012  0.2934  1.2281
   18MOL    O18 2432   4.928   2.224   4.173  0.6657  0.6439  0.1147
   18MOL    H19 2433   5.116   2.223   4.237 -0.3993  1.0264  0.5962
   18MOL    H20 2434   4.958   2.185   4.429  0.1075 -0.4796 -0.6001
   18MOL    H21 2435   4.866   2.327   4.381 -0.2747 -0.5201  0.2132
   18MOL    H22 2436   5.040   2.335   4.452 -1.1087  2.1007  1.1535
   18MOL    C23 2437   4.975   2.200   4.042 -0.2123  0.0739 -0.3451
   18MOL    C24 2438   4.996   2.047   4.034 -0.3509 -0.0752  0.0033
   18MOL    O25 2439   4.876   2.240   3.955  0.7872 -0.2722 -0.2065
   18MOL    H26 2440   5.070   2.252   4.027 -0.0605 -0.1478 -0.1494
   18MOL    H27 2441   5.074   2.025   4.107 -1.8489  2.6795  2.5310
   18MOL    H28 2442   5.022   2.015   3.933  0.3808 -1.0166  0.4874
   18MOL    H29 2443   4.906   1.991   4.060 -0.8982  0.2786 -1.0643
   18MOL    C30 2444   4.881   2.371   3.921 -0.2691  0.4740 -0.4933
   18MOL    C31 2445   4.936   2.382   3.780 -0.1715  0.0319 -0.4352
   18MOL    O32 2446   4.758   2.433   3.915  0.1622  0.3663 -0.3349
   18MOL    H33 2447   4.942   2.421   3.997 -2.9008  2.2705  0.4883
   18MOL    H34 2448   4.873   2.322   3.716 -0.5684  2.1228 -2.0488
   18MOL    H35 2449   5.037   2.340   3.777 -0.3585 -0.3109 -2.5505
   18MOL    H36 2450   4.937   2.486   3.749  1.1443 -0.2229 -1.3277
   18MOL    C37 2451   4.686   2.433   4.040  0.7086 -0.0581  0.4738
   18MOL    C38 2452   4.719   2.561   4.125 -0.0137  0.8113  0.3314
   18MOL    O39 2453   4.548   2.427   4.023  0.2835  0.2477 -0.0353
   18MOL    H40 2454   4.709   2.343   4.097 -2.0833  0.3362  2.3468
   18MOL    H41 2455   4.643   2.634   4.099  0.6617  0.9869 -1.2514
   18MOL    H42 2456   4.819   2.598   4.103  0.6287 -1.5753 -0.9927
   18MOL    H43 2457   4.710   2.541   4.232  2.6887  0.4503  0.5391
   18MOL    C44 2458   4.503   2.322   3.950 -0.5562 -0.1019  0.3071
   18MOL    C45 2459   4.453   2.213   4.049 -0.4461 -0.7872 -0.2154
   18MOL    O46 2460   4.395   2.350   3.863 -0.0085 -0.0749 -0.9897
   18MOL    H47 2461   4.586   2.282   3.892 -1.6393  0.5039 -1.7073
   18MOL    H48 2462   4.545   2.180   4.098  0.0102 -0.0819 -0.5905
   18MOL    H49 2463   4.424   2.123   3.995  3.2401 -1.7284 -0.7833
   18MOL    H50 2464   4.371   2.246   4.112 -0.2231 -2.7531  1.1628
   18MOL    C51 2465   4.429   2.455   3.779  0.3092 -0.5244  0.1341
   18MOL    C52 2466   4.421   2.402   3.640 -0.3281  0.3993  0.4652
   18MOL    O53 2467   4.323   2.547   3.785 -0.0923  0.5362 -0.2707
   18MOL    H54 2468   4.528   2.495   3.800  0.2072  0.1521 -0.6417
   18MOL    H55 2469   4.445   2.479   3.567  0.2470 -1.5177 -1.4163
   18MOL    H56 2470   4.321   2.364   3.618 -0.4622  0.3382  1.1686
   18MOL    H57 2471   4.498   2.328   3.619 -0.0273  0.8984 -0.1842
   18MOL    C58 2472   4.308   2.603   3.909  0.0704 -0.0241 -0.0492
   18MOL    C59 2473   4.373   2.742   3.912 -0.4359 -0.0972  0.8637
   18MOL    O60 2474   4.171   2.615   3.942 -0.1104 -0.4131  0.3312
   18MOL    H61 2475   4.346   2.544   3.993 -0.8222  1.6172  1.5234
   18MOL    H62 2476   4.346   2.818   3.838  2.7711 -0.1022 -0.3920
   18MOL    H63 2477   4.482   2.740   3.904 -0.3699 -1.4886  2.0609
   18MOL    H64 2478   4.340   2.788   4.005  1.5567 -1.8915  2.4968
   18MOL    C65 2479   4.111   2.502   3.982  0.3926  0.1310 -0.7021
   18MOL    C66 2480   4.075   2.534   4.130  0.4571 -0.8464  0.8333
   18MOL    O67 2481   3.992   2.475   3.917 -0.2660  0.1753  0.8868
   18MOL    H68 2482   4.174   2.414   3.990  0.7364  0.1806 -2.5353
   18MOL    H69 2483   4.167   2.541   4.188  0.5712 -0.4666  0.6139
   18MOL    H70 2484   4.003   2.463   4.171 -0.0316 -0.9528 -0.1933
   18MOL    H71 2485   4.014   2.624   4.137 -0.2361 -1.3187  0.9174
   18MOL    C72 2486   4.005   2.428   3.793  0.8133  0.0288  1.0505
   18MOL    C73 2487   3.919   2.304   3.792 -0.3672 -0.1191 -0.5868
   18MOL    O74 2488   3.929   2.511   3.703 -0.1053  0.5170  0.0246
   18MOL    H75 2489   4.101   2.413   3.745  0.8801 -0.3948  1.3165
   18MOL    H76 2490   3.892   2.256   3.698 -0.7259 -0.6566 -0.2100
   18MOL    H77 2491   3.821   2.338   3.827 -0.0781  0.1215 -0.0058
   18MOL    H78 2492   3.958   2.235   3.867  0.5539  1.1811  0.1601
   18MOL    C79 2493   3.996   2.626   3.664  0.2760  0.5406 -0.2812
   18MOL    C80 2494   4.002   2.613   3.512  0.0284 -0.6588 -0.0360
   18MOL    O81 2495   3.911   2.731   3.693  0.3348 -0.3962  0.0301
   18MOL    H82 2496   4.091   2.635   3.717  0.2853  3.3715 -0.7201
   18MOL    H83 2497   4.060   2.694   3.466 -1.3957  0.1882 -0.3618
   18MOL    H84 2498   3.902   2.620   3.471  0.8126  0.4566 -1.8396
   18MOL    H85 2499   4.052   2.518   3.497  2.1847  0.0353  2.3191
   18MOL    C86 2500   3.901   2.773   3.821  0.3651 -0.1053  0.2029
   18MOL    C87 2501   3.966   2.919   3.815 -0.5286  0.6009 -0.1633
   18MOL    O88 2502   3.764   2.796   3.851 -0.1570  0.9264 -0.2764
   18MOL    H89 2503   3.955   2.718   3.899 -0.0632  0.8303  1.1699
   18MOL    H90 2504   3.920   2.975   3.734 -1.6803 -1.9400 -1.3576
   18MOL    H91 2505   4.071   2.917   3.786 -0.4851 -1.0388  0.0364
   18MOL    H92 2506   3.955   2.977   3.906 -1.0777  2.2040 -1.2305
   18MOL    C93 2507   3.699   2.676   3.883  0.0164 -0.2124  0.2976
   18MOL    C94 2508   3.671   2.692   4.036 -0.0720  0.5054  0.0946
   18MOL    O95 2509   3.578   2.652   3.810  0.2256  0.1671  0.1530
   18MOL    H96 2510   3.766   2.591   3.879 -1.6771 -1.8099  3.7635
   18MOL    H97 2511   3.759   2.733   4.085 -0.9815  0.8134  1.5095
   18MOL    H98 2512   3.652   2.593   4.077  0.6649  0.0264 -0.6955
   18MOL    H99 2513   3.590   2.759   4.064  0.6279  1.3807  0.0147
   18MOL   C100 2514   3.596   2.583   3.691 -0.1675  0.4923  0.0374
   18MOL   C101 2515   3.552   2.441   3.698 -0.6331  0.5827 -0.5636
   18MOL   O102 2516   3.513   2.641   3.584 -0.0328 -0.2905 -0.0954
   18MOL   H103 2517   3.701   2.586   3.662 -0.3256 -2.0607 -0.9090
   18MOL   H104 2518   3.446   2.439   3.723 -0.7080  1.9387 -0.7367
   18MOL   H105 2519   3.613   2.395   3.776  0.3299  0.1231 -1.5844
   18MOL   H106 2520   3.569   2.390   3.603 -1.7093 -0.6030 -0.1240
   18MOL   C107 2521   3.579   2.745   3.513  0.0029 -0.0442 -0.9198
   18MOL   C108 2522   3.588   2.712   3.365 -0.4173  0.8273  1.4110
   18MOL   O109 2523   3.510   2.869   3.517  0.0152 -0.2117  0.6688
   18MOL   H110 2524   3.681   2.760   3.549 -1.3230  4.3516  1.3133
   18MOL   H111 2525   3.658   2.632   3.338 -0.7657  0.5051  1.4597
   18MOL   H112 2526   3.638   2.795   3.315  0.1238 -0.3913 -0.1127
   18MOL   H113 2527   3.488   2.683   3.334  0.8872 -1.2172 -1.1616
   18MOL   C114 2528   3.525   2.939   3.634 -0.4202  0.6725  0.5144
   18MOL   C115 2529   3.594   3.072   3.608  0.0973 -0.2933 -0.2557
   18MOL   O116 2530   3.398   2.981   3.677  0.5725  0.3536  1.0116
   18MOL   H117 2531   3.578   2.887   3.714  1.6856  3.2228  0.8415
   18MOL   H118 2532   3.694   3.059   3.567  0.4986 -2.0059  1.1976
   18MOL   H119 2533   3.593   3.127   3.702  1.3272  2.3184 -1.7149
   18MOL   H120 2534   3.545   3.121   3.524 -0.2340 -0.3527 -0.1000
   18MOL   C121 2535   3.347   2.907   3.783 -0.8962  0.0928  0.2503
   18MOL   C122 2536   3.337   3.002   3.900  0.5954 -0.1980 -0.1452
   18MOL   O123 2537   3.215   2.862   3.754 -0.2205  0.1051  0.1143
   18MOL   H124 2538   3.412   2.824   3.810 -0.3371  0.8264  1.1777
   18MOL   H125 2539   3.291   3.096   3.873 -1.9637 -1.2039  0.5800
   18MOL   H126 2540   3.424   3.019   3.964  1.3556 -0.9034 -0.9702
   18MOL   H127 2541   3.265   2.955   3.967  0.0060  1.5516  0.4562
   18MOL   C128 2542   3.211   2.750   3.679  0.1412 -0.7795  0.8767
   18MOL   C129 2543   3.139   2.648   3.767 -0.2495  0.6892  0.0869
   18MOL   O130 2544   3.139   2.768   3.561 -0.1606 -0.3827 -0.1092
   18MOL   H131 2545   3.308   2.710   3.649  1.8718  2.9997  1.1223
   18MOL   H132 2546   3.045   2.681   3.811 -1.3442 -1.1065 -0.8395
   18MOL   H133 2547   3.210   2.619   3.844  0.4934 -2.4447 -1.6660
   18MOL   H134 2548   3.135   2.557   3.706 -0.8440  2.7129 -3.0327
   18MOL   C135 2549   3.204   2.822   3.453 -0.5808  0.5343  0.5872
   18MOL   C136 2550   3.112   2.798   3.332  0.7138  0.0801 -0.1052
   18MOL   O137 2551   3.226   2.959   3.464  0.1471 -0.4194  0.5911
   18MOL   H138 2552   3.302   2.777   3.438  0.9002  3.7517  0.0281
   18MOL   H139 2553   3.006   2.818   3.349  0.6288 -1.7389  1.7222
   18MOL   H140 2554   3.116   2.690   3.316 -1.7183 -0.3423  1.8114
   18MOL   H141 2555   3.150   2.847   3.242 -0.8727 -1.2083 -1.5118
   18MOL   H142 2556   3.271   2.969   3.546 -2.0733 -0.2811  1.8558
   19MOL     C1 2557   2.142   0.786   3.756 -0.2653  0.9643  0.3827
   19MOL     C2 2558   2.202   0.768   3.896  0.1658  0.1073  0.1649
   19MOL     O3 2559   2.045   0.893   3.764  0.3788  0.1895  0.0973
   19MOL     H4 2560   2.097   0.692   3.724 -1.0090  0.9625  1.4060
   19MOL     H5 2561   2.269   0.682   3.898  1.6343  1.2373  0.4693
   19MOL     H6 2562   2.127   0.760   3.975  0.1886  2.4707  0.4801
   19MOL     H7 2563   2.256   0.859   3.924 -0.1724  0.1385  0.7285
   19MOL     H8 2564   2.220   0.808   3.683 -0.5252  2.2027  0.4675
   19MOL     C9 2565   1.990   0.935   3.636 -0.3092 -0.5074 -0.8509
   19MOL    C10 2566   1.870   0.855   3.626  0.3318 -0.1840  0.6966
   19MOL    O11 2567   1.955   1.071   3.635  0.5007 -0.7167 -0.2068
   19MOL    H12 2568   2.073   0.925   3.565  0.8814  0.4234  0.3777
   19MOL    H13 2569   1.804   0.892   3.705 -1.7618 -0.3106 -0.9397
   19MOL    H14 2570   1.888   0.750   3.646  1.7163 -0.5322 -2.2127
   19MOL    H15 2571   1.830   0.871   3.526  4.1136  1.5752 -0.6132
   19MOL    C16 2572   2.046   1.153   3.688  0.1142 -0.3946  0.3207
   19MOL    C17 2573   2.081   1.244   3.568 -1.1263  0.1895 -0.1881
   19MOL    O18 2574   1.986   1.240   3.783 -0.0944  0.6125 -0.1828
   19MOL    H19 2575   2.131   1.105   3.738  0.0837  1.4231  2.1623
   19MOL    H20 2576   2.124   1.206   3.475 -0.8454  0.8258 -0.3223
   19MOL    H21 2577   2.155   1.317   3.602 -0.8587  0.5489 -1.4992
   19MOL    H22 2578   1.991   1.298   3.538  0.4072  2.1471 -1.4322
   19MOL    C23 2579   1.972   1.180   3.904 -0.0728  0.2207 -0.1028
   19MOL    C24 2580   2.071   1.237   4.010 -0.1120  0.2102  0.1937
   19MOL    O25 2581   1.839   1.202   3.963  0.2627 -0.0421 -0.1832
   19MOL    H26 2582   1.972   1.071   3.905 -0.5181  0.2187  0.1704
   19MOL    H27 2583   2.042   1.342   4.010 -1.9237 -0.2705 -0.9889
   19MOL    H28 2584   2.176   1.213   3.998 -0.4751 -1.4384  0.2553
   19MOL    H29 2585   2.044   1.199   4.108  1.7956 -1.2823  0.1669
   19MOL    C30 2586   1.735   1.150   3.887  0.4540  0.1070  0.0358
   19MOL    C31 2587   1.699   1.003   3.924 -0.9375 -0.8044 -0.3211
   19MOL    O32 2588   1.618   1.218   3.908 -0.3583 -0.0202 -0.6899
   19MOL    H33 2589   1.748   1.156   3.779 -0.0487 -1.0676 -0.1013
   19MOL    H34 2590   1.784   0.937   3.909 -0.9918 -1.0607  0.4818
   19MOL    H35 2591   1.622   0.970   3.854 -1.0289 -1.6383  0.1669
   19MOL    H36 2592   1.665   0.998   4.028  0.5190  0.3342  0.2205
   19MOL    C37 2593   1.605   1.345   3.858  0.3022  0.3281 -0.5522
   19MOL    C38 2594   1.469   1.348   3.796 -1.0898 -0.1837 -0.1499
   19MOL    O39 2595   1.594   1.445   3.955 -0.0071 -0.2146  0.0655
   19MOL    H40 2596   1.682   1.367   3.785 -1.3650  2.9250 -1.6350
   19MOL    H41 2597   1.397   1.287   3.850 -2.1094  0.4053 -0.8269
   19MOL    H42 2598   1.469   1.320   3.690 -1.5681  2.9989 -1.0386
   19MOL    H43 2599   1.443   1.454   3.799 -2.1996 -0.3822 -1.7240
   19MOL    C44 2600   1.710   1.499   3.999 -0.1924 -0.0786 -0.2359
   19MOL    C45 2601   1.716   1.642   3.941 -0.1833  0.7231  0.5450
   19MOL    O46 2602   1.703   1.517   4.138 -0.5139 -0.0252 -0.2004
   19MOL    H47 2603   1.797   1.437   3.976  0.4918  0.2130  1.4875
   19MOL    H48 2604   1.637   1.704   3.985 -1.6200 -0.8272  0.1855
   19MOL    H49 2605   1.699   1.652   3.833 -1.3165  2.5242  0.8543
   19MOL    H50 2606   1.817   1.683   3.952 -0.7685  2.5347 -0.4472
   19MOL    C51 2607   1.719   1.405   4.223 -0.4272 -0.0161  0.1308
   19MOL    C52 2608   1.833   1.419   4.312 -0.0223 -0.5347  0.0368
   19MOL    O53 2609   1.608   1.369   4.298  0.0316 -0.1625 -0.4104
   19MOL    H54 2610   1.732   1.322   4.153  0.3327 -2.1122  2.6843
   19MOL    H55 2611   1.920   1.448   4.253 -0.5187  3.1026  0.9511
   19MOL    H56 2612   1.858   1.332   4.373  2.0878  0.1700  0.2370
   19MOL    H57 2613   1.801   1.509   4.365 -1.0792 -1.0213  0.2466
   19MOL    C58 2614   1.493   1.319   4.228  0.0769 -0.2906  0.2561
   19MOL    C59 2615   1.479   1.167   4.264 -0.5141  0.2340  0.3193
   19MOL    O60 2616   1.374   1.379   4.269  0.4402  0.1284 -0.1436
   19MOL    H61 2617   1.515   1.324   4.122  2.4630  1.3731  0.7705
   19MOL    H62 2618   1.561   1.103   4.231  0.2319  0.9178  0.8144
   19MOL    H63 2619   1.386   1.125   4.226  0.6705 -0.9548 -1.3489
   19MOL    H64 2620   1.467   1.160   4.372  0.4937  1.1933  0.5070
   19MOL    C65 2621   1.360   1.506   4.217  0.0269 -0.0909  0.0148
   19MOL    C66 2622   1.229   1.500   4.140 -0.4549 -0.7022  0.3960
   19MOL    O67 2623   1.347   1.607   4.310  0.2025  0.1800 -0.1571
   19MOL    H68 2624   1.431   1.530   4.138 -0.3144 -1.5217 -0.7419
   19MOL    H69 2625   1.240   1.432   4.055  0.4668 -0.5434  0.3763
   19MOL    H70 2626   1.208   1.600   4.102  0.8727 -0.5494  0.0099
   19MOL    H71 2627   1.145   1.464   4.199 -0.7392 -2.6793 -1.1282
   19MOL    C72 2628   1.470   1.656   4.351  1.0661  0.8103 -0.0208
   19MOL    C73 2629   1.498   1.791   4.287 -0.6119  0.3500  0.7842
   19MOL    O74 2630   1.470   1.676   4.485  0.2282 -0.6417  0.6526
   19MOL    H75 2631   1.560   1.597   4.330 -0.1155 -0.0802 -2.8972
   19MOL    H76 2632   1.434   1.873   4.319 -0.9575  0.3853  0.0323
   19MOL    H77 2633   1.490   1.793   4.178 -1.1062  1.6145  0.8387
   19MOL    H78 2634   1.599   1.822   4.315 -0.3617  1.0897 -0.8563
   19MOL    C79 2635   1.462   1.555   4.561 -0.3822 -0.0739 -0.2840
   19MOL    C80 2636   1.591   1.528   4.634  0.1912  0.2249 -0.0126
   19MOL    O81 2637   1.359   1.566   4.653  0.0199  0.5792  0.4605
   19MOL    H82 2638   1.446   1.471   4.493 -2.3552  1.5027 -1.8271
   19MOL    H83 2639   1.584   1.425   4.668 -2.9052  0.2858 -0.3309
   19MOL    H84 2640   1.596   1.593   4.721 -2.6040 -2.0659  1.9475
   19MOL    H85 2641   1.681   1.554   4.578  1.6521 -1.2094  1.6265
   19MOL    C86 2642   1.228   1.553   4.593 -0.5338  0.3866  0.0639
   19MOL    C87 2643   1.182   1.409   4.629  0.5621  0.0287 -0.6339
   19MOL    O88 2644   1.124   1.629   4.655  0.5578  0.9022 -0.2281
   19MOL    H89 2645   1.217   1.577   4.487  0.5518 -0.9369 -0.3617
   19MOL    H90 2646   1.082   1.390   4.592 -0.1177  1.4458  0.4179
   19MOL    H91 2647   1.172   1.387   4.736  1.2666  1.1632 -0.3311
   19MOL    H92 2648   1.253   1.341   4.582 -0.4130 -1.1937 -0.3667
   19MOL    C93 2649   1.155   1.762   4.674  0.6306  0.0550  0.2617
   19MOL    C94 2650   1.101   1.845   4.558 -0.1182 -0.1500 -0.5651
   19MOL    O95 2651   1.116   1.811   4.801 -0.4450  0.0190 -0.2618
   19MOL    H96 2652   1.262   1.779   4.667  0.4209  1.5408  0.4967
   19MOL    H97 2653   1.132   1.798   4.465 -0.0923 -1.1336 -0.0645
   19MOL    H98 2654   1.147   1.944   4.555  0.8875 -0.5856  0.1380
   19MOL    H99 2655   0.993   1.860   4.552  0.1108  1.5124 -0.6670
   19MOL   C100 2656   1.172   1.735   4.906  0.2220 -0.0547 -0.0343
   19MOL   C101 2657   1.292   1.803   4.956 -0.4167  0.7155 -0.3707
   19MOL   O102 2658   1.085   1.729   5.010  0.1366  0.0468 -0.3373
   19MOL   H103 2659   1.192   1.631   4.879 -0.1415 -0.8656  2.6654
   19MOL   H104 2660   1.362   1.816   4.873 -0.5512 -0.6968 -0.7142
   19MOL   H105 2661   1.344   1.742   5.031 -2.8479 -0.0987  0.6893
   19MOL   H106 2662   1.272   1.898   5.005 -3.6930  0.4726 -1.1184
   19MOL   C107 2663   0.972   1.650   4.985  0.3845  0.4342  0.2537
   19MOL   C108 2664   1.003   1.496   5.006  0.4910 -0.1187  0.2693
   19MOL   O109 2665   0.864   1.681   5.071  0.3393  0.1841  0.5232
   19MOL   H110 2666   0.945   1.657   4.879  0.3535 -1.8761  0.0784
   19MOL   H111 2667   1.049   1.481   5.104 -1.3623  1.3737  1.3991
   19MOL   H112 2668   1.058   1.453   4.923  1.8822 -0.8040  1.5222
   19MOL   H113 2669   0.905   1.448   5.004 -1.0470  2.8849  1.5485
   19MOL   C114 2670   0.746   1.733   5.008 -0.4105 -0.6030 -0.4673
   19MOL   C115 2671   0.629   1.661   5.078  0.6144  0.2414 -0.0357
   19MOL   O116 2672   0.730   1.868   5.050  0.2208  0.0390  0.5330
   19MOL   H117 2673   0.744   1.715   4.901  0.4554 -1.3254 -0.3673
   19MOL   H118 2674   0.531   1.692   5.042  0.8771  0.2440 -0.7603
   19MOL   H119 2675   0.635   1.651   5.186 -0.5811  2.0833  0.2158
   19MOL   H120 2676   0.635   1.556   5.050  0.2701  0.1284  0.3266
   19MOL   C121 2677   0.823   1.959   4.996 -0.6833  0.2651  0.1785
   19MOL   C122 2678   0.759   2.026   4.876  0.1389 -0.4551 -0.1660
   19MOL   O123 2679   0.851   2.069   5.084  0.1384 -0.2986 -0.3829
   19MOL   H124 2680   0.922   1.915   4.982  0.0825  2.0302 -0.0463
   19MOL   H125 2681   0.708   1.961   4.806 -0.1502 -0.7584  0.3220
   19MOL   H126 2682   0.828   2.091   4.822 -2.2470  3.3454  1.1623
   19MOL   H127 2683   0.683   2.091   4.920 -0.9493  0.0075 -2.6840
   19MOL   C128 2684   0.911   2.023   5.205 -0.1232 -0.0287 -0.2877
   19MOL   C129 2685   1.062   2.056   5.195  0.1588 -0.2252 -0.0362
   19MOL   O130 2686   0.857   2.100   5.306  0.1415  0.3545 -0.3423
   19MOL   H131 2687   0.897   1.919   5.235  0.2820 -0.2445 -0.8418
   19MOL   H132 2688   1.120   2.032   5.285  2.1833  1.4124 -0.8511
   19MOL   H133 2689   1.069   2.163   5.178  1.1242  0.1283  2.3358
   19MOL   H134 2690   1.098   2.005   5.105  0.3885  1.5064 -0.9522
   19MOL   C135 2691   0.731   2.065   5.345  0.6552 -0.0449 -0.1391
   19MOL   C136 2692   0.697   2.154   5.473  0.0484 -0.5249 -0.1914
   19MOL   O137 2693   0.636   2.093   5.247  0.3142 -0.5473 -0.0190
   19MOL   H138 2694   0.718   1.961   5.378  1.4260  0.1529  0.7893
   19MOL   H139 2695   0.757   2.125   5.558 -2.1920  2.9528  2.7202
   19MOL   H140 2696   0.597   2.134   5.512 -1.2932  0.4616 -2.9937
   19MOL   H141 2697   0.715   2.261   5.460 -0.3166 -0.2110  1.7980
   19MOL   H142 2698   0.680   2.057   5.171 -0.8131  2.0129 -1.9698
   20MOL     C1 2699   2.968   5.517   6.562  0.2599  0.7465  0.5394
   20MOL     C2 2700   3.107   5.519   6.628  0.3347 -0.1075 -0.1809
   20MOL     O3 2701   2.984   5.546   6.426 -0.1563 -0.3990 -0.1256
   20MOL     H4 2702   2.904   5.597   6.598  0.0482  1.3516 -1.1138
   20MOL     H5 2703   3.155   5.613   6.602  1.2658 -0.4501  0.2730
   20MOL     H6 2704   3.161   5.432   6.590 -2.0638 -1.6504 -0.1645
   20MOL     H7 2705   3.100   5.521   6.737  0.2290  0.3201 -0.1973
   20MOL     H8 2706   2.922   5.423   6.592 -0.6158  1.9067  2.9375
   20MOL     C9 2707   2.897   5.489   6.344 -1.0720  0.1845 -0.0601
   20MOL    C10 2708   2.772   5.585   6.340 -0.4062 -0.4283  0.4239
   20MOL    O11 2709   2.946   5.493   6.215 -1.0920 -0.3753  0.0370
   20MOL    H12 2710   2.874   5.385   6.369  1.4382 -0.9681 -2.3636
   20MOL    H13 2711   2.804   5.686   6.315  1.5511 -0.6154  1.9898
   20MOL    H14 2712   2.718   5.598   6.434  1.3768  2.8247  1.0816
   20MOL    H15 2713   2.698   5.539   6.274 -1.3661  0.5566  0.8016
   20MOL    C16 2714   3.044   5.402   6.188  0.1772  0.2168 -0.1787
   20MOL    C17 2715   2.992   5.302   6.083 -0.3615 -0.4689  0.0841
   20MOL    O18 2716   3.148   5.475   6.125 -0.8683 -0.2810  0.4518
   20MOL    H19 2717   3.082   5.349   6.275 -0.1168  3.3866  1.9457
   20MOL    H20 2718   2.940   5.361   6.007  1.4581  2.5702  1.0914
   20MOL    H21 2719   2.917   5.239   6.130 -1.4279  1.4105  0.9707
   20MOL    H22 2720   3.080   5.249   6.047  0.1013  1.0517 -1.0826
   20MOL    C23 2721   3.200   5.579   6.200 -0.1355 -0.2479 -0.6555
   20MOL    C24 2722   3.310   5.524   6.293 -0.1465 -0.0019 -0.7306
   20MOL    O25 2723   3.264   5.674   6.121 -0.0277 -0.5896  0.8783
   20MOL    H26 2724   3.120   5.627   6.255 -0.5279 -1.9318  0.2816
   20MOL    H27 2725   3.338   5.610   6.354 -2.8405  0.9453 -0.7642
   20MOL    H28 2726   3.393   5.490   6.230 -0.2056  0.3141 -0.9825
   20MOL    H29 2727   3.276   5.446   6.359 -0.8606  1.2306  0.3815
   20MOL    C30 2728   3.174   5.734   6.029 -0.2277  1.1816  0.3822
   20MOL    C31 2729   3.159   5.882   6.074  0.0114  0.4235  0.2489
   20MOL    O32 2730   3.225   5.740   5.900 -0.8840  0.3747  0.0974
   20MOL    H33 2731   3.076   5.687   6.028 -1.4234  3.6131  0.3162
   20MOL    H34 2732   3.251   5.930   6.109  0.4497 -0.5742  0.4641
   20MOL    H35 2733   3.080   5.894   6.149 -2.9323  1.3764 -2.8761
   20MOL    H36 2734   3.138   5.949   5.991  1.4097  0.2606 -0.2484
   20MOL    C37 2735   3.279   5.626   5.849  0.1611  0.4308 -0.2061
   20MOL    C38 2736   3.167   5.531   5.793  0.2372  0.5448 -0.2456
   20MOL    O39 2737   3.359   5.671   5.741 -0.9217 -0.0563  0.3332
   20MOL    H40 2738   3.345   5.574   5.919  1.0686  1.5922 -0.1828
   20MOL    H41 2739   3.116   5.477   5.873  0.0934 -1.5851 -1.7581
   20MOL    H42 2740   3.197   5.458   5.719 -0.7988 -2.1169  1.8853
   20MOL    H43 2741   3.084   5.593   5.759  0.6437  1.7813  0.9361
   20MOL    C44 2742   3.476   5.604   5.724 -0.1966 -0.0647  0.7155
   20MOL    C45 2743   3.482   5.557   5.575  0.0339 -0.3436  0.1709
   20MOL    O46 2744   3.590   5.682   5.764 -0.1322  0.1159 -0.0979
   20MOL    H47 2745   3.471   5.507   5.772 -1.2802  0.0238  0.7722
   20MOL    H48 2746   3.473   5.642   5.508  1.7411 -0.0610  0.2874
   20MOL    H49 2747   3.401   5.487   5.553  1.5555 -1.3888 -2.2634
   20MOL    H50 2748   3.578   5.506   5.565 -0.1208 -0.4444 -0.8651
   20MOL    C51 2749   3.640   5.639   5.883  0.4904  0.2275  0.9193
   20MOL    C52 2750   3.765   5.563   5.850  0.0630  0.4772 -0.1723
   20MOL    O53 2751   3.687   5.748   5.955  0.8288 -0.3366 -0.1078
   20MOL    H54 2752   3.567   5.588   5.945 -0.0479 -0.2101 -0.0646
   20MOL    H55 2753   3.749   5.464   5.807  1.5234 -0.7733  2.0829
   20MOL    H56 2754   3.828   5.553   5.938  2.3038  2.2376 -1.5194
   20MOL    H57 2755   3.831   5.606   5.775 -1.7628  1.6954 -1.1331
   20MOL    C58 2756   3.580   5.826   6.003 -0.8290 -0.2829  0.0004
   20MOL    C59 2757   3.578   5.791   6.149 -0.1360 -0.4050  0.1927
   20MOL    O60 2758   3.592   5.967   5.993 -0.1420  0.0423  0.0863
   20MOL    H61 2759   3.483   5.807   5.956 -1.6100  2.1174  0.5517
   20MOL    H62 2760   3.588   5.683   6.165 -1.6602 -0.7506 -1.0732
   20MOL    H63 2761   3.488   5.833   6.194  1.1008  1.9312  0.5349
   20MOL    H64 2762   3.655   5.856   6.190 -0.3720  0.8576 -1.3139
   20MOL    C65 2763   3.574   6.017   5.866  0.3622 -0.5010 -0.5805
   20MOL    C66 2764   3.476   6.138   5.874  0.4477  0.4229  0.3537
   20MOL    O67 2765   3.693   6.065   5.819 -0.0441  0.4964  0.2146
   20MOL    H68 2766   3.533   5.941   5.799 -0.5737 -1.0200  0.5724
   20MOL    H69 2767   3.432   6.157   5.776  1.1036 -0.1795 -0.0642
   20MOL    H70 2768   3.520   6.231   5.909  0.2515  0.4450  0.5415
   20MOL    H71 2769   3.394   6.103   5.936  0.0312  0.6453 -0.0673
   20MOL    C72 2770   3.782   5.965   5.763  0.0799  0.2905  0.0562
   20MOL    C73 2771   3.777   5.982   5.614 -0.4258 -0.3682  0.2773
   20MOL    O74 2772   3.914   5.986   5.804 -0.3427  0.2239 -0.7201
   20MOL    H75 2773   3.751   5.860   5.771  1.4964 -0.1934 -0.6399
   20MOL    H76 2774   3.832   6.073   5.589 -1.0915 -0.4310 -1.4740
   20MOL    H77 2775   3.679   5.972   5.569  0.0846 -2.6038 -0.3992
   20MOL    H78 2776   3.833   5.899   5.571  0.8663  0.0019  1.1833
   20MOL    C79 2777   3.937   5.953   5.934  0.1747  0.5921 -0.0975
   20MOL    C80 2778   4.021   5.823   5.939  0.2752  0.3184 -0.1968
   20MOL    O81 2779   4.023   6.046   5.993 -0.2600  0.0970 -0.3898
   20MOL    H82 2780   3.845   5.932   5.988 -1.1313  0.3178 -2.4038
   20MOL    H83 2781   4.107   5.826   5.871 -0.5976 -0.2852 -1.3317
   20MOL    H84 2782   3.958   5.741   5.907 -0.7035  0.5334  1.1480
   20MOL    H85 2783   4.045   5.793   6.041  0.7950 -2.8207 -1.1844
   20MOL    C86 2784   3.965   6.162   6.033 -0.3049  0.9446 -0.4363
   20MOL    C87 2785   3.996   6.171   6.181  0.3915 -0.7144  0.4479
   20MOL    O88 2786   4.013   6.279   5.979  0.1948  0.6516 -0.0977
   20MOL    H89 2787   3.857   6.157   6.021 -0.4068  1.4674  0.2688
   20MOL    H90 2788   4.101   6.153   6.206  0.4785  0.5433  1.0041
   20MOL    H91 2789   3.931   6.106   6.241 -1.0762  0.1534 -0.1954
   20MOL    H92 2790   3.955   6.267   6.209 -0.5050 -0.8227 -0.4956
   20MOL    C93 2791   4.001   6.290   5.841 -0.0852 -0.1254  0.7326
   20MOL    C94 2792   3.926   6.422   5.805  0.5956 -0.6600 -0.2206
   20MOL    O95 2793   4.127   6.314   5.784  0.8776 -0.3120 -0.1194
   20MOL    H96 2794   3.944   6.212   5.791 -0.2439  0.9398 -0.7772
   20MOL    H97 2795   3.970   6.506   5.859  0.1045 -1.2431  1.1077
   20MOL    H98 2796   3.824   6.425   5.844  0.3279  3.2880 -0.9571
   20MOL    H99 2797   3.926   6.440   5.697 -3.3356 -0.1621 -0.2334
   20MOL   C100 2798   4.211   6.201   5.785 -0.2745 -0.2543 -0.5834
   20MOL   C101 2799   4.201   6.146   5.645 -0.2473 -0.0465  0.1994
   20MOL   O102 2800   4.346   6.231   5.810 -0.1357 -0.1717  0.2824
   20MOL   H103 2801   4.176   6.123   5.851 -1.5330  0.3520 -0.5244
   20MOL   H104 2802   4.244   6.046   5.638  2.5719  1.0793  1.1834
   20MOL   H105 2803   4.242   6.223   5.580  0.5428 -1.0380 -0.5039
   20MOL   H106 2804   4.096   6.119   5.631  0.4112 -0.8057 -3.9398
   20MOL   C107 2805   4.379   6.250   5.942 -0.8046 -0.6880 -0.9355
   20MOL   C108 2806   4.470   6.136   5.987 -0.3433 -0.2764  0.4955
   20MOL   O109 2807   4.460   6.361   5.962  0.0648 -0.9931 -0.2099
   20MOL   H110 2808   4.293   6.254   6.009  0.3511  0.7822  0.4904
   20MOL   H111 2809   4.559   6.118   5.926 -0.0462 -2.9797  1.6803
   20MOL   H112 2810   4.419   6.040   5.981  1.1689 -1.0148 -0.9962
   20MOL   H113 2811   4.500   6.151   6.091  2.0738  0.2044 -0.2331
   20MOL   C114 2812   4.386   6.477   5.931 -0.1091  0.1682 -0.1995
   20MOL   C115 2813   4.290   6.520   6.042 -0.1576  0.4001  0.3570
   20MOL   O116 2814   4.472   6.581   5.900  0.3480  0.6613  0.1714
   20MOL   H117 2815   4.325   6.458   5.843  0.7965 -0.0955 -0.7762
   20MOL   H118 2816   4.338   6.511   6.140  0.9598  0.9953 -0.1200
   20MOL   H119 2817   4.202   6.456   6.038 -0.3319  0.6063  0.8754
   20MOL   H120 2818   4.248   6.619   6.024 -2.1907 -0.8354 -2.0440
   20MOL   C121 2819   4.529   6.563   5.775  0.1800 -0.0913 -0.1568
   20MOL   C122 2820   4.472   6.676   5.682 -0.0093 -0.0479  0.2614
   20MOL   O123 2821   4.668   6.582   5.773 -0.4991  0.1400  0.0476
   20MOL   H124 2822   4.518   6.461   5.738  2.2921 -0.8540  1.2412
   20MOL   H125 2823   4.460   6.765   5.744  1.2629  0.7671 -0.6657
   20MOL   H126 2824   4.373   6.638   5.657 -0.6972 -0.5597  3.4640
   20MOL   H127 2825   4.538   6.693   5.597 -1.2136 -0.6520 -0.8086
   20MOL   C128 2826   4.744   6.477   5.835 -0.3861  0.5127  0.1109
   20MOL   C129 2827   4.839   6.419   5.729  0.1006  0.5260  0.2834
   20MOL   O130 2828   4.819   6.526   5.942 -0.6198  0.1455  0.3596
   20MOL   H131 2829   4.673   6.401   5.868 -0.4223  1.1447  1.5353
   20MOL   H132 2830   4.920   6.491   5.711  0.0780  0.4847  0.0192
   20MOL   H133 2831   4.782   6.403   5.638 -0.7561  1.5402  0.6265
   20MOL   H134 2832   4.874   6.325   5.770  0.9969  1.4428  1.6867
   20MOL   C135 2833   4.750   6.560   6.059 -0.4392 -0.1109  0.5518
   20MOL   C136 2834   4.849   6.552   6.169 -0.6325 -0.1494  0.0035
   20MOL   O137 2835   4.695   6.690   6.045  0.5205 -0.0143  0.2128
   20MOL   H138 2836   4.664   6.495   6.077 -0.5749 -0.0167  0.2417
   20MOL   H139 2837   4.944   6.599   6.143 -0.4799 -1.4584 -1.8920
   20MOL   H140 2838   4.872   6.449   6.198  2.4822  1.4067  3.4549
   20MOL   H141 2839   4.804   6.577   6.265  0.9284 -3.5608  1.6978
   20MOL   H142 2840   4.637   6.686   5.971  3.2278 -0.1148 -2.0096
   21MOL     C1 2841   7.369   5.233   4.550  0.2995  0.7518  0.8076
   21MOL     C2 2842   7.359   5.314   4.423  0.1466  0.0490 -0.3659
   21MOL     O3 2843   7.309   5.105   4.520 -0.1421  0.1343  0.1933
   21MOL     H4 2844   7.315   5.286   4.629 -1.3366 -1.2225  1.0572
   21MOL     H5 2845   7.258   5.328   4.384 -0.7224 -1.2937  1.3134
   21MOL     H6 2846   7.421   5.275   4.343  0.4913 -2.0885  0.9135
   21MOL     H7 2847   7.398   5.414   4.441  1.6062 -0.5960  0.0399
   21MOL     H8 2848   7.469   5.218   4.590  0.2227 -2.4513 -0.0436
   21MOL     C9 2849   7.182   5.083   4.581 -0.7719  0.6757  0.0312
   21MOL    C10 2850   7.089   5.025   4.477  0.2920  0.7003  0.6513
   21MOL    O11 2851   7.174   5.011   4.698  0.0874 -0.5502 -0.4275
   21MOL    H12 2852   7.146   5.179   4.617  0.9952  1.0553  0.8547
   21MOL    H13 2853   7.084   5.086   4.387 -1.0168  0.8099  0.7928
   21MOL    H14 2854   6.988   5.014   4.516 -0.3554 -3.3615 -1.9481
   21MOL    H15 2855   7.110   4.921   4.453 -0.8907  0.4388  0.7096
   21MOL    C16 2856   7.268   5.050   4.796 -0.6928 -0.0526 -0.4362
   21MOL    C17 2857   7.208   5.162   4.878  0.1140  0.2851 -0.4371
   21MOL    O18 2858   7.287   4.941   4.881 -0.5274  0.0363  0.3952
   21MOL    H19 2859   7.363   5.086   4.758 -0.1854 -0.6804  0.2279
   21MOL    H20 2860   7.285   5.195   4.948  0.2296  0.8831 -0.8439
   21MOL    H21 2861   7.130   5.115   4.938 -0.2822 -1.1338 -2.0253
   21MOL    H22 2862   7.169   5.248   4.823  1.7901  0.7805 -0.8807
   21MOL    C23 2863   7.364   4.841   4.821 -0.6721  0.6191  0.0178
   21MOL    C24 2864   7.509   4.848   4.881 -0.2769  0.4880 -0.8072
   21MOL    O25 2865   7.315   4.710   4.849  0.0336 -0.1879 -0.8509
   21MOL    H26 2866   7.361   4.848   4.712 -3.4451  3.2127  0.2096
   21MOL    H27 2867   7.537   4.953   4.880 -1.4630  0.8160 -0.8444
   21MOL    H28 2868   7.578   4.785   4.825  2.2578  1.9668  0.5938
   21MOL    H29 2869   7.519   4.830   4.988  0.2812 -0.8657 -1.0806
   21MOL    C30 2870   7.199   4.674   4.776 -0.0598  0.3620  0.3554
   21MOL    C31 2871   7.234   4.569   4.667  0.3543  0.1513 -0.0873
   21MOL    O32 2872   7.106   4.605   4.865 -0.8655 -0.3978  0.1465
   21MOL    H33 2873   7.148   4.758   4.729  0.9450  0.5129 -0.4887
   21MOL    H34 2874   7.296   4.492   4.713 -1.1924 -0.1099  1.6383
   21MOL    H35 2875   7.287   4.605   4.579  3.0080 -2.4521  0.3910
   21MOL    H36 2876   7.143   4.525   4.625  2.2184 -0.2365 -3.8848
   21MOL    C37 2877   7.028   4.694   4.945  0.3232 -0.1982 -0.1486
   21MOL    C38 2878   6.890   4.657   4.895  0.8730  0.0334  0.1245
   21MOL    O39 2879   7.038   4.640   5.069  0.1332 -0.2103 -0.7474
   21MOL    H40 2880   7.054   4.798   4.925  1.3313 -0.3560  0.3407
   21MOL    H41 2881   6.869   4.550   4.892 -0.7132  0.2809  1.5294
   21MOL    H42 2882   6.863   4.686   4.794  0.0175  1.8705  0.8702
   21MOL    H43 2883   6.815   4.702   4.960  1.6920 -0.0608  1.1494
   21MOL    C44 2884   7.151   4.686   5.141  0.8601 -0.2637 -0.4935
   21MOL    C45 2885   7.093   4.759   5.261 -0.0714 -0.1245 -0.2880
   21MOL    O46 2886   7.231   4.586   5.192  0.5725 -0.2619  0.0793
   21MOL    H47 2887   7.222   4.747   5.085 -1.6095  1.4588 -1.8356
   21MOL    H48 2888   7.036   4.685   5.317  0.3285  0.0112  0.3002
   21MOL    H49 2889   7.031   4.844   5.234  0.3520  0.3543  0.2378
   21MOL    H50 2890   7.167   4.793   5.333 -1.8319  1.8406  0.6168
   21MOL    C51 2891   7.313   4.515   5.106  0.2561 -0.6846  0.7362
   21MOL    C52 2892   7.457   4.559   5.137  0.2280 -0.0125  0.0658
   21MOL    O53 2893   7.301   4.380   5.137 -0.0483 -0.3873  0.0854
   21MOL    H54 2894   7.291   4.535   5.001  0.1512 -4.3043  0.0098
   21MOL    H55 2895   7.531   4.500   5.083 -0.4910  1.6960 -2.8870
   21MOL    H56 2896   7.484   4.550   5.242 -1.3208  2.1509  0.6787
   21MOL    H57 2897   7.463   4.666   5.122  4.3497  0.1416  1.9453
   21MOL    C58 2898   7.186   4.321   5.077 -0.1506 -0.0959  0.5535
   21MOL    C59 2899   7.232   4.230   4.966  0.3727 -0.2951 -0.2023
   21MOL    O60 2900   7.123   4.238   5.161 -0.1485 -0.3637 -0.4905
   21MOL    H61 2901   7.113   4.394   5.041 -0.0569 -1.2160 -2.0443
   21MOL    H62 2902   7.264   4.288   4.879 -1.7876  1.6147  0.2301
   21MOL    H63 2903   7.153   4.163   4.932  0.7680  0.2836 -2.3522
   21MOL    H64 2904   7.307   4.156   4.996  0.0567 -1.4019 -2.0660
   21MOL    C65 2905   7.062   4.298   5.269 -0.0187 -0.0783  0.2994
   21MOL    C66 2906   6.915   4.265   5.258  0.1291  0.1117  0.3348
   21MOL    O67 2907   7.116   4.239   5.386 -0.0703  0.2999 -0.0759
   21MOL    H68 2908   7.055   4.407   5.267  1.1133 -0.0014  0.1896
   21MOL    H69 2909   6.872   4.307   5.167  0.0610 -2.3830 -0.8113
   21MOL    H70 2910   6.871   4.303   5.350 -2.6634 -0.7415 -0.6266
   21MOL    H71 2911   6.897   4.158   5.251 -2.1057  0.3928  1.5497
   21MOL    C72 2912   7.209   4.320   5.448 -0.8358  0.4665 -0.1013
   21MOL    C73 2913   7.129   4.399   5.553 -0.1862  0.9035  0.3513
   21MOL    O74 2914   7.305   4.249   5.515 -0.4254 -0.3671 -0.1228
   21MOL    H75 2915   7.253   4.402   5.390  0.6802 -0.3993 -0.1840
   21MOL    H76 2916   7.046   4.457   5.513  1.4937  1.6709 -2.1963
   21MOL    H77 2917   7.187   4.470   5.613 -0.4260  2.5438 -1.3114
   21MOL    H78 2918   7.088   4.333   5.629 -1.2390 -0.5529 -1.4626
   21MOL    C79 2919   7.406   4.195   5.436  0.0229 -0.3136 -0.0870
   21MOL    C80 2920   7.539   4.248   5.503 -0.7096  0.1778 -0.1822
   21MOL    O81 2921   7.398   4.054   5.441 -0.1752  0.5897 -0.0346
   21MOL    H82 2922   7.399   4.237   5.336 -1.5886  0.6837  0.4196
   21MOL    H83 2923   7.555   4.210   5.604  0.2156 -0.7095 -0.6522
   21MOL    H84 2924   7.532   4.357   5.508  1.3990  0.3884 -1.1825
   21MOL    H85 2925   7.622   4.222   5.437 -0.6720  2.6760 -1.1799
   21MOL    C86 2926   7.330   3.996   5.337 -0.4356 -0.0943 -0.0463
   21MOL    C87 2927   7.426   3.932   5.233 -0.2879  0.4243 -0.1552
   21MOL    O88 2928   7.253   3.889   5.379  0.4777 -0.1253 -0.1017
   21MOL    H89 2929   7.261   4.061   5.283  2.1704  0.4971 -2.7613
   21MOL    H90 2930   7.494   4.011   5.203  0.3398 -0.4135 -0.9380
   21MOL    H91 2931   7.383   3.895   5.140  0.2755 -3.6350  1.1257
   21MOL    H92 2932   7.492   3.858   5.278  0.7593  1.4644  0.0382
   21MOL    C93 2933   7.142   3.914   5.460 -0.1128  0.5089 -0.2811
   21MOL    C94 2934   7.020   3.883   5.380 -1.0233  0.5959  0.5530
   21MOL    O95 2935   7.140   3.833   5.567 -0.0320  0.0261  0.3996
   21MOL    H96 2936   7.146   4.019   5.489 -0.7845  0.8297 -1.3268
   21MOL    H97 2937   7.030   3.925   5.280 -0.5491 -0.4767  0.1444
   21MOL    H98 2938   6.938   3.935   5.430 -2.7560 -0.3402 -1.2434
   21MOL    H99 2939   7.001   3.777   5.361 -2.2728  0.5978  1.7312
   21MOL   C100 2940   7.218   3.881   5.671 -0.6732 -0.2378 -0.1450
   21MOL   C101 2941   7.130   3.981   5.753 -0.5897  0.0514  0.1585
   21MOL   O102 2942   7.260   3.789   5.764 -0.4663 -0.3673 -0.1439
   21MOL   H103 2943   7.309   3.930   5.636 -0.5256 -0.9768 -0.8130
   21MOL   H104 2944   7.195   4.024   5.830 -1.1425  2.6796 -0.7947
   21MOL   H105 2945   7.047   3.925   5.795  0.2275 -1.0642  0.3064
   21MOL   H106 2946   7.102   4.067   5.692  2.2196  2.5014  2.1172
   21MOL   C107 2947   7.340   3.681   5.717  0.6649 -0.0085  0.3783
   21MOL   C108 2948   7.467   3.686   5.795  0.1155 -0.4122  0.0284
   21MOL   O109 2949   7.278   3.559   5.742 -0.1964  0.7161  0.6158
   21MOL   H110 2950   7.362   3.701   5.612 -0.4022  2.2653  0.5657
   21MOL   H111 2951   7.539   3.610   5.764  0.0982  0.5138 -2.3501
   21MOL   H112 2952   7.459   3.661   5.901 -0.7513 -2.6402 -0.5234
   21MOL   H113 2953   7.499   3.790   5.789  0.5521 -0.5958 -1.0098
   21MOL   C114 2954   7.199   3.512   5.641  0.4458 -0.3554  0.1371
   21MOL   C115 2955   7.266   3.373   5.590  1.0512 -0.3770  0.0868
   21MOL   O116 2956   7.070   3.476   5.682 -0.3065 -0.7021 -0.8802
   21MOL   H117 2957   7.182   3.585   5.562  0.5834 -1.8669 -1.3130
   21MOL   H118 2958   7.206   3.331   5.509  1.5750 -1.2325  0.1355
   21MOL   H119 2959   7.274   3.315   5.682  0.2172  0.2781  0.5739
   21MOL   H120 2960   7.361   3.400   5.544  0.2183  3.0990  0.3326
   21MOL   C121 2961   7.002   3.574   5.746  0.1347  0.5042 -0.6711
   21MOL   C122 2962   6.869   3.605   5.666 -0.4697 -0.8143  1.1159
   21MOL   O123 2963   6.954   3.530   5.868  0.2912  0.3534  0.3650
   21MOL   H124 2964   7.056   3.668   5.761  2.1787 -0.4760 -1.6365
   21MOL   H125 2965   6.839   3.508   5.627 -0.4808 -0.1596 -0.5271
   21MOL   H126 2966   6.901   3.660   5.578 -1.2265 -2.0890  0.0301
   21MOL   H127 2967   6.791   3.658   5.721  0.4389  0.5174  1.1457
   21MOL   C128 2968   7.037   3.553   5.983  0.3096  0.4048  0.1684
   21MOL   C129 2969   6.969   3.649   6.071 -0.2936  0.5339 -0.0117
   21MOL   O130 2970   7.065   3.432   6.051  0.3569 -0.1667 -0.1876
   21MOL   H131 2971   7.132   3.594   5.949  1.2830 -0.8093  1.3414
   21MOL   H132 2972   6.873   3.605   6.097  1.0160 -1.5608  1.3715
   21MOL   H133 2973   6.948   3.739   6.012 -0.1325 -0.9385 -2.4072
   21MOL   H134 2974   7.024   3.669   6.163 -0.1061  1.2030 -0.2667
   21MOL   C135 2975   7.140   3.333   5.987 -0.2543 -0.2646  0.3204
   21MOL   C136 2976   7.196   3.232   6.087  0.4117  0.2273  0.0853
   21MOL   O137 2977   7.060   3.266   5.879  0.4928 -0.4247 -0.5118
   21MOL   H138 2978   7.219   3.390   5.937 -0.0901  1.8488  2.8573
   21MOL   H139 2979   7.269   3.173   6.033 -0.1301 -1.0819  0.7432
   21MOL   H140 2980   7.118   3.175   6.139  3.3402 -3.9132  0.1792
   21MOL   H141 2981   7.244   3.290   6.166 -1.8863  0.8712  1.0677
   21MOL   H142 2982   7.028   3.330   5.817  0.9710  0.1074 -0.2046
   22MOL     C1 2983   2.844   6.016   2.901  0.1866  0.3262 -0.1335
   22MOL     C2 2984   2.755   6.067   3.015  0.6512 -0.4972 -0.5317
   22MOL     O3 2985   2.960   6.100   2.884  0.6470  0.2897 -0.2863
   22MOL     H4 2986   2.776   6.024   2.815 -1.3008 -1.7961  0.8097
   22MOL     H5 2987   2.802   6.076   3.113 -0.9989 -0.1363  0.2373
   22MOL     H6 2988   2.662   6.012   3.026  0.0505  0.9997  2.2888
   22MOL     H7 2989   2.731   6.172   3.001  3.4743 -0.0051 -2.1268
   22MOL     H8 2990   2.878   5.914   2.918  3.5886  1.2013 -1.3214
   22MOL     C9 2991   3.022   6.086   2.762 -0.2930  0.0790 -0.9227
   22MOL    C10 2992   3.006   6.214   2.682  0.3692  0.2495  0.7315
   22MOL    O11 2993   3.160   6.072   2.774  0.1587  0.1838  0.9266
   22MOL    H12 2994   2.983   5.998   2.710 -0.7306 -0.9143  1.0404
   22MOL    H13 2995   2.917   6.202   2.620  0.8489  0.1525  0.0600
   22MOL    H14 2996   3.094   6.242   2.625 -1.1183  0.4964 -1.5067
   22MOL    H15 2997   2.990   6.293   2.754 -1.3053 -1.3196  2.1317
   22MOL    C16 2998   3.201   5.963   2.859  0.7163  0.1696 -0.1693
   22MOL    C17 2999   3.217   5.847   2.764 -0.2015  0.2928  0.0493
   22MOL    O18 3000   3.322   5.997   2.913 -0.0718  0.2474 -0.2465
   22MOL    H19 3001   3.132   5.947   2.941  0.0827  0.2697 -0.6819
   22MOL    H20 3002   3.123   5.820   2.716  0.5224 -1.0533 -0.6076
   22MOL    H21 3003   3.254   5.764   2.823 -0.7111 -0.2800 -0.4344
   22MOL    H22 3004   3.284   5.870   2.681 -1.3499 -0.5515 -1.1454
   22MOL    C23 3005   3.307   6.092   3.014 -0.9264  0.4559  0.8866
   22MOL    C24 3006   3.325   6.029   3.154 -0.2026 -0.4942 -0.1929
   22MOL    O25 3007   3.412   6.182   2.999 -0.4097 -0.3032 -0.2597
   22MOL    H26 3008   3.214   6.148   3.003 -1.6725 -1.1034 -0.9376
   22MOL    H27 3009   3.319   6.107   3.229  2.5848 -0.1391 -0.2783
   22MOL    H28 3010   3.420   5.976   3.162 -0.5905 -1.0641  0.6844
   22MOL    H29 3011   3.252   5.953   3.179 -0.8532  0.8701  2.1152
   22MOL    C30 3012   3.412   6.240   2.874  0.1478  0.3372 -0.0913
   22MOL    C31 3013   3.371   6.387   2.898 -0.1292 -0.6953 -0.7304
   22MOL    O32 3014   3.544   6.250   2.830 -0.6578  0.0007 -0.3508
   22MOL    H33 3015   3.363   6.195   2.788 -0.9515 -0.6022  0.9955
   22MOL    H34 3016   3.416   6.435   2.984 -0.8474 -1.1867 -0.0807
   22MOL    H35 3017   3.263   6.396   2.900  0.0000  1.1517 -1.1667
   22MOL    H36 3018   3.383   6.448   2.808  1.7756  1.8249  1.1474
   22MOL    C37 3019   3.591   6.135   2.763 -0.5770 -0.8346  0.5253
   22MOL    C38 3020   3.580   6.169   2.615 -0.2786  0.1973  0.2254
   22MOL    O39 3021   3.724   6.116   2.801  0.6458  0.3372  0.6280
   22MOL    H40 3022   3.533   6.043   2.768 -1.4094 -0.3662 -0.4636
   22MOL    H41 3023   3.618   6.080   2.566 -1.4442 -0.1047 -0.1460
   22MOL    H42 3024   3.648   6.251   2.593  0.8111 -0.4384  1.2216
   22MOL    H43 3025   3.475   6.178   2.585  0.4685 -0.1172 -2.5791
   22MOL    C44 3026   3.726   6.036   2.914 -0.2149 -0.0511  0.6991
   22MOL    C45 3027   3.771   5.891   2.877  0.2352  0.3315  0.3609
   22MOL    O46 3028   3.811   6.081   3.007 -0.1635 -0.1049 -0.3365
   22MOL    H47 3029   3.632   6.025   2.968 -0.9263  1.0549 -0.3188
   22MOL    H48 3030   3.790   5.831   2.966  0.3798 -0.1413  0.0140
   22MOL    H49 3031   3.860   5.889   2.814 -1.3212 -1.5068 -1.8543
   22MOL    H50 3032   3.694   5.841   2.818 -0.4101  0.1845  1.3307
   22MOL    C51 3033   3.763   6.191   3.084  0.1096 -0.0485  0.6844
   22MOL    C52 3034   3.764   6.156   3.235 -0.8065  0.3427  0.4897
   22MOL    O53 3035   3.849   6.295   3.070 -0.0961 -0.5043 -0.7131
   22MOL    H54 3036   3.663   6.232   3.077 -0.0789 -0.8646 -1.6236
   22MOL    H55 3037   3.859   6.121   3.276 -0.6140 -0.1061 -0.3294
   22MOL    H56 3038   3.709   6.062   3.244  0.5705 -1.1723 -4.8089
   22MOL    H57 3039   3.726   6.242   3.290 -0.4998  2.5758 -2.6734
   22MOL    C58 3040   3.809   6.392   2.979 -0.3697  0.3762 -0.4805
   22MOL    C59 3041   3.735   6.508   3.055  0.3482  0.8898 -0.0440
   22MOL    O60 3042   3.926   6.438   2.921  0.2641  0.1740 -0.1817
   22MOL    H61 3043   3.751   6.359   2.892  0.0405 -0.4391 -0.4419
   22MOL    H62 3044   3.668   6.476   3.135 -0.1330 -1.7319 -1.4658
   22MOL    H63 3045   3.681   6.561   2.977 -0.1957  1.8372  0.9449
   22MOL    H64 3046   3.805   6.581   3.097  0.0911  1.0330  0.1378
   22MOL    C65 3047   3.983   6.354   2.822 -0.1546 -0.1897 -1.1290
   22MOL    C66 3048   3.971   6.426   2.685 -0.3978 -0.2983 -0.1136
   22MOL    O67 3049   4.117   6.335   2.841 -0.3259  0.5364 -0.8614
   22MOL    H68 3050   3.930   6.259   2.816 -1.6120  0.5335 -0.0596
   22MOL    H69 3051   4.011   6.365   2.605  2.2729  0.5385  0.5243
   22MOL    H70 3052   4.017   6.525   2.683 -1.5874  0.2363 -2.6832
   22MOL    H71 3053   3.863   6.441   2.681 -0.3211  0.4536  0.4529
   22MOL    C72 3054   4.146   6.250   2.950 -0.7988 -0.3023  0.8320
   22MOL    C73 3055   4.216   6.135   2.886  0.0028  0.2034  0.3472
   22MOL    O74 3056   4.241   6.308   3.030  0.1572  0.2312 -0.1922
   22MOL    H75 3057   4.063   6.209   3.007 -0.7661 -0.8740  0.4669
   22MOL    H76 3058   4.240   6.055   2.956 -2.0541  0.0269  0.8993
   22MOL    H77 3059   4.316   6.160   2.851 -0.5079  1.8856  0.0303
   22MOL    H78 3060   4.150   6.084   2.816  0.5952  2.8238 -2.2013
   22MOL    C79 3061   4.186   6.395   3.130 -0.0184  0.1323  1.2822
   22MOL    C80 3062   4.177   6.332   3.270 -0.7526 -0.1010 -0.1996
   22MOL    O81 3063   4.260   6.519   3.141  0.6814  0.5325  0.2232
   22MOL    H82 3064   4.088   6.431   3.097 -0.0671 -2.9876 -2.3875
   22MOL    H83 3065   4.126   6.236   3.258  0.2589 -0.4495 -1.8153
   22MOL    H84 3066   4.122   6.400   3.335  1.7463  0.8731  0.9500
   22MOL    H85 3067   4.279   6.312   3.303 -0.2201  1.7566 -0.6492
   22MOL    C86 3068   4.238   6.616   3.044  0.3982  0.0448 -0.6753
   22MOL    C87 3069   4.195   6.738   3.113  0.6233  0.3092 -0.9579
   22MOL    O88 3070   4.351   6.649   2.972 -0.0575  0.3875 -0.1508
   22MOL    H89 3071   4.163   6.579   2.975  0.1532 -2.9988  1.0972
   22MOL    H90 3072   4.242   6.744   3.211 -1.4720  0.8505  0.0507
   22MOL    H91 3073   4.090   6.738   3.141  0.6789 -0.5589 -0.7378
   22MOL    H92 3074   4.205   6.828   3.053  0.8507  1.0151  0.1343
   22MOL    C93 3075   4.375   6.560   2.867 -0.4118 -0.3623 -0.6374
   22MOL    C94 3076   4.336   6.647   2.744  0.4953  0.3102  0.4676
   22MOL    O95 3077   4.512   6.524   2.857  0.2564  0.1272 -0.1023
   22MOL    H96 3078   4.328   6.461   2.873  1.3817 -1.2978 -1.5649
   22MOL    H97 3079   4.352   6.591   2.652 -0.1907 -1.1134  1.1987
   22MOL    H98 3080   4.399   6.736   2.739 -0.5291  0.9422 -1.5235
   22MOL    H99 3081   4.233   6.682   2.737  0.1511 -0.6468  0.7982
   22MOL   C100 3082   4.555   6.435   2.960 -0.2630  0.3700 -0.8366
   22MOL   C101 3083   4.595   6.297   2.899  0.4208 -0.1638  0.0000
   22MOL   O102 3084   4.673   6.481   3.020 -0.5071 -0.4644  0.5755
   22MOL   H103 3085   4.478   6.416   3.035  0.3540 -0.6314 -0.4523
   22MOL   H104 3086   4.667   6.308   2.818  2.4265 -0.7549  1.6603
   22MOL   H105 3087   4.498   6.255   2.872  1.2245 -0.8753 -1.8169
   22MOL   H106 3088   4.638   6.228   2.971  0.9628  0.7886  0.6128
   22MOL   C107 3089   4.665   6.606   3.080 -0.6596 -0.1216  0.2307
   22MOL   C108 3090   4.684   6.575   3.229 -0.0521 -0.5192 -0.6147
   22MOL   O109 3091   4.758   6.690   3.041 -0.5279 -0.9066 -0.0666
   22MOL   H110 3092   4.573   6.662   3.064  1.3296  3.2776  0.1014
   22MOL   H111 3093   4.607   6.507   3.265 -0.3503  0.5451  0.8223
   22MOL   H112 3094   4.690   6.667   3.287 -0.4719 -0.8066 -0.1097
   22MOL   H113 3095   4.780   6.525   3.246  0.0448 -0.3142 -0.5564
   22MOL   C114 3096   4.755   6.724   2.911  0.3746 -0.1694  0.0183
   22MOL   C115 3097   4.678   6.856   2.885  0.2532 -0.4007 -0.7248
   22MOL   O116 3098   4.886   6.743   2.867  0.3398 -0.0558  0.0773
   22MOL   H117 3099   4.714   6.651   2.840 -0.0853  0.7701 -0.6900
   22MOL   H118 3100   4.713   6.937   2.949 -0.2376 -1.1288  0.4827
   22MOL   H119 3101   4.573   6.833   2.906  0.2590 -0.2115 -0.4858
   22MOL   H120 3102   4.669   6.889   2.782  0.4116  0.7395 -0.3841
   22MOL   C121 3103   4.965   6.633   2.873  0.5289 -0.5178 -0.1119
   22MOL   C122 3104   4.935   6.545   2.755 -0.5205 -0.3542  0.3106
   22MOL   O123 3105   5.097   6.671   2.873 -0.2102  0.3962 -0.3030
   22MOL   H124 3106   4.950   6.579   2.966  0.6865 -2.0614 -0.9732
   22MOL   H125 3107   4.994   6.454   2.761  0.6883  0.4046  0.0374
   22MOL   H126 3108   4.968   6.597   2.665  0.1982 -3.0247 -1.0351
   22MOL   H127 3109   4.829   6.518   2.761 -0.8159  1.0330  1.4843
   22MOL   C128 3110   5.137   6.735   2.994  0.8113  0.1019 -0.6116
   22MOL   C129 3111   5.203   6.633   3.086 -1.0001  0.3144  0.1068
   22MOL   O130 3112   5.233   6.829   2.963  0.0463 -0.5002  0.3876
   22MOL   H131 3113   5.056   6.788   3.045  1.0230 -0.1663  0.0065
   22MOL   H132 3114   5.253   6.682   3.169  0.7993 -0.6834 -0.3572
   22MOL   H133 3115   5.270   6.575   3.023 -1.9619 -1.0358  0.3029
   22MOL   H134 3116   5.126   6.567   3.127 -0.7015  0.1461  0.3960
   22MOL   C135 3117   5.182   6.934   2.878 -0.8475  0.4014 -0.0856
   22MOL   C136 3118   5.115   7.045   2.969 -0.2567  0.2211 -0.3617
   22MOL   O137 3119   5.291   6.996   2.806 -0.2179  0.0249  0.3797
   22MOL   H138 3120   5.116   6.896   2.800  0.5872 -0.6322 -0.7991
   22MOL   H139 3121   5.076   7.128   2.912  0.6256  2.2671  1.9240
   22MOL   H140 3122   5.197   7.075   3.034 -0.1649 -2.2890  0.7671
   22MOL   H141 3123   5.034   7.004   3.030  1.5199 -0.1997  1.7818
   22MOL   H142 3124   5.327   6.922   2.760 -1.2343 -0.8787  1.0025
   23MOL     C1 3125   3.319   2.611   2.596 -0.8473 -0.4708 -0.0156
   23MOL     C2 3126   3.428   2.600   2.696 -0.3604 -0.4471 -0.0603
   23MOL     O3 3127   3.336   2.739   2.539  0.6308 -0.3111  0.1005
   23MOL     H4 3128   3.226   2.591   2.650  0.1760 -0.0744  1.9278
   23MOL     H5 3129   3.518   2.641   2.652 -0.4290  0.3663  0.5363
   23MOL     H6 3130   3.448   2.500   2.734 -1.5393 -0.2799  1.0539
   23MOL     H7 3131   3.406   2.660   2.785 -1.2474  0.3428 -0.7902
   23MOL     H8 3132   3.327   2.532   2.521 -0.8480 -0.1492 -0.3622
   23MOL     C9 3133   3.291   2.758   2.401 -0.0436  0.4105 -0.5658
   23MOL    C10 3134   3.400   2.708   2.308 -0.2279  0.5733 -0.0831
   23MOL    O11 3135   3.167   2.700   2.372 -0.7846  0.1994 -0.1321
   23MOL    H12 3136   3.282   2.866   2.400 -0.7135  0.3536 -0.7231
   23MOL    H13 3137   3.494   2.756   2.335 -1.1512  1.0820  2.3443
   23MOL    H14 3138   3.359   2.740   2.212 -2.0084 -0.7187  0.2100
   23MOL    H15 3139   3.410   2.600   2.299  3.1181  0.8116  0.4336
   23MOL    C16 3140   3.063   2.740   2.459 -0.0904 -0.4206  0.1658
   23MOL    C17 3141   3.027   2.883   2.434  0.3017  0.1424  0.6394
   23MOL    O18 3142   2.954   2.658   2.430 -0.1885  0.0810  0.1822
   23MOL    H19 3143   3.087   2.730   2.564 -0.3704  0.5478  0.3283
   23MOL    H20 3144   2.933   2.904   2.486  0.4187  0.0386  0.8942
   23MOL    H21 3145   3.018   2.909   2.329  1.1281  0.5450  0.6630
   23MOL    H22 3146   3.100   2.954   2.471 -0.3504  1.2354 -0.1531
   23MOL    C23 3147   2.963   2.531   2.480  0.3066  0.0559 -0.6821
   23MOL    C24 3148   2.902   2.529   2.629  0.3161 -0.1851 -0.1909
   23MOL    O25 3149   2.888   2.443   2.404  0.0126 -0.3911 -0.2094
   23MOL    H26 3150   3.064   2.495   2.501  0.6086  2.1757  1.8526
   23MOL    H27 3151   2.918   2.432   2.677 -1.3455 -0.8224 -0.8520
   23MOL    H28 3152   2.796   2.556   2.626  0.5192  0.6501  0.1346
   23MOL    H29 3153   2.948   2.607   2.689 -1.0547 -0.8365  1.7531
   23MOL    C30 3154   2.954   2.411   2.286  0.1497  0.6447  0.6171
   23MOL    C31 3155   2.961   2.256   2.281  0.1611 -0.6938 -0.0323
   23MOL    O32 3156   2.878   2.435   2.170  0.3230 -0.0950 -0.2301
   23MOL    H33 3157   3.058   2.442   2.280  0.1106  0.6099 -0.4703
   23MOL    H34 3158   3.036   2.219   2.351  0.3517  0.0043  0.1464
   23MOL    H35 3159   2.982   2.220   2.180  0.3419 -1.8854  0.4349
   23MOL    H36 3160   2.859   2.222   2.296 -0.0882 -0.9607 -2.1073
   23MOL    C37 3161   2.884   2.568   2.127  0.0809 -0.0587 -0.3974
   23MOL    C38 3162   2.958   2.566   1.993  0.4494  0.1526  0.0492
   23MOL    O39 3163   2.755   2.615   2.111  0.3070 -0.0005 -0.4156
   23MOL    H40 3164   2.939   2.628   2.200 -1.2259 -0.7799  1.2380
   23MOL    H41 3165   2.986   2.662   1.951  1.9541  0.0021  0.6531
   23MOL    H42 3166   2.911   2.502   1.918 -1.5251 -0.5403  1.8245
   23MOL    H43 3167   3.053   2.514   2.006 -0.5244 -1.3993  1.0780
   23MOL    C44 3168   2.686   2.653   2.229  0.6864  0.3927 -0.3045
   23MOL    C45 3169   2.683   2.805   2.236 -0.0515  0.4727 -0.1825
   23MOL    O46 3170   2.547   2.617   2.222 -0.0658 -0.2171  0.0212
   23MOL    H47 3171   2.735   2.598   2.308 -0.7008 -3.2959 -1.9008
   23MOL    H48 3172   2.643   2.853   2.147 -0.9775  1.0591  0.5297
   23MOL    H49 3173   2.785   2.834   2.258  0.2041 -0.2010 -0.4798
   23MOL    H50 3174   2.613   2.833   2.316  0.3559 -0.1069  0.3767
   23MOL    C51 3175   2.529   2.480   2.244  0.2339 -0.2327 -0.3485
   23MOL    C52 3176   2.508   2.444   2.389  0.1039 -0.2060 -0.4412
   23MOL    O53 3177   2.424   2.427   2.170 -0.0724  0.3699 -0.3246
   23MOL    H54 3178   2.618   2.427   2.211  0.4391 -1.0523  1.4717
   23MOL    H55 3179   2.586   2.481   2.455  1.3498 -1.9598 -0.8809
   23MOL    H56 3180   2.497   2.336   2.399 -0.7980 -0.1002 -0.1966
   23MOL    H57 3181   2.414   2.492   2.418 -0.2358  0.0111 -1.8590
   23MOL    C58 3182   2.442   2.420   2.030 -0.3686 -0.1682  0.2521
   23MOL    C59 3183   2.546   2.313   1.990 -0.5692 -0.1283  0.1939
   23MOL    O60 3184   2.314   2.386   1.970 -0.2313 -0.1091 -0.1083
   23MOL    H61 3185   2.470   2.515   1.985  0.5823  0.4646  2.1294
   23MOL    H62 3186   2.523   2.221   2.044 -0.3144 -0.6784 -0.6263
   23MOL    H63 3187   2.647   2.347   2.012 -1.6225  2.0552  1.8695
   23MOL    H64 3188   2.538   2.282   1.885 -0.9526  3.8832 -1.0559
   23MOL    C65 3189   2.213   2.484   1.980 -0.7556  0.4380 -0.7615
   23MOL    C66 3190   2.202   2.559   1.848  0.1209 -0.2666  0.0216
   23MOL    O67 3191   2.090   2.423   2.012  0.0970 -0.1740  0.0527
   23MOL    H68 3192   2.228   2.559   2.058 -2.1246  0.4155 -0.4699
   23MOL    H69 3193   2.290   2.623   1.842  0.1812 -0.4625 -1.4363
   23MOL    H70 3194   2.109   2.615   1.854 -0.4826 -1.3159  0.6604
   23MOL    H71 3195   2.194   2.486   1.768  0.6509  0.3878 -0.6320
   23MOL    C72 3196   2.083   2.390   2.148  0.7807  0.7725 -0.0971
   23MOL    C73 3197   1.979   2.478   2.213  0.2326  0.1459  0.1697
   23MOL    O74 3198   2.040   2.261   2.169  0.7070  0.3559  0.2110
   23MOL    H75 3199   2.179   2.399   2.199  0.8300  1.0044 -0.2248
   23MOL    H76 3200   2.019   2.578   2.199  1.3458 -0.3942 -0.6163
   23MOL    H77 3201   1.970   2.438   2.314 -0.6012 -1.5561 -0.5595
   23MOL    H78 3202   1.883   2.464   2.164  0.1926  0.1827  0.2373
   23MOL    C79 3203   2.135   2.161   2.137 -0.3715  0.1312  0.4365
   23MOL    C80 3204   2.189   2.098   2.267 -0.0953 -0.3821 -0.4473
   23MOL    O81 3205   2.081   2.061   2.047 -0.2723  0.3334  0.3782
   23MOL    H82 3206   2.221   2.204   2.087 -1.5291  0.0691 -1.6774
   23MOL    H83 3207   2.247   2.175   2.318  0.4633 -0.8542 -0.3577
   23MOL    H84 3208   2.254   2.017   2.234 -1.2393 -1.3012 -0.4472
   23MOL    H85 3209   2.111   2.060   2.332  0.6666 -2.6406 -0.8025
   23MOL    C86 3210   2.074   2.093   1.911 -0.0515 -0.2957 -0.4053
   23MOL    C87 3211   2.165   2.000   1.833  0.1377 -0.0803 -0.1922
   23MOL    O88 3212   1.944   2.091   1.863  0.1982  0.1309 -0.4791
   23MOL    H89 3213   2.114   2.193   1.892 -0.2941  0.0187  0.7225
   23MOL    H90 3214   2.268   2.021   1.863  0.2781  0.5933 -1.1284
   23MOL    H91 3215   2.156   2.020   1.727  1.0039  0.2382 -0.2107
   23MOL    H92 3216   2.138   1.895   1.842  1.5775 -0.5311 -1.1439
   23MOL    C93 3217   1.865   2.197   1.891 -0.6625 -0.0653  0.6507
   23MOL    C94 3218   1.842   2.265   1.752  0.8170  0.4793  0.4649
   23MOL    O95 3219   1.738   2.151   1.926 -0.1531 -0.1657 -0.1386
   23MOL    H96 3220   1.904   2.262   1.969  2.8108 -1.1691 -0.0402
   23MOL    H97 3221   1.936   2.290   1.702 -1.2094  2.3841 -2.5096
   23MOL    H98 3222   1.782   2.354   1.769  0.3795  0.5444 -1.3355
   23MOL    H99 3223   1.787   2.197   1.686  1.7781 -0.3484  0.5023
   23MOL   C100 3224   1.734   2.118   2.061  0.2194  0.2764 -0.3018
   23MOL   C101 3225   1.628   2.204   2.121  1.0386 -0.2656  0.4272
   23MOL   O102 3226   1.684   1.990   2.067  0.3740  0.5411  0.0718
   23MOL   H103 3227   1.827   2.125   2.117 -1.0325 -0.6677  1.9489
   23MOL   H104 3228   1.533   2.188   2.069  0.8395  1.0918  0.3365
   23MOL   H105 3229   1.656   2.309   2.111  0.7688 -0.1468  0.9109
   23MOL   H106 3230   1.610   2.174   2.224  1.1599  1.5014  0.9757
   23MOL   C107 3231   1.768   1.878   2.051  0.3532  1.2378 -0.1471
   23MOL   C108 3232   1.846   1.854   2.179 -0.0249 -0.3432  0.0391
   23MOL   O109 3233   1.700   1.758   2.025 -0.0882 -0.2906 -0.3089
   23MOL   H110 3234   1.837   1.892   1.968 -0.4662 -1.5133 -1.3465
   23MOL   H111 3235   1.911   1.770   2.155  0.6825 -0.1600  1.2633
   23MOL   H112 3236   1.787   1.831   2.267  0.0328  0.7524  0.3759
   23MOL   H113 3237   1.911   1.936   2.209  2.2690 -1.6601 -1.1831
   23MOL   C114 3238   1.683   1.738   1.885 -0.2714  0.1346  0.0176
   23MOL   C115 3239   1.810   1.662   1.845  0.4931  0.7812  0.6607
   23MOL   O116 3240   1.574   1.650   1.864  0.2165  0.0647 -0.3353
   23MOL   H117 3241   1.666   1.830   1.829  1.9912 -0.7441 -2.1907
   23MOL   H118 3242   1.808   1.562   1.888 -0.9339  0.6077  0.2210
   23MOL   H119 3243   1.908   1.705   1.868  0.5796 -0.2133  2.2801
   23MOL   H120 3244   1.813   1.662   1.737 -2.2737  2.0054  0.5484
   23MOL   C121 3245   1.455   1.719   1.881  0.3234  0.1662  0.3217
   23MOL   C122 3246   1.396   1.742   1.744 -0.0111 -0.1291  0.1523
   23MOL   O123 3247   1.364   1.644   1.953 -0.1760 -0.4595 -0.2400
   23MOL   H124 3248   1.458   1.816   1.930 -0.3654  0.1068  0.4774
   23MOL   H125 3249   1.304   1.800   1.754  0.5255  0.6748  0.4277
   23MOL   H126 3250   1.383   1.643   1.700  1.5417 -1.0029  1.6232
   23MOL   H127 3251   1.472   1.799   1.690 -0.7392  1.4485  0.7536
   23MOL   C128 3252   1.383   1.653   2.092 -0.1037  0.1235  0.6472
   23MOL   C129 3253   1.292   1.764   2.144 -0.2195  0.2047  0.6327
   23MOL   O130 3254   1.344   1.536   2.158 -0.4326  0.7565  0.0155
   23MOL   H131 3255   1.483   1.676   2.128 -0.6623  1.1820  1.5516
   23MOL   H132 3256   1.189   1.761   2.109  0.8495  1.7401 -2.7861
   23MOL   H133 3257   1.334   1.855   2.103 -2.8114  1.0422 -0.2403
   23MOL   H134 3258   1.302   1.770   2.253  0.5777  1.7420  0.4812
   23MOL   C135 3259   1.432   1.429   2.127  0.4739 -0.2736 -0.1760
   23MOL   C136 3260   1.397   1.306   2.220  0.0712 -0.1299  0.3468
   23MOL   O137 3261   1.434   1.382   1.996  0.2002  0.2041  0.0616
   23MOL   H138 3262   1.532   1.469   2.142 -0.3508  2.2488 -1.1793
   23MOL   H139 3263   1.414   1.317   2.327  0.6595 -3.1335  0.5941
   23MOL   H140 3264   1.466   1.228   2.187 -0.9090 -0.0244 -2.0658
   23MOL   H141 3265   1.297   1.268   2.201  0.2882 -0.5269  0.0046
   23MOL   H142 3266   1.489   1.439   1.945 -0.0603  0.4674  0.0754
   24MOL     C1 3267   4.649   1.952   2.027 -0.8000 -0.2396  0.1960
   24MOL     C2 3268   4.577   2.006   1.905  0.1897 -0.0509  0.0024
   24MOL     O3 3269   4.658   2.049   2.126  0.4062  0.0402  0.3439
   24MOL     H4 3270   4.749   1.919   1.999 -0.1542  0.1906  1.8963
   24MOL     H5 3271   4.598   1.941   1.820 -0.9226 -0.1198 -0.2178
   24MOL     H6 3272   4.609   2.106   1.878  1.8571 -0.5657 -0.0085
   24MOL     H7 3273   4.470   2.014   1.925 -0.1960  0.4201 -2.1276
   24MOL     H8 3274   4.596   1.859   2.046 -0.9236 -0.4184 -1.0280
   24MOL     C9 3275   4.566   2.038   2.226  0.3523 -0.2660  0.3900
   24MOL    C10 3276   4.635   1.972   2.349  0.2633  0.7885  1.0290
   24MOL    O11 3277   4.532   2.164   2.277 -0.2112  0.2645  0.6322
   24MOL    H12 3278   4.477   1.977   2.207 -1.4703  2.2589  0.5338
   24MOL    H13 3279   4.677   1.871   2.338  0.3635  0.9788 -0.3993
   24MOL    H14 3280   4.566   1.971   2.433 -1.4826 -1.5019 -0.3482
   24MOL    H15 3281   4.721   2.033   2.377  2.1033  0.1549 -2.8887
   24MOL    C16 3282   4.469   2.241   2.179  0.3731  0.4482  0.3063
   24MOL    C17 3283   4.314   2.248   2.218  0.0456  0.1492 -0.1265
   24MOL    O18 3284   4.522   2.365   2.186  0.1616 -0.3338 -0.6041
   24MOL    H19 3285   4.486   2.205   2.078  1.4841  1.4563  0.1227
   24MOL    H20 3286   4.271   2.158   2.261 -0.2772  0.3994  0.0754
   24MOL    H21 3287   4.247   2.280   2.138  0.5096  0.5119 -0.3695
   24MOL    H22 3288   4.298   2.314   2.303  0.1476 -1.1255  0.9031
   24MOL    C23 3289   4.653   2.373   2.134  0.3448  0.1188  0.5626
   24MOL    C24 3290   4.642   2.430   1.993  0.4705 -0.6090 -0.0073
   24MOL    O25 3291   4.733   2.466   2.203  0.5497 -0.5003  0.1420
   24MOL    H26 3292   4.704   2.277   2.144 -0.3876 -0.3576 -0.2090
   24MOL    H27 3293   4.737   2.415   1.942  1.7591 -0.0525  2.1604
   24MOL    H28 3294   4.614   2.535   1.986  2.4217 -0.0785 -0.2578
   24MOL    H29 3295   4.575   2.366   1.936  2.4256 -1.0918 -1.7985
   24MOL    C30 3296   4.745   2.445   2.336  0.2226  0.0056 -0.7062
   24MOL    C31 3297   4.881   2.388   2.373  0.2057  0.0626 -0.1160
   24MOL    O32 3298   4.724   2.568   2.404 -0.4860  0.0757  0.1265
   24MOL    H33 3299   4.673   2.371   2.370 -1.7562  2.5140  0.7062
   24MOL    H34 3300   4.958   2.446   2.322  1.4602  0.0795  1.7497
   24MOL    H35 3301   4.894   2.286   2.336 -1.9100 -0.6126  0.9456
   24MOL    H36 3302   4.899   2.399   2.480 -0.6679 -1.8997  0.2552
   24MOL    C37 3303   4.600   2.631   2.379  0.3031  0.0639 -0.2022
   24MOL    C38 3304   4.496   2.587   2.488 -0.8028  0.1641  0.6422
   24MOL    O39 3305   4.610   2.768   2.385  0.6828 -0.3673  0.7263
   24MOL    H40 3306   4.551   2.614   2.283  0.1265  2.5471 -0.5715
   24MOL    H41 3307   4.536   2.622   2.583  3.4391 -1.0178 -0.6246
   24MOL    H42 3308   4.482   2.479   2.482  0.7672  0.0480 -1.3684
   24MOL    H43 3309   4.400   2.631   2.460  0.0449  0.1927 -2.4112
   24MOL    C44 3310   4.691   2.833   2.294 -0.5267 -0.5549 -0.1562
   24MOL    C45 3311   4.595   2.894   2.190  0.1000 -0.5674  0.3079
   24MOL    O46 3312   4.748   2.942   2.351  0.2556 -0.9581  0.6549
   24MOL    H47 3313   4.772   2.775   2.250 -1.2013 -1.3659 -0.3336
   24MOL    H48 3314   4.562   2.811   2.127  2.9870 -0.4790 -1.3527
   24MOL    H49 3315   4.651   2.967   2.134 -3.4665  2.3571  0.3694
   24MOL    H50 3316   4.513   2.945   2.242 -1.0957  1.2253 -3.2105
   24MOL    C51 3317   4.842   2.921   2.446 -0.1499 -0.0972  0.0649
   24MOL    C52 3318   4.972   2.982   2.390  0.3252  0.2290 -0.2121
   24MOL    O53 3319   4.810   2.990   2.562  0.8027 -0.2099  0.4836
   24MOL    H54 3320   4.858   2.819   2.479 -1.2014 -1.2330 -2.7588
   24MOL    H55 3321   4.955   3.090   2.391 -2.7452 -0.1935 -1.5162
   24MOL    H56 3322   4.990   2.950   2.287 -0.8926 -0.6121 -0.1808
   24MOL    H57 3323   5.066   2.954   2.437  0.1570 -0.0436 -0.0335
   24MOL    C58 3324   4.686   2.967   2.618  0.6758  0.3610  0.4600
   24MOL    C59 3325   4.708   2.881   2.742 -0.6560  0.0637 -0.5194
   24MOL    O60 3326   4.623   3.082   2.659 -0.6467 -0.1077 -0.8894
   24MOL    H61 3327   4.610   2.915   2.560  1.8555  0.0488 -0.8385
   24MOL    H62 3328   4.605   2.876   2.776 -0.9044 -0.0983 -1.2787
   24MOL    H63 3329   4.767   2.941   2.812 -0.4861 -1.1501  0.3976
   24MOL    H64 3330   4.750   2.785   2.711 -0.7685  0.5960 -2.3974
   24MOL    C65 3331   4.572   3.148   2.548 -0.3073 -0.2554  0.2286
   24MOL    C66 3332   4.423   3.112   2.539 -0.2388  0.3956  0.2447
   24MOL    O67 3333   4.577   3.288   2.573  0.1603 -0.6151  0.2349
   24MOL    H68 3334   4.617   3.130   2.451 -3.7834 -0.5941 -1.3981
   24MOL    H69 3335   4.379   3.173   2.460 -0.3279 -0.4019 -0.3286
   24MOL    H70 3336   4.385   3.156   2.632 -1.4129  2.0682 -1.0078
   24MOL    H71 3337   4.414   3.005   2.523  0.1424  0.6434 -1.6366
   24MOL    C72 3338   4.702   3.340   2.574 -0.4868  0.7952  0.5245
   24MOL    C73 3339   4.714   3.440   2.464 -0.0430 -0.6158 -0.2087
   24MOL    O74 3340   4.721   3.404   2.696  0.0666 -0.1438 -0.0159
   24MOL    H75 3341   4.784   3.274   2.545  0.4681  2.2009 -0.0699
   24MOL    H76 3342   4.676   3.397   2.371  0.5439 -1.2729 -0.1533
   24MOL    H77 3343   4.816   3.478   2.456 -0.0719 -0.3944  0.4755
   24MOL    H78 3344   4.662   3.532   2.490 -0.9955 -0.8594 -1.2231
   24MOL    C79 3345   4.791   3.325   2.791 -0.2615 -0.5812 -0.2569
   24MOL    C80 3346   4.938   3.375   2.793 -0.2472 -0.5244  0.1731
   24MOL    O81 3347   4.744   3.336   2.921  0.5939  1.0297 -0.1532
   24MOL    H82 3348   4.788   3.220   2.764 -2.9722 -1.1072  1.8602
   24MOL    H83 3349   4.930   3.474   2.837 -2.0905 -0.7299  0.3225
   24MOL    H84 3350   4.972   3.384   2.690 -1.6933 -3.9217 -0.6631
   24MOL    H85 3351   4.999   3.296   2.838  1.3281 -0.7422 -2.2686
   24MOL    C86 3352   4.623   3.270   2.953  0.4648 -1.0876 -0.0497
   24MOL    C87 3353   4.650   3.156   3.050 -0.6160 -0.3310 -0.0616
   24MOL    O88 3354   4.530   3.368   3.000  0.4612 -0.6721  0.5553
   24MOL    H89 3355   4.576   3.227   2.865 -0.6457 -1.5382  0.7602
   24MOL    H90 3356   4.549   3.124   3.077 -1.0154  1.8837  1.1827
   24MOL    H91 3357   4.696   3.189   3.143 -0.5240  0.1845 -0.2849
   24MOL    H92 3358   4.700   3.070   3.005 -1.3552 -1.6740  1.6061
   24MOL    C93 3359   4.443   3.420   2.896 -0.3265 -1.2425 -0.1323
   24MOL    C94 3360   4.301   3.354   2.877 -0.3076  0.4313 -0.0243
   24MOL    O95 3361   4.415   3.550   2.928 -0.6515 -0.2950  0.1780
   24MOL    H96 3362   4.484   3.420   2.795 -1.5431 -1.1734 -0.6269
   24MOL    H97 3363   4.227   3.375   2.955 -0.5648  1.1021 -0.4528
   24MOL    H98 3364   4.311   3.245   2.882  0.7645  0.4367 -1.7467
   24MOL    H99 3365   4.255   3.388   2.785  1.5273  2.2225 -0.2953
   24MOL   C100 3366   4.519   3.639   2.898 -0.6147  0.0095  0.2767
   24MOL   C101 3367   4.469   3.749   2.810  0.5794 -0.3301  0.1086
   24MOL   O102 3368   4.571   3.708   3.006  0.5039 -0.3662 -0.0745
   24MOL   H103 3369   4.596   3.580   2.849 -0.6755  0.4154 -0.3149
   24MOL   H104 3370   4.432   3.697   2.721 -0.9717 -0.4336  0.7992
   24MOL   H105 3371   4.550   3.816   2.780 -0.4666  0.6745 -0.5186
   24MOL   H106 3372   4.383   3.796   2.856  1.3195  0.7223  0.4283
   24MOL   C107 3373   4.661   3.633   3.081 -1.0252 -0.7563  0.7163
   24MOL   C108 3374   4.794   3.698   3.083 -0.4237 -0.3582  0.0024
   24MOL   O109 3375   4.631   3.632   3.216 -0.1844  0.2147 -0.0967
   24MOL   H110 3376   4.678   3.530   3.049 -2.1951 -1.1591  1.3749
   24MOL   H111 3377   4.821   3.714   2.979  3.1679  0.3133  0.9824
   24MOL   H112 3378   4.859   3.630   3.138 -1.5154 -0.7940  0.7695
   24MOL   H113 3379   4.784   3.799   3.124  0.1068  0.3112 -1.4590
   24MOL   C114 3380   4.521   3.549   3.244  0.7340  0.0841 -0.5523
   24MOL   C115 3381   4.575   3.421   3.310  0.0994  0.3554 -0.5553
   24MOL   O116 3382   4.446   3.611   3.346 -0.3018 -0.4519 -0.1141
   24MOL   H117 3383   4.449   3.522   3.167 -0.3989 -1.6240  1.0662
   24MOL   H118 3384   4.643   3.382   3.234  0.4417  0.4182 -0.2822
   24MOL   H119 3385   4.497   3.351   3.341 -2.0526  2.6656 -0.6270
   24MOL   H120 3386   4.641   3.448   3.392 -1.5934  0.3528  0.8330
   24MOL   C121 3387   4.352   3.697   3.292  0.9446  0.5262  0.9330
   24MOL   C122 3388   4.220   3.618   3.279  0.6658 -0.0044  0.1930
   24MOL   O123 3389   4.327   3.806   3.363 -0.4549 -0.3795 -0.2023
   24MOL   H124 3390   4.369   3.731   3.190 -1.7363  1.4714  0.7757
   24MOL   H125 3391   4.155   3.634   3.365  0.4639 -0.8945  0.2076
   24MOL   H126 3392   4.241   3.515   3.249 -1.0760 -1.2896  3.1706
   24MOL   H127 3393   4.161   3.654   3.195  2.2036  0.3879 -0.7417
   24MOL   C128 3394   4.432   3.893   3.381 -0.1214 -0.6840  0.0946
   24MOL   C129 3395   4.394   4.029   3.320  0.4907  0.4779  0.7989
   24MOL   O130 3396   4.452   3.922   3.523 -0.4025  0.3915 -0.6994
   24MOL   H131 3397   4.525   3.860   3.335  0.6714  1.0441  0.4287
   24MOL   H132 3398   4.309   4.078   3.367  1.7880  3.0489  0.5753
   24MOL   H133 3399   4.373   4.021   3.213  0.9353  1.2034  0.6570
   24MOL   H134 3400   4.474   4.101   3.338  1.2891 -0.0683 -0.4262
   24MOL   C135 3401   4.475   3.810   3.601 -0.1430  0.0745  0.1678
   24MOL   C136 3402   4.618   3.766   3.580  0.6959 -0.4835 -0.0066
   24MOL   O137 3403   4.459   3.850   3.734  0.1383 -0.1656 -0.7110
   24MOL   H138 3404   4.391   3.748   3.573 -1.1897  0.1307  3.0365
   24MOL   H139 3405   4.624   3.665   3.621  0.8180 -1.2116 -1.7448
   24MOL   H140 3406   4.689   3.834   3.626  0.6377 -2.3295  2.9559
   24MOL   H141 3407   4.649   3.772   3.475  4.3672 -0.7228  1.0081
   24MOL   H142 3408   4.382   3.905   3.734 -0.7750 -1.4296 -1.6516
   25MOL     C1 3409   5.043   7.199   4.602 -0.8902  0.3258  0.4608
   25MOL     C2 3410   5.145   7.305   4.566  0.0803 -0.4166  0.2249
   25MOL     O3 3411   4.977   7.237   4.725  0.1615  0.3503  0.2967
   25MOL     H4 3412   5.090   7.101   4.610  1.0505  1.1388 -0.7671
   25MOL     H5 3413   5.105   7.394   4.517 -0.0191  0.0288  1.1129
   25MOL     H6 3414   5.220   7.266   4.498 -0.8045  0.7866 -1.4745
   25MOL     H7 3415   5.205   7.339   4.651  0.3842  1.1623 -0.5976
   25MOL     H8 3416   4.980   7.194   4.513  0.3000 -0.7461 -0.3317
   25MOL     C9 3417   4.876   7.156   4.781 -0.6223  0.1663  0.1876
   25MOL    C10 3418   4.944   7.068   4.889  0.1481  0.1735  0.0879
   25MOL    O11 3419   4.789   7.246   4.848 -0.3361 -0.5136  0.2745
   25MOL    H12 3420   4.826   7.107   4.696 -0.4295 -2.4828  1.5507
   25MOL    H13 3421   4.868   7.008   4.940 -0.7693 -1.3088 -2.9215
   25MOL    H14 3422   5.002   7.121   4.965  0.5369  1.6867 -1.2331
   25MOL    H15 3423   5.003   6.992   4.838  1.7800  1.3481  0.1996
   25MOL    C16 3424   4.733   7.340   4.756 -0.1086  0.6331 -0.3185
   25MOL    C17 3425   4.590   7.290   4.730  0.2300  1.0241 -0.0636
   25MOL    O18 3426   4.725   7.460   4.820 -0.5532  0.1820 -0.2009
   25MOL    H19 3427   4.788   7.357   4.664  0.6455  0.7180  0.1386
   25MOL    H20 3428   4.548   7.342   4.644 -0.8880 -1.0028 -0.7780
   25MOL    H21 3429   4.525   7.310   4.815 -1.7531 -0.4866 -1.1830
   25MOL    H22 3430   4.594   7.187   4.696 -0.8880  0.8169  0.3915
   25MOL    C23 3431   4.844   7.536   4.817 -0.9741  0.4327 -0.2136
   25MOL    C24 3432   4.829   7.644   4.708 -0.2979  0.0288 -0.1617
   25MOL    O25 3433   4.846   7.605   4.937  0.1031  0.5995  0.0273
   25MOL    H26 3434   4.942   7.491   4.801 -0.9479  0.9706 -1.6138
   25MOL    H27 3435   4.917   7.705   4.692  0.0001  0.4933  2.9650
   25MOL    H28 3436   4.740   7.700   4.738  0.6047  0.2544  2.2422
   25MOL    H29 3437   4.802   7.603   4.611 -0.1013  1.0349 -0.6397
   25MOL    C30 3438   4.896   7.524   5.042  0.3296  0.3672 -0.4251
   25MOL    C31 3439   5.049   7.531   5.039 -0.9419 -0.0963  0.3542
   25MOL    O32 3440   4.833   7.573   5.164 -0.0514  0.0398  0.8955
   25MOL    H33 3441   4.871   7.419   5.026 -1.2602  0.7675 -0.6249
   25MOL    H34 3442   5.088   7.474   4.954 -1.4566  0.5878 -0.3508
   25MOL    H35 3443   5.083   7.478   5.128  0.3377  0.2194  0.0773
   25MOL    H36 3444   5.077   7.636   5.031 -1.8778 -0.0272 -2.5160
   25MOL    C37 3445   4.698   7.543   5.158  0.1704  0.8050 -0.0966
   25MOL    C38 3446   4.683   7.420   5.248  0.0982 -0.2080  0.0068
   25MOL    O39 3447   4.623   7.648   5.219 -0.4536 -0.0894  0.0176
   25MOL    H40 3448   4.668   7.527   5.055  0.7085  0.6447 -0.2311
   25MOL    H41 3449   4.714   7.333   5.190 -2.6377 -1.4605  0.3187
   25MOL    H42 3450   4.579   7.393   5.268  0.7315 -2.6044  0.1740
   25MOL    H43 3451   4.739   7.413   5.342 -1.0231  1.6569  0.8629
   25MOL    C44 3452   4.636   7.773   5.153  0.3957  0.4141  0.1507
   25MOL    C45 3453   4.510   7.781   5.056  0.0844  0.4699 -0.1589
   25MOL    O46 3454   4.605   7.885   5.235  0.0291  0.0232  0.0171
   25MOL    H47 3455   4.728   7.797   5.099  1.6898 -1.5300  1.4322
   25MOL    H48 3456   4.518   7.700   4.983  1.0698 -1.7332  2.3301
   25MOL    H49 3457   4.497   7.877   5.006  0.5068 -0.3649 -1.9222
   25MOL    H50 3458   4.418   7.760   5.109  0.2692  0.0332 -0.0088
   25MOL    C51 3459   4.706   7.888   5.344 -0.2367 -0.3410  0.0864
   25MOL    C52 3460   4.824   0.065   5.298  0.0670 -0.6556  0.2297
   25MOL    O53 3461   4.654   0.011   5.465 -0.0080  0.1969  0.1681
   25MOL    H54 3462   4.748   7.789   5.360 -0.8220 -0.5569  0.2902
   25MOL    H55 3463   4.877   0.039   5.206  1.9043  0.7819  0.8401
   25MOL    H56 3464   4.898   0.078   5.376  0.1661 -0.3357  0.0864
   25MOL    H57 3465   4.789   0.165   5.270  3.0380  0.3435 -0.1463
   25MOL    C58 3466   4.556   7.829   5.514 -0.1470 -0.4708  0.5227
   25MOL    C59 3467   4.621   7.747   5.624  0.5303  0.2520  0.0444
   25MOL    O60 3468   4.434   7.885   5.555  0.0497  0.6224 -0.6800
   25MOL    H61 3469   4.524   7.757   5.439  1.3316 -2.1147  1.4293
   25MOL    H62 3470   4.665   7.814   5.698 -1.5179  0.8800  0.7219
   25MOL    H63 3471   4.706   7.690   5.587 -0.4768 -0.3061 -1.4479
   25MOL    H64 3472   4.550   7.676   5.666  2.3315 -0.9798  1.0631
   25MOL    C65 3473   4.356   0.030   5.448  0.3118  0.9393 -0.4393
   25MOL    C66 3474   4.238   7.847   5.425  0.5718  0.2578 -0.2403
   25MOL    O67 3475   4.311   0.159   5.482 -0.3332  0.5231 -0.1961
   25MOL    H68 3476   4.410   0.045   5.354 -0.1265  1.0273 -0.6769
   25MOL    H69 3477   4.271   7.759   5.370  3.3061 -0.2667  2.1452
   25MOL    H70 3478   4.150   7.887   5.374  0.5462 -0.6083 -0.8882
   25MOL    H71 3479   4.201   7.815   5.522  3.0934 -1.0849  0.3131
   25MOL    C72 3480   4.415   0.256   5.490  0.2095 -1.4339  0.6533
   25MOL    C73 3481   4.395   0.363   5.381 -0.8102  0.9242 -0.0094
   25MOL    O74 3482   4.413   0.328   5.609 -0.1375 -0.2452 -0.2486
   25MOL    H75 3483   4.512   0.213   5.465  0.9489  0.6818 -0.2188
   25MOL    H76 3484   4.304   0.423   5.388 -0.7100  1.4805 -2.8796
   25MOL    H77 3485   4.399   0.314   5.284 -1.0017 -2.6325  1.7015
   25MOL    H78 3486   4.475   0.437   5.377 -0.3639  0.4767  0.5564
   25MOL    C79 3487   4.487   0.264   5.709  0.4512  0.0829 -0.0108
   25MOL    C80 3488   4.614   0.352   5.729  0.0417  0.8736  0.2795
   25MOL    O81 3489   4.416   0.263   5.828  0.8423  0.0495  0.2092
   25MOL    H82 3490   4.512   0.161   5.687 -1.4156 -0.5303  0.6359
   25MOL    H83 3491   4.597   0.457   5.752 -0.9405  0.6216  0.7356
   25MOL    H84 3492   4.673   0.346   5.638 -1.4587 -0.4471 -0.6311
   25MOL    H85 3493   4.675   0.303   5.805 -0.8322 -2.9326 -1.3649
   25MOL    C86 3494   4.335   0.147   5.835 -0.3099  0.2571  0.2969
   25MOL    C87 3495   4.410   0.032   5.904 -0.9815  0.2513  0.6467
   25MOL    O88 3496   4.222   0.168   5.913 -0.8536  0.0489 -0.1797
   25MOL    H89 3497   4.305   0.120   5.734  0.9588 -1.7890  0.4238
   25MOL    H90 3498   4.438   0.038   6.009  1.2739  2.5822 -0.0548
   25MOL    H91 3499   4.506   0.003   5.861 -1.8986 -0.4089 -0.9958
   25MOL    H92 3500   4.350   7.855   5.893  0.4990 -0.5794 -1.0501
   25MOL    C93 3501   4.134   0.257   5.860 -0.9951 -0.0183  1.0583
   25MOL    C94 3502   4.035   0.183   5.774  0.0923 -0.3891 -0.0102
   25MOL    O95 3503   4.070   0.335   5.964  0.7869  0.1405 -0.2389
   25MOL    H96 3504   4.173   0.343   5.805 -0.2518  0.6075  2.5153
   25MOL    H97 3505   4.071   0.169   5.673 -0.3219  0.6022 -0.2993
   25MOL    H98 3506   3.945   0.242   5.758  0.9272  0.7300 -0.5826
   25MOL    H99 3507   3.993   0.093   5.819 -0.5712 -0.7868 -1.3873
   25MOL   C100 3508   4.155   0.414   6.043 -0.1232  0.7195  0.7611
   25MOL   C101 3509   4.128   0.561   6.014  0.0595 -0.6955  0.5921
   25MOL   O102 3510   4.134   0.400   6.178 -0.1370  0.1018 -0.5871
   25MOL   H103 3511   4.263   0.404   6.036 -0.3049  0.2875 -2.4153
   25MOL   H104 3512   4.118   0.559   5.905 -1.6674  0.1561  0.7188
   25MOL   H105 3513   4.217   0.619   6.041 -0.7318  0.7490  0.1739
   25MOL   H106 3514   4.041   0.592   6.071  0.6196  1.0169  0.5629
   25MOL   C107 3515   4.178   0.277   6.225  0.6608 -0.1144 -0.2990
   25MOL   C108 3516   4.315   0.300   6.287 -0.1625 -0.4085  0.2832
   25MOL   O109 3517   4.090   0.227   6.325  0.2739 -0.3952  0.7700
   25MOL   H110 3518   4.179   0.200   6.148 -1.8477 -0.5450  0.0552
   25MOL   H111 3519   4.360   0.204   6.308  0.9816  0.1682  0.5006
   25MOL   H112 3520   4.306   0.350   6.383  1.8586 -1.2878  0.9419
   25MOL   H113 3521   4.377   0.348   6.211  0.6006 -0.6238  0.7751
   25MOL   C114 3522   3.982   0.142   6.283  0.0300 -0.3959 -0.3215
   25MOL   C115 3523   4.040   0.006   6.275  0.2389  0.4116 -0.3527
   25MOL   O116 3524   3.892   0.135   6.389 -0.1076  0.3367  0.3900
   25MOL   H117 3525   3.940   0.181   6.191  1.2686  1.4729 -0.1205
   25MOL   H118 3526   4.080   7.902   6.374 -0.6919  1.4077  0.2092
   25MOL   H119 3527   4.127   0.012   6.208  1.3782 -0.3164  1.0279
   25MOL   H120 3528   3.965   7.847   6.243  0.7040 -1.0053  1.6697
   25MOL   C121 3529   3.802   0.243   6.398 -0.7985 -0.5036  0.0249
   25MOL   C122 3530   3.656   0.193   6.400 -0.4536 -0.4524  0.2834
   25MOL   O123 3531   3.820   0.308   6.519 -0.1773  0.4047 -0.0773
   25MOL   H124 3532   3.816   0.318   6.320 -0.4405  1.2103  1.7023
   25MOL   H125 3533   3.622   0.150   6.306 -0.1251  1.6083 -0.8303
   25MOL   H126 3534   3.584   0.274   6.417  0.3972  0.3332  0.2108
   25MOL   H127 3535   3.648   0.114   6.473 -0.7941 -1.0031 -0.3431
   25MOL   C128 3536   3.920   0.409   6.515 -0.9438  0.4361  0.0794
   25MOL   C129 3537   3.837   0.536   6.528  0.1793  0.5600 -0.6518
   25MOL   O130 3538   3.997   0.401   6.628 -0.5511  0.1932  0.4765
   25MOL   H131 3539   3.989   0.402   6.431 -0.6630 -1.2421  0.4263
   25MOL   H132 3540   3.783   0.531   6.433 -0.2863 -1.6676 -0.3155
   25MOL   H133 3541   3.907   0.618   6.518  0.3243  0.1215 -3.7444
   25MOL   H134 3542   3.770   0.539   6.614 -0.2054  1.7426 -0.9913
   25MOL   C135 3543   4.093   0.305   6.617  0.5267  0.1546  0.3865
   25MOL   C136 3544   4.181   0.307   6.739 -0.5279 -0.3575  0.1394
   25MOL   O137 3545   4.043   0.173   6.603  0.0792  0.5631 -0.3055
   25MOL   H138 3546   4.159   0.326   6.532  1.0539 -2.6434  0.0625
   25MOL   H139 3547   4.286   0.303   6.712 -0.9946 -1.9719 -1.5293
   25MOL   H140 3548   4.152   0.239   6.819  1.9302 -1.0845  0.4526
   25MOL   H141 3549   4.154   0.402   6.786 -1.6829 -1.1577  1.1563
   25MOL   H142 3550   3.993   0.167   6.523 -0.6768 -0.2178  0.2111
   26MOL     C1 3551   5.727   6.250   4.554  0.3209 -0.1541 -0.2199
   26MOL     C2 3552   5.582   6.203   4.581 -0.3234  1.0136 -0.6044
   26MOL     O3 3553   5.757   6.253   4.413  0.5101 -0.5248  0.4575
   26MOL     H4 3554   5.798   6.193   4.615  0.4437 -1.1874 -1.3150
   26MOL     H5 3555   5.556   6.220   4.686  0.5093 -1.3650  0.0333
   26MOL     H6 3556   5.560   6.099   4.554 -1.4554  0.9901  0.3504
   26MOL     H7 3557   5.514   6.276   4.537 -1.9819  1.7960  3.0173
   26MOL     H8 3558   5.737   6.351   4.593  2.2185 -0.4429  0.1189
   26MOL     C9 3559   5.857   6.339   4.368  0.1291  0.4010  0.2040
   26MOL    C10 3560   5.992   6.286   4.394 -0.3830  0.0922  0.5063
   26MOL    O11 3561   5.843   6.350   4.234  0.3434  0.5177 -0.0408
   26MOL    H12 3562   5.842   6.435   4.417 -1.3535 -0.6264  1.8203
   26MOL    H13 3563   6.001   6.183   4.360  0.8588  1.4915 -3.6391
   26MOL    H14 3564   6.015   6.287   4.500 -1.7663 -3.5538  0.9488
   26MOL    H15 3565   6.062   6.353   4.344 -0.5858  2.1258  2.8703
   26MOL    C16 3566   5.729   6.411   4.199  0.7931 -0.5969  0.3505
   26MOL    C17 3567   5.759   6.563   4.180 -0.0963 -0.1184  0.2355
   26MOL    O18 3568   5.690   6.364   4.072 -0.9085 -0.6125 -0.2021
   26MOL    H19 3569   5.645   6.393   4.267 -0.1605  3.1258  0.2583
   26MOL    H20 3570   5.831   6.574   4.099 -1.0620 -0.7896 -0.7295
   26MOL    H21 3571   5.798   6.620   4.264  0.7554  1.6209 -1.2858
   26MOL    H22 3572   5.667   6.617   4.156  0.1603  0.0249 -0.4305
   26MOL    C23 3573   5.654   6.232   4.071  0.5756  0.5083  0.1960
   26MOL    C24 3574   5.498   6.224   4.081  0.1217  0.0079  1.0920
   26MOL    O25 3575   5.682   6.176   3.948 -0.1721 -0.1978 -0.3334
   26MOL    H26 3576   5.700   6.176   4.153  0.2897  1.2806  0.8902
   26MOL    H27 3577   5.465   6.120   4.085  0.9759 -0.3247 -0.3131
   26MOL    H28 3578   5.446   6.284   4.007  0.5128  1.2416  1.8003
   26MOL    H29 3579   5.468   6.256   4.181 -0.5796 -0.1844  0.9451
   26MOL    C30 3580   5.819   6.150   3.940  0.5555 -0.6581 -0.3134
   26MOL    C31 3581   5.844   5.999   3.941  0.3450  0.2626 -0.6252
   26MOL    O32 3582   5.860   6.191   3.810  0.4458  0.0363 -0.0124
   26MOL    H33 3583   5.887   6.190   4.015 -0.4481 -2.0924  1.3765
   26MOL    H34 3584   5.797   5.951   3.855  0.6455 -1.2087  0.0037
   26MOL    H35 3585   5.798   5.961   4.033 -0.3452  1.4765 -0.4565
   26MOL    H36 3586   5.951   5.992   3.958  0.1283  2.2690  1.9532
   26MOL    C37 3587   5.839   6.323   3.785  0.2310 -0.3074 -0.1206
   26MOL    C38 3588   5.981   6.379   3.792  0.2197  0.5390  0.1050
   26MOL    O39 3589   5.782   6.343   3.663 -0.6586 -0.0884 -0.5301
   26MOL    H40 3590   5.775   6.371   3.859  0.0320 -0.2326 -0.3414
   26MOL    H41 3591   6.016   6.390   3.894 -0.7196  0.4867  0.4430
   26MOL    H42 3592   5.992   6.473   3.739  2.2711  1.3665  1.9402
   26MOL    H43 3593   6.047   6.310   3.739 -0.6266  1.3187 -2.0169
   26MOL    C44 3594   5.645   6.316   3.655  0.5236  0.8775  0.4987
   26MOL    C45 3595   5.558   6.438   3.659  0.1643  0.4911  0.4644
   26MOL    O46 3596   5.617   6.245   3.536  0.0889 -0.0733  0.1587
   26MOL    H47 3597   5.607   6.249   3.732 -1.9085 -1.0428 -2.2933
   26MOL    H48 3598   5.569   6.488   3.755  2.5165 -0.6189  0.8103
   26MOL    H49 3599   5.453   6.410   3.648  0.6944 -0.9676 -1.0998
   26MOL    H50 3600   5.596   6.512   3.588 -0.2166  1.5665  1.3664
   26MOL    C51 3601   5.687   6.127   3.522  0.9097 -0.3126 -0.4581
   26MOL    C52 3602   5.592   6.015   3.561 -0.0437 -0.4297  0.0161
   26MOL    O53 3603   5.716   6.107   3.382  0.0234 -0.9135 -0.5552
   26MOL    H54 3604   5.780   6.108   3.576 -0.2124 -1.1431  1.2180
   26MOL    H55 3605   5.492   6.029   3.520  0.0386 -0.7175 -0.2799
   26MOL    H56 3606   5.588   6.011   3.670  0.8298  0.8607  0.1024
   26MOL    H57 3607   5.634   5.918   3.533 -1.2875 -0.7262 -0.8608
   26MOL    C58 3608   5.833   6.175   3.342 -0.5393  0.9039 -0.0853
   26MOL    C59 3609   5.932   6.059   3.309 -0.0576 -0.3906  0.2122
   26MOL    O60 3610   5.813   6.238   3.220  0.4193 -0.5014 -0.4800
   26MOL    H61 3611   5.873   6.245   3.416 -1.2217  1.9475 -0.6958
   26MOL    H62 3612   6.028   6.108   3.296 -1.0859  1.0449 -2.3006
   26MOL    H63 3613   5.912   6.005   3.217  0.9069 -0.4185  0.0134
   26MOL    H64 3614   5.932   5.998   3.399  0.4271 -0.7090 -0.0015
   26MOL    C65 3615   5.711   6.337   3.219  0.3052 -0.5011 -0.0261
   26MOL    C66 3616   5.769   6.463   3.155  0.1858  0.0442 -0.0462
   26MOL    O67 3617   5.612   6.305   3.129 -0.1378  0.0649  0.0378
   26MOL    H68 3618   5.669   6.354   3.317 -1.4742 -0.3372 -0.7972
   26MOL    H69 3619   5.688   6.536   3.161  0.4901  0.4475 -0.7250
   26MOL    H70 3620   5.791   6.441   3.051  0.3477 -0.2402  0.0463
   26MOL    H71 3621   5.856   6.498   3.211  0.7582 -2.1920  0.5203
   26MOL    C72 3622   5.510   6.219   3.179  0.4783  0.4758  0.6731
   26MOL    C73 3623   5.384   6.303   3.182  0.6879  0.1614 -0.3043
   26MOL    O74 3624   5.493   6.113   3.083 -0.3256 -0.5913 -0.0734
   26MOL    H75 3625   5.524   6.182   3.280  1.3848  1.4932  0.9366
   26MOL    H76 3626   5.369   6.358   3.089 -2.2381 -0.4871 -0.2714
   26MOL    H77 3627   5.384   6.368   3.269 -0.4146 -0.3530  0.0926
   26MOL    H78 3628   5.297   6.238   3.180 -1.2132  2.6298 -2.2937
   26MOL    C79 3629   5.593   6.022   3.089  0.3624  0.6058 -0.4014
   26MOL    C80 3630   5.531   5.894   3.153 -0.0166  0.1512  0.0301
   26MOL    O81 3631   5.644   5.976   2.965  1.0054 -0.0062  0.0269
   26MOL    H82 3632   5.672   6.044   3.161 -0.0690 -1.9344  0.8849
   26MOL    H83 3633   5.496   5.918   3.253 -1.9901 -2.1634 -0.0591
   26MOL    H84 3634   5.595   5.809   3.174  1.8641  1.2465 -1.1487
   26MOL    H85 3635   5.439   5.859   3.105 -0.8050  2.4696 -0.2272
   26MOL    C86 3636   5.709   6.077   2.884  0.0751  0.2895  0.0509
   26MOL    C87 3637   5.842   6.022   2.841  0.2888 -0.3770 -0.4796
   26MOL    O88 3638   5.637   6.111   2.771 -0.1577 -0.2145 -0.1102
   26MOL    H89 3639   5.721   6.161   2.953  0.1716 -1.4349  2.1739
   26MOL    H90 3640   5.910   6.004   2.924 -0.6312 -0.4998  0.2456
   26MOL    H91 3641   5.893   6.099   2.783  2.5197 -2.4324 -1.3429
   26MOL    H92 3642   5.834   5.930   2.782 -2.1616  0.3190 -1.2942
   26MOL    C93 3643   5.551   6.219   2.782  0.6970 -0.5094 -0.0028
   26MOL    C94 3644   5.623   6.349   2.744  0.1405 -0.8426 -0.4365
   26MOL    O95 3645   5.446   6.200   2.690  0.0923  0.3560  0.5287
   26MOL    H96 3646   5.505   6.238   2.879  0.5299  1.1037 -0.3968
   26MOL    H97 3647   5.549   6.428   2.734 -1.6571 -2.6938 -2.3448
   26MOL    H98 3648   5.682   6.332   2.654  1.5323  0.3569  0.2188
   26MOL    H99 3649   5.699   6.371   2.819 -0.0203 -0.9681 -0.2358
   26MOL   C100 3650   5.329   6.144   2.738  0.1944 -0.8167  0.4677
   26MOL   C101 3651   5.220   6.251   2.733 -0.1769 -0.3591 -0.1083
   26MOL   O102 3652   5.287   6.052   2.647  0.2128  0.4061 -0.2204
   26MOL   H103 3653   5.331   6.107   2.840  0.7287 -1.6085  0.1732
   26MOL   H104 3654   5.124   6.207   2.760  1.0995 -1.5826  2.5892
   26MOL   H105 3655   5.198   6.300   2.638  0.5503 -0.0383 -0.1107
   26MOL   H106 3656   5.248   6.325   2.808 -1.3366  3.0205 -2.8234
   26MOL   C107 3657   5.363   5.931   2.660 -0.1337  0.0900 -0.5556
   26MOL   C108 3658   5.285   5.836   2.753 -0.1516 -0.1904 -0.3876
   26MOL   O109 3659   5.380   5.870   2.538 -0.8045  0.5567  0.0899
   26MOL   H110 3660   5.456   5.958   2.711 -0.7229  3.1117 -0.9874
   26MOL   H111 3661   5.257   5.885   2.846 -3.1803 -0.7159 -0.9656
   26MOL   H112 3662   5.331   5.740   2.775  0.4618  0.0519 -0.6182
   26MOL   H113 3663   5.193   5.806   2.703 -2.1202  0.3870  2.7160
   26MOL   C114 3664   5.491   5.916   2.477 -0.3533 -0.3633 -0.2778
   26MOL   C115 3665   5.606   5.811   2.498  0.0075 -0.4962 -0.0462
   26MOL   O116 3666   5.467   5.935   2.344 -0.0462 -0.9616  0.3259
   26MOL   H117 3667   5.528   6.010   2.518 -1.2811  0.4910 -1.3515
   26MOL   H118 3668   5.691   5.846   2.440 -0.7542 -0.0762 -0.9196
   26MOL   H119 3669   5.565   5.710   2.491 -2.2087  0.4971 -2.0300
   26MOL   H120 3670   5.630   5.813   2.605 -0.3495  0.4807  0.0253
   26MOL   C121 3671   5.405   6.054   2.323 -0.2418 -0.2594 -0.1639
   26MOL   C122 3672   5.513   6.159   2.293  0.5885 -0.2178  0.1178
   26MOL   O123 3673   5.324   6.032   2.215  0.1986 -0.3473 -0.8124
   26MOL   H124 3674   5.343   6.090   2.405 -0.0176  0.9213 -0.4903
   26MOL   H125 3675   5.592   6.151   2.367 -2.1505 -1.3723  3.0352
   26MOL   H126 3676   5.474   6.260   2.302 -1.6149 -1.0122 -0.0947
   26MOL   H127 3677   5.550   6.136   2.193  2.2231  1.2848  0.3530
   26MOL   C128 3678   5.211   5.953   2.247 -0.4979  0.2259 -0.2299
   26MOL   C129 3679   5.088   6.047   2.239  0.2096  0.2509  0.2326
   26MOL   O130 3680   5.197   5.864   2.142 -0.7096 -0.3552  0.2069
   26MOL   H131 3681   5.218   5.910   2.346 -0.3582  1.8340  0.4734
   26MOL   H132 3682   5.013   6.021   2.314 -0.2906 -0.1693 -0.3930
   26MOL   H133 3683   5.039   6.036   2.141 -0.4654 -0.3605  0.6320
   26MOL   H134 3684   5.123   6.150   2.244 -0.6459  0.6119 -0.7996
   26MOL   C135 3685   5.295   5.766   2.146  0.4878 -0.2707  0.3138
   26MOL   C136 3686   5.256   5.645   2.230 -0.5440  1.1445 -0.0161
   26MOL   O137 3687   5.315   5.718   2.016  0.2681 -0.0978 -0.1081
   26MOL   H138 3688   5.389   5.810   2.181 -1.1083  0.9440  3.2841
   26MOL   H139 3689   5.326   5.562   2.229 -1.1257  0.5689  2.6589
   26MOL   H140 3690   5.163   5.610   2.187  0.1575 -2.1615  1.0119
   26MOL   H141 3691   5.237   5.679   2.332  0.3944 -0.8717  0.8554
   26MOL   H142 3692   5.388   5.763   1.977  0.0564 -0.2820 -0.7247
   27MOL     C1 3693   3.097   6.330   4.529  0.2597 -0.2448 -0.4199
   27MOL     C2 3694   3.213   6.250   4.462  0.1082  0.2319 -0.4552
   27MOL     O3 3695   3.150   6.462   4.531 -0.4250  0.2777  0.4403
   27MOL     H4 3696   3.090   6.284   4.627  0.7516  0.4845 -0.0358
   27MOL     H5 3697   3.187   6.145   4.475  0.3176  0.4661  1.9552
   27MOL     H6 3698   3.304   6.268   4.518 -0.6332  1.4747  0.3604
   27MOL     H7 3699   3.240   6.288   4.363  2.2071  1.7793  0.6747
   27MOL     H8 3700   3.003   6.326   4.473 -0.5240  0.2524  0.8408
   27MOL     C9 3701   3.062   6.533   4.616  0.6865  0.2048  0.3219
   27MOL    C10 3702   3.115   6.516   4.757 -0.0708 -0.0245  0.0500
   27MOL    O11 3703   3.056   6.668   4.588  0.4280  0.2101  0.0072
   27MOL    H12 3704   2.958   6.499   4.618  0.3333  1.3055  1.4098
   27MOL    H13 3705   3.101   6.416   4.797  2.0218 -0.5243 -0.3770
   27MOL    H14 3706   3.052   6.581   4.817 -2.3174 -1.9854 -0.1375
   27MOL    H15 3707   3.221   6.539   4.764  0.2592 -1.6853  0.6434
   27MOL    C16 3708   2.970   6.699   4.482  1.0299 -0.2921  0.9493
   27MOL    C17 3709   2.886   6.812   4.524 -0.7398  0.3176  0.3585
   27MOL    O18 3710   3.042   6.749   4.376  0.1025  0.0671 -0.2135
   27MOL    H19 3711   2.898   6.622   4.453 -0.4514  1.7288 -0.9141
   27MOL    H20 3712   2.836   6.797   4.620 -0.8497 -3.2015 -0.1729
   27MOL    H21 3713   2.811   6.821   4.445  0.1000 -1.7500 -0.7344
   27MOL    H22 3714   2.951   6.899   4.532  0.4670 -0.5035 -0.2071
   27MOL    C23 3715   3.060   6.664   4.268 -0.4835 -0.2532  0.0638
   27MOL    C24 3716   2.955   6.704   4.167 -0.5737 -0.3042 -0.5807
   27MOL    O25 3717   3.188   6.683   4.206  0.5577 -0.0107 -0.3314
   27MOL    H26 3718   3.045   6.559   4.293  0.3667 -0.6480 -1.0790
   27MOL    H27 3719   2.984   6.683   4.064  2.8757  3.2398 -0.4603
   27MOL    H28 3720   2.945   6.812   4.179  1.1809 -0.2021  0.1605
   27MOL    H29 3721   2.859   6.663   4.199 -1.8150  1.9970 -1.2242
   27MOL    C30 3722   3.293   6.644   4.285 -0.3587  0.2274 -0.0252
   27MOL    C31 3723   3.360   6.520   4.221  0.2560  0.2732 -0.5147
   27MOL    O32 3724   3.391   6.742   4.296  0.0148  0.0243 -1.1043
   27MOL    H33 3725   3.260   6.624   4.388  0.7272 -3.3710 -0.3366
   27MOL    H34 3726   3.293   6.434   4.216 -1.1680  1.3869 -0.8414
   27MOL    H35 3727   3.430   6.492   4.300  1.4558  2.5468 -0.7276
   27MOL    H36 3728   3.407   6.542   4.125 -3.0425  1.3322 -1.9564
   27MOL    C37 3729   3.359   6.857   4.366  0.2029 -0.3651 -0.3310
   27MOL    C38 3730   3.484   6.890   4.451  0.4254 -0.6807 -0.1249
   27MOL    O39 3731   3.357   6.972   4.285  0.0421  0.2997  0.5655
   27MOL    H40 3732   3.267   6.841   4.423  0.9792  1.2665  1.4205
   27MOL    H41 3733   3.555   6.947   4.391 -1.3850  0.9907 -0.7022
   27MOL    H42 3734   3.533   6.798   4.485  1.4489 -0.4179 -0.8636
   27MOL    H43 3735   3.473   6.953   4.539 -0.8380  1.9135 -2.0608
   27MOL    C44 3736   3.233   7.002   4.220 -0.3132  0.0682 -0.9319
   27MOL    C45 3737   3.178   7.128   4.278 -0.1583  0.8244 -0.3772
   27MOL    O46 3738   3.256   7.027   4.083 -0.4437 -0.5967  0.3534
   27MOL    H47 3739   3.168   6.916   4.233  1.7519 -1.3424  0.4786
   27MOL    H48 3740   3.258   7.199   4.254  0.8178 -0.6749 -1.6638
   27MOL    H49 3741   3.165   7.124   4.386 -0.2830  0.0505 -0.4215
   27MOL    H50 3742   3.081   7.157   4.239  1.5119  3.0556 -3.0982
   27MOL    C51 3743   3.272   6.917   3.998  0.0091 -0.0492  0.2946
   27MOL    C52 3744   3.151   6.907   3.902  0.2276 -0.6604  0.4622
   27MOL    O53 3745   3.385   6.927   3.919 -0.1753 -0.0163  0.2949
   27MOL    H54 3746   3.262   6.832   4.065 -0.4343  1.3360  2.0396
   27MOL    H55 3747   3.154   6.995   3.838 -0.3545 -1.5692 -0.8299
   27MOL    H56 3748   3.061   6.920   3.961 -0.3967  0.8860 -0.7817
   27MOL    H57 3749   3.152   6.818   3.840  0.8800  1.4216 -2.6521
   27MOL    C58 3750   3.504   6.919   3.995  0.6619  0.1305 -0.5096
   27MOL    C59 3751   3.573   6.792   3.950  0.0547 -0.5700 -0.1751
   27MOL    O60 3752   3.599   7.023   3.964  0.0602 -0.3425 -0.5644
   27MOL    H61 3753   3.489   6.919   4.103  0.7281  0.6450 -0.5009
   27MOL    H62 3754   3.613   6.813   3.851 -2.5607  2.1499 -0.7280
   27MOL    H63 3755   3.501   6.710   3.946 -0.4571 -0.0829 -1.1083
   27MOL    H64 3756   3.657   6.769   4.015 -1.0117  0.9899  1.7990
   27MOL    C65 3757   3.578   7.130   4.047  1.3032 -0.4505 -0.0846
   27MOL    C66 3758   3.687   7.123   4.161  0.2489 -0.5729  0.5062
   27MOL    O67 3759   3.606   7.247   3.976 -0.1571 -0.4583 -0.2142
   27MOL    H68 3760   3.479   7.137   4.094  0.8122 -2.2946 -0.7833
   27MOL    H69 3761   3.786   7.124   4.116  1.2687  1.8365  2.6607
   27MOL    H70 3762   3.689   7.031   4.220 -1.5250  0.6956  2.6436
   27MOL    H71 3763   3.689   7.200   4.238 -2.8395 -1.7795  1.8884
   27MOL    C72 3764   3.497   7.283   3.899 -0.0412  0.3406 -0.0118
   27MOL    C73 3765   3.438   7.400   3.971 -0.1942 -0.4345 -0.8075
   27MOL    O74 3766   3.536   7.331   3.771 -0.1130 -0.0976  0.5813
   27MOL    H75 3767   3.415   7.212   3.889 -0.9293  1.5747 -1.9078
   27MOL    H76 3768   3.512   7.477   3.947  1.6903 -2.2919 -1.0953
   27MOL    H77 3769   3.441   7.388   4.079  1.3927 -2.5490 -1.0515
   27MOL    H78 3770   3.341   7.431   3.932 -0.7141 -0.0844  0.7645
   27MOL    C79 3771   3.553   7.234   3.678 -0.0021  0.5380 -0.4490
   27MOL    C80 3772   3.438   7.251   3.579  0.4099  0.5904 -0.1613
   27MOL    O81 3773   3.669   7.261   3.604  0.4505  0.0543 -0.1930
   27MOL    H82 3774   3.556   7.130   3.711  0.6876  0.8012  0.3259
   27MOL    H83 3775   3.443   7.178   3.498 -0.5914 -0.3957  0.6263
   27MOL    H84 3776   3.446   7.349   3.533  2.4604 -0.1941 -1.5205
   27MOL    H85 3777   3.347   7.231   3.637  0.2987  1.0696 -0.1703
   27MOL    C86 3778   3.792   7.227   3.661  0.1490  0.5368 -0.9471
   27MOL    C87 3779   3.820   7.073   3.653  0.6180  0.6407 -0.2894
   27MOL    O88 3780   3.887   7.304   3.589  0.1478 -0.3124 -0.3095
   27MOL    H89 3781   3.797   7.250   3.768  0.8133  0.8099 -1.0376
   27MOL    H90 3782   3.737   7.021   3.701  1.2482  0.1424  0.2656
   27MOL    H91 3783   3.906   7.047   3.715  0.6567 -1.1112 -1.0529
   27MOL    H92 3784   3.834   7.038   3.551 -2.6777 -1.0497 -0.2517
   27MOL    C93 3785   3.879   7.443   3.610  0.2971 -0.8134 -0.2530
   27MOL    C94 3786   3.990   7.465   3.716 -0.7332  0.1481  0.4112
   27MOL    O95 3787   3.905   7.506   3.491  0.2529  0.5350  0.1986
   27MOL    H96 3788   3.791   7.480   3.661  2.2644  0.9951  1.9296
   27MOL    H97 3789   3.983   7.561   3.768 -1.3597  0.6167 -0.5204
   27MOL    H98 3790   4.090   7.465   3.671 -1.0200  0.8039 -0.2428
   27MOL    H99 3791   3.981   7.386   3.790  0.5028 -0.3774  0.0111
   27MOL   C100 3792   3.795   7.497   3.402  0.9092  0.0229  0.6918
   27MOL   C101 3793   3.763   7.640   3.358 -0.6382 -0.8772 -0.2425
   27MOL   O102 3794   3.825   7.418   3.284  0.3056 -0.1620 -0.3074
   27MOL   H103 3795   3.710   7.456   3.455  0.8723  1.2952  1.6395
   27MOL   H104 3796   3.689   7.642   3.278  1.8339 -1.6985 -2.6617
   27MOL   H105 3797   3.847   7.692   3.311 -1.2712 -0.3977 -0.8524
   27MOL   H106 3798   3.719   7.695   3.441  0.5473  1.8818 -1.3822
   27MOL   C107 3799   3.793   7.289   3.290  0.8950  0.7106  1.0307
   27MOL   C108 3800   3.647   7.273   3.245  0.2459  0.9033 -0.7966
   27MOL   O109 3801   3.867   7.203   3.219 -0.3518  0.2014 -0.2215
   27MOL   H110 3802   3.805   7.259   3.394 -0.8297 -2.0535  0.4797
   27MOL   H111 3803   3.581   7.325   3.315 -0.1931 -0.9660  0.1950
   27MOL   H112 3804   3.622   7.167   3.246 -0.4655  1.0554  3.1039
   27MOL   H113 3805   3.637   7.299   3.139  0.0493 -0.1276 -1.0308
   27MOL   C114 3806   4.003   7.236   3.201  0.4122  0.4504  0.6788
   27MOL   C115 3807   4.071   7.150   3.303 -0.3054  0.2705  0.1814
   27MOL   O116 3808   4.047   7.203   3.072 -0.2506 -0.0200 -0.1821
   27MOL   H117 3809   4.027   7.340   3.228 -0.4205  0.5504  1.0587
   27MOL   H118 3810   4.034   7.178   3.402  0.0891  0.8963  0.1522
   27MOL   H119 3811   4.180   7.158   3.304 -0.4166  2.1567  1.9121
   27MOL   H120 3812   4.043   7.046   3.284  1.6851 -0.0868 -0.9156
   27MOL   C121 3813   3.997   7.287   2.973 -0.2120  0.2930  0.3263
   27MOL   C122 3814   4.113   7.355   2.922 -0.3537 -0.2672 -0.6465
   27MOL   O123 3815   3.956   7.211   2.862 -0.5949  0.6484 -0.5096
   27MOL   H124 3816   3.915   7.356   2.995 -0.8360 -0.8303  1.5539
   27MOL   H125 3817   4.137   7.450   2.970 -2.5935 -0.4247  0.8264
   27MOL   H126 3818   4.079   7.408   2.833 -3.6826 -0.6041  0.3634
   27MOL   H127 3819   4.202   7.298   2.895  0.4676 -0.3338  2.0577
   27MOL   C128 3820   3.836   7.140   2.885  0.0024 -0.0587 -0.1005
   27MOL   C129 3821   3.716   7.239   2.874 -0.5845  0.9203 -0.1089
   27MOL   O130 3822   3.829   7.047   2.776 -0.4161 -0.3123  0.0246
   27MOL   H131 3823   3.831   7.076   2.973  0.6350  1.9102  1.4056
   27MOL   H132 3824   3.634   7.166   2.875 -0.0895  0.3586 -0.0642
   27MOL   H133 3825   3.714   7.289   2.777  0.7486 -1.5911 -1.4863
   27MOL   H134 3826   3.711   7.308   2.958 -0.5537  0.7864  0.0040
   27MOL   C135 3827   3.897   6.924   2.793  0.0384  0.1847 -0.0363
   27MOL   C136 3828   3.816   6.826   2.876  0.3585  0.0199 -0.2433
   27MOL   O137 3829   3.914   6.869   2.666 -0.2613  0.1098  0.6319
   27MOL   H138 3830   3.998   6.938   2.832 -0.0653 -1.9896  1.0517
   27MOL   H139 3831   3.795   6.866   2.976 -1.5690 -1.1186 -0.1608
   27MOL   H140 3832   3.879   6.738   2.885  0.5644  0.3101  1.4280
   27MOL   H141 3833   3.721   6.815   2.823  1.5528 -1.7726 -2.0486
   27MOL   H142 3834   3.967   6.925   2.612 -0.5786  0.4205  0.6393
   28MOL     C1 3835   1.195   4.660   1.885  0.6394 -0.7590 -0.1073
   28MOL     C2 3836   1.091   4.615   1.986  0.0365 -0.0802 -0.3900
   28MOL     O3 3837   1.191   4.572   1.769 -0.2924 -0.0809  0.2253
   28MOL     H4 3838   1.290   4.661   1.937  0.1506  0.5211  0.8009
   28MOL     H5 3839   1.000   4.586   1.933 -0.7990  1.9639 -0.1554
   28MOL     H6 3840   1.076   4.685   2.068  1.7903 -2.7656  2.3128
   28MOL     H7 3841   1.131   4.527   2.036 -1.9741  0.1012  1.6622
   28MOL     H8 3842   1.167   4.762   1.858  1.1550 -0.3582  0.8637
   28MOL     C9 3843   1.284   4.598   1.666 -0.1519 -0.4244  0.1492
   28MOL    C10 3844   1.370   4.480   1.638 -0.4548 -0.6030 -0.0702
   28MOL    O11 3845   1.211   4.622   1.545  0.2080  0.3834 -0.0696
   28MOL    H12 3846   1.345   4.685   1.688 -1.7895  1.5672 -2.8799
   28MOL    H13 3847   1.303   4.395   1.623 -2.9329  1.6311 -2.2160
   28MOL    H14 3848   1.428   4.464   1.728  1.9389 -0.5169 -1.5414
   28MOL    H15 3849   1.421   4.485   1.541 -0.8136  0.2551 -0.2187
   28MOL    C16 3850   1.140   4.741   1.549 -0.4238 -1.0909 -0.3452
   28MOL    C17 3851   1.201   4.839   1.456 -0.2561  0.4208  0.1245
   28MOL    O18 3852   1.006   4.728   1.502 -0.3437  0.0030 -0.4403
   28MOL    H19 3853   1.133   4.781   1.650 -0.9764  0.1876 -0.8763
   28MOL    H20 3854   1.158   4.939   1.471 -0.1251  0.7383 -1.5679
   28MOL    H21 3855   1.182   4.804   1.355 -0.0372  0.5435  0.0413
   28MOL    H22 3856   1.307   4.846   1.479 -0.5410 -0.6596  1.8452
   28MOL    C23 3857   0.921   4.662   1.595  0.1828 -0.2846  0.1596
   28MOL    C24 3858   0.810   4.755   1.616 -0.1562  0.7509  0.0951
   28MOL    O25 3859   0.869   4.541   1.546 -0.1360 -0.2504 -0.5770
   28MOL    H26 3860   0.981   4.647   1.685 -0.4357  1.0873  0.8082
   28MOL    H27 3861   0.839   4.851   1.659 -0.1571  0.0072  1.7927
   28MOL    H28 3862   0.733   4.704   1.675 -0.5962  0.0153 -1.0895
   28MOL    H29 3863   0.766   4.786   1.522 -0.5486 -2.8988 -1.0051
   28MOL    C30 3864   0.940   4.426   1.588  0.4236 -0.3641  0.5168
   28MOL    C31 3865   0.858   4.362   1.698 -0.6487 -0.5610 -0.2595
   28MOL    O32 3866   0.955   4.336   1.487 -0.1584  0.3815 -0.2571
   28MOL    H33 3867   1.038   4.447   1.632  0.2825  0.0448  0.6426
   28MOL    H34 3868   0.914   4.285   1.751 -0.8623 -2.6403 -2.9033
   28MOL    H35 3869   0.777   4.306   1.651 -1.2044 -0.5174  0.6478
   28MOL    H36 3870   0.823   4.433   1.773  1.0798  0.1401 -0.0859
   28MOL    C37 3871   1.047   4.368   1.383  0.0431 -0.1484  0.2783
   28MOL    C38 3872   1.147   4.255   1.366 -0.1028 -0.4082 -0.1811
   28MOL    O39 3873   0.975   4.369   1.266 -0.2352 -0.4652  0.7758
   28MOL    H40 3874   1.094   4.464   1.403  1.6610 -0.7236 -0.6483
   28MOL    H41 3875   1.214   4.301   1.293  0.6012 -1.6494 -0.3437
   28MOL    H42 3876   1.095   4.165   1.333 -1.3100  1.0431 -2.3751
   28MOL    H43 3877   1.198   4.224   1.457 -0.9796  1.4328  0.9696
   28MOL    C44 3878   0.920   4.494   1.233 -0.4991 -0.2781 -0.1055
   28MOL    C45 3879   1.009   4.555   1.121  0.3119 -0.4666 -0.3731
   28MOL    O46 3880   0.795   4.480   1.185 -0.4554 -0.4465 -0.5122
   28MOL    H47 3881   0.914   4.565   1.316  1.0261 -2.6134  2.0606
   28MOL    H48 3882   0.976   4.657   1.100  1.0343  0.0953  1.1203
   28MOL    H49 3883   0.998   4.505   1.025  2.0428  2.1963 -2.0637
   28MOL    H50 3884   1.115   4.544   1.146  0.5010 -2.7639 -2.1142
   28MOL    C51 3885   0.693   4.458   1.274 -0.4762 -0.1630 -0.1099
   28MOL    C52 3886   0.617   4.597   1.292 -0.7410 -0.2339  0.1519
   28MOL    O53 3887   0.605   4.375   1.215 -0.5374 -0.4639  0.3271
   28MOL    H54 3888   0.715   4.409   1.369  2.3185 -2.1509 -1.7042
   28MOL    H55 3889   0.675   4.672   1.345 -0.7223  1.0237 -1.6087
   28MOL    H56 3890   0.530   4.585   1.357 -1.2440  1.8783 -0.1147
   28MOL    H57 3891   0.593   4.629   1.191  1.8234 -0.4635 -0.5656
   28MOL    C58 3892   0.647   4.240   1.221  0.6196  0.2244 -0.1458
   28MOL    C59 3893   0.582   4.182   1.348  0.3486  0.2768 -0.0466
   28MOL    O60 3894   0.593   4.168   1.114  0.4767 -0.2000 -0.4644
   28MOL    H61 3895   0.755   4.231   1.235  0.7272 -0.4755 -1.3271
   28MOL    H62 3896   0.475   4.201   1.335  0.7352  1.4543 -1.6747
   28MOL    H63 3897   0.633   4.229   1.432 -0.0846 -1.2915  1.1073
   28MOL    H64 3898   0.588   4.074   1.354 -2.2379 -0.0157 -1.7474
   28MOL    C65 3899   0.637   4.210   0.990  0.3669 -0.0528 -0.2144
   28MOL    C66 3900   0.743   4.113   0.943 -0.1400  0.7132 -0.5950
   28MOL    O67 3901   0.537   4.215   0.897  0.4276 -0.1508 -0.3121
   28MOL    H68 3902   0.681   4.310   0.980  1.0615 -0.1987  1.1856
   28MOL    H69 3903   0.760   4.120   0.836  0.6929 -0.0135 -0.5169
   28MOL    H70 3904   0.693   4.016   0.954  1.1852  0.2086  1.2379
   28MOL    H71 3905   0.834   4.126   1.001 -1.3517  0.2248  1.4678
   28MOL    C72 3906   0.468   4.339   0.911 -0.1838  0.3490  0.1077
   28MOL    C73 3907   0.478   4.422   0.790 -0.5815 -0.7859  0.1542
   28MOL    O74 3908   0.337   4.308   0.925  0.3575 -0.5603 -0.0891
   28MOL    H75 3909   0.499   4.400   0.995  0.8123  0.3548 -0.2606
   28MOL    H76 3910   0.584   4.437   0.770 -0.7562  0.0998 -0.1272
   28MOL    H77 3911   0.422   4.514   0.811  1.0156  0.4824 -1.0089
   28MOL    H78 3912   0.427   4.380   0.703  1.3363  0.7275 -1.7530
   28MOL    C79 3913   0.294   4.281   1.053 -0.3922  0.2116 -0.3625
   28MOL    C80 3914   0.253   4.418   1.109 -0.6835  0.2677 -0.3969
   28MOL    O81 3915   0.175   4.203   1.037  0.0696  0.3516  0.1791
   28MOL    H82 3916   0.364   4.225   1.116 -2.4368 -1.2780  0.6303
   28MOL    H83 3917   0.337   4.486   1.108  0.1376 -0.7008  0.8136
   28MOL    H84 3918   0.225   4.412   1.215  0.2246 -0.1482 -0.1739
   28MOL    H85 3919   0.164   4.457   1.060 -2.6320 -2.1533  1.0785
   28MOL    C86 3920   0.151   4.095   1.125 -0.1223 -0.4473 -0.2201
   28MOL    C87 3921   7.912   4.092   1.141  0.6965  0.1813 -0.3517
   28MOL    O88 3922   0.176   3.966   1.066  0.0089 -0.3797 -0.0332
   28MOL    H89 3923   0.194   4.095   1.225 -0.9706  0.2004  0.1465
   28MOL    H90 3924   7.860   4.096   1.046  2.2127  0.1544 -1.1950
   28MOL    H91 3925   7.876   4.179   1.196  1.4958  2.2295 -2.9612
   28MOL    H92 3926   7.879   4.011   1.206 -0.5073  1.6736  0.9532
   28MOL    C93 3927   0.302   3.952   1.011 -0.5164  0.7149 -0.2890
   28MOL    C94 3928   0.401   3.892   1.115 -0.0007 -0.0544  0.2101
   28MOL    O95 3929   0.313   3.879   0.891  0.3034 -0.2619  0.5037
   28MOL    H96 3930   0.346   4.051   0.999  1.0537  0.0112 -0.4750
   28MOL    H97 3931   0.372   3.788   1.131  0.4109 -0.3439 -0.8611
   28MOL    H98 3932   0.381   3.948   1.206  1.1571 -0.5177  0.7656
   28MOL    H99 3933   0.502   3.904   1.077  0.1645  1.9592  1.2285
   28MOL   C100 3934   0.267   3.955   0.780 -0.4168 -0.3997 -0.1649
   28MOL   C101 3935   0.393   3.983   0.688 -0.0384 -0.4349 -0.2595
   28MOL   O102 3936   0.182   3.873   0.709  0.7544  0.0770 -0.3238
   28MOL   H103 3937   0.216   4.051   0.791 -1.2682 -0.8456 -0.1753
   28MOL   H104 3938   0.471   4.035   0.744  0.1935  0.1755 -1.1397
   28MOL   H105 3939   0.357   4.022   0.593 -0.2885  1.7677  0.6945
   28MOL   H106 3940   0.423   3.882   0.660  2.1258 -0.3870  1.7606
   28MOL   C107 3941   0.050   3.867   0.756 -0.7699  0.3205 -0.4775
   28MOL   C108 3942   7.883   3.949   0.656 -0.5216  0.0632 -0.2963
   28MOL   O109 3943   7.909   3.740   0.764 -0.2897  0.2173  0.0734
   28MOL   H110 3944   0.032   3.912   0.854 -2.3833 -2.1352  0.4107
   28MOL   H111 3945   7.904   4.052   0.684 -1.3103  0.6474 -1.8134
   28MOL   H112 3946   7.780   3.927   0.682 -0.3789 -1.8175 -1.2140
   28MOL   H113 3947   7.906   3.927   0.552 -0.1207  1.0298 -0.4183
   28MOL   C114 3948   0.053   3.665   0.865 -0.7805 -0.6727 -0.2713
   28MOL   C115 3949   7.866   3.637   0.975 -0.0897  0.4694 -0.3703
   28MOL   O116 3950   0.093   3.542   0.815  0.1634 -0.6074 -0.3381
   28MOL   H117 3951   0.136   3.718   0.914  0.5771 -0.1771 -3.0034
   28MOL   H118 3952   0.005   3.571   1.043 -1.5173  1.5734  1.9003
   28MOL   H119 3953   7.772   3.594   0.941  0.8747 -2.8070  0.9407
   28MOL   H120 3954   7.853   3.733   1.026 -0.5394  0.9532 -1.3855
   28MOL   C121 3955   0.221   3.541   0.755 -0.0075  0.4369  0.2290
   28MOL   C122 3956   0.314   3.477   0.855  0.4268  0.4140  0.3070
   28MOL   O123 3957   0.223   3.456   0.647 -0.0759  0.3326  0.2350
   28MOL   H124 3958   0.240   3.644   0.727  2.7005 -0.1666 -0.2529
   28MOL   H125 3959   0.328   3.542   0.941 -1.1667  1.5399 -0.2587
   28MOL   H126 3960   0.408   3.458   0.802  0.2762  2.8622 -0.9048
   28MOL   H127 3961   0.274   3.379   0.882 -2.2450  1.3144 -0.3068
   28MOL   C128 3962   0.177   3.505   0.519  0.4423 -0.3451  0.1711
   28MOL   C129 3963   0.278   3.455   0.410  0.2326 -0.2505 -0.3086
   28MOL   O130 3964   0.056   3.449   0.485 -0.0761  0.3003 -0.3886
   28MOL   H131 3965   0.180   3.614   0.522  0.5897 -0.3200 -0.7598
   28MOL   H132 3966   0.236   3.479   0.313 -0.2068 -0.3144 -0.1362
   28MOL   H133 3967   0.288   3.347   0.423 -2.9168 -0.7734 -1.7434
   28MOL   H134 3968   0.373   3.505   0.431  0.9621 -1.5304 -0.5173
   28MOL   C135 3969   7.854   3.527   0.499 -0.7431 -0.3562  0.7781
   28MOL   C136 3970   7.758   3.467   0.399 -0.5645 -0.2744 -0.9241
   28MOL   O137 3971   7.794   3.517   0.627 -0.0686 -0.2914 -0.3662
   28MOL   H138 3972   7.874   3.632   0.477 -3.3235 -0.2890 -1.5849
   28MOL   H139 3973   7.797   3.465   0.297  2.3585  1.4339  0.1058
   28MOL   H140 3974   7.670   3.531   0.385 -1.2074 -0.0169  3.6676
   28MOL   H141 3975   7.718   3.372   0.432 -2.2416  0.9638  0.7454
   28MOL   H142 3976   7.852   3.558   0.689 -0.3308  1.3521 -1.1721
   29MOL     C1 3977   2.434   0.020   5.810 -0.5881 -0.0432 -0.4255
   29MOL     C2 3978   2.508   7.865   5.691  0.6473 -0.4182 -0.3422
   29MOL     O3 3979   2.296   7.913   5.802  0.3666 -0.3325  0.8322
   29MOL     H4 3980   2.464   0.125   5.805 -0.8632 -0.0312 -2.2669
   29MOL     H5 3981   2.614   7.873   5.712  0.4972 -0.5283  0.4610
   29MOL     H6 3982   2.484   7.914   5.596  3.2184  0.8104 -0.4147
   29MOL     H7 3983   2.484   7.761   5.672 -2.1442  0.0598  0.3578
   29MOL     H8 3984   2.472   7.901   5.906 -0.5941  0.6498 -0.1802
   29MOL     C9 3985   2.224   0.027   5.916  0.2190  0.3017  0.0501
   29MOL    C10 3986   2.169   0.173   5.894  0.0995 -0.0596  0.7180
   29MOL    O11 3987   2.112   7.859   5.922 -0.5567 -0.1041 -0.1027
   29MOL    H12 3988   2.276   0.019   6.012  2.2989  0.7772 -1.0119
   29MOL    H13 3989   2.249   0.247   5.895 -1.1959  1.4454 -1.5202
   29MOL    H14 3990   2.101   0.182   5.978  1.0845  1.3170  1.3898
   29MOL    H15 3991   2.118   0.173   5.798  0.2666  2.9852  0.5903
   29MOL    C16 3992   2.138   7.739   5.976 -0.0133 -0.6730 -0.0165
   29MOL    C17 3993   2.020   7.728   6.068  0.5949  0.0052 -0.2350
   29MOL    O18 3994   2.126   7.649   5.869  0.0726 -0.5194  0.2132
   29MOL    H19 3995   2.228   7.737   6.037 -0.5059 -0.2250  0.7287
   29MOL    H20 3996   1.927   7.748   6.015 -2.2738 -2.0585  3.7251
   29MOL    H21 3997   2.024   7.780   6.163  0.7797 -0.0297 -0.2247
   29MOL    H22 3998   2.012   7.623   6.098  0.4809  0.3069  0.8008
   29MOL    C23 3999   2.249   7.598   5.818 -0.6084  0.5186  0.8224
   29MOL    C24 4000   2.297   7.480   5.906 -0.4763 -0.1575 -0.9491
   29MOL    O25 4001   2.230   7.543   5.696  0.5306  0.0168 -0.5567
   29MOL    H26 4002   2.323   7.678   5.820  1.0875 -1.0360  2.8505
   29MOL    H27 4003   2.390   7.438   5.869 -0.2392  0.1808 -0.7356
   29MOL    H28 4004   2.228   7.395   5.897 -0.4422 -0.7102  3.2411
   29MOL    H29 4005   2.323   7.506   6.008  1.6341  1.0497 -1.7683
   29MOL    C30 4006   2.216   7.631   5.588 -0.5882 -0.5533  0.1810
   29MOL    C31 4007   2.286   7.558   5.475 -0.2411 -0.1604  0.2763
   29MOL    O32 4008   2.087   7.668   5.543  0.3382 -0.0316  0.0234
   29MOL    H33 4009   2.276   7.720   5.608 -1.8989  0.2175  0.7512
   29MOL    H34 4010   2.262   7.612   5.384  1.5819 -0.2127 -0.2620
   29MOL    H35 4011   2.243   7.458   5.475 -2.4956  0.7905  0.0614
   29MOL    H36 4012   2.391   7.542   5.501  0.1518 -0.2283 -1.3449
   29MOL    C37 4013   2.061   7.804   5.564 -0.6210  0.0551  0.5760
   29MOL    C38 4014   2.117   7.892   5.447  0.7211  0.0401 -0.1575
   29MOL    O39 4015   1.927   7.818   5.573  0.4253  0.0973 -0.4484
   29MOL    H40 4016   2.103   7.841   5.658 -0.4913 -0.5253  0.7485
   29MOL    H41 4017   2.225   7.885   5.446  0.8620  1.8176  1.1392
   29MOL    H42 4018   2.085   0.081   5.460  0.1963 -0.1894  0.4107
   29MOL    H43 4019   2.076   7.846   5.357  0.2740 -1.8392  0.9612
   29MOL    C44 4020   1.874   7.789   5.699  0.4269  0.1385 -0.7364
   29MOL    C45 4021   1.815   0.001   5.764 -0.6976  0.2758  0.2440
   29MOL    O46 4022   1.767   7.697   5.675 -0.3419 -0.5484  0.3617
   29MOL    H47 4023   1.933   7.750   5.782  0.2564  2.1844  0.3746
   29MOL    H48 4024   1.726   0.033   5.710  0.1581 -0.9745 -1.9577
   29MOL    H49 4025   1.892   0.078   5.760  0.0606 -0.5109 -0.5289
   29MOL    H50 4026   1.791   7.891   5.867 -0.9284  2.4017  0.7095
   29MOL    C51 4027   1.802   7.566   5.677  0.0983  0.0763 -0.4266
   29MOL    C52 4028   1.747   7.515   5.810  0.1926  0.7434 -0.4813
   29MOL    O53 4029   1.745   7.486   5.579  0.2301 -0.6139  0.0080
   29MOL    H54 4030   1.909   7.547   5.670  0.6654  2.1249  1.9204
   29MOL    H55 4031   1.803   7.569   5.886  1.8214  1.1400 -1.9266
   29MOL    H56 4032   1.778   7.411   5.823  1.8244  1.0205 -1.9858
   29MOL    H57 4033   1.638   7.515   5.812  0.2025  1.3670  0.6028
   29MOL    C58 4034   1.803   7.500   5.450 -0.3280  0.0802 -0.1891
   29MOL    C59 4035   1.874   7.369   5.414  0.0086 -0.3639  0.0374
   29MOL    O60 4036   1.706   7.515   5.356  0.5675  0.7727  0.3955
   29MOL    H61 4037   1.866   7.588   5.438 -1.6416  1.0562 -0.0397
   29MOL    H62 4038   1.972   7.365   5.462 -1.0339 -1.1138  2.1525
   29MOL    H63 4039   1.899   7.359   5.308 -3.3825  2.4966 -1.1203
   29MOL    H64 4040   1.815   7.285   5.452 -1.3837 -0.2679 -1.8263
   29MOL    C65 4041   1.651   7.645   5.356 -0.5209 -0.5837 -0.6241
   29MOL    C66 4042   1.677   7.712   5.216  0.1217 -0.2981  0.3018
   29MOL    O67 4043   1.516   7.644   5.368  0.2339 -0.1409  0.2605
   29MOL    H68 4044   1.701   7.702   5.433  1.8214 -1.4099 -1.5080
   29MOL    H69 4045   1.785   7.705   5.201  0.0358  1.3490 -1.1656
   29MOL    H70 4046   1.637   7.814   5.222 -0.0704 -0.3984  0.8068
   29MOL    H71 4047   1.628   7.650   5.142 -1.2509 -2.0111  2.5922
   29MOL    C72 4048   1.474   7.611   5.490 -0.2173  0.1533 -0.0360
   29MOL    C73 4049   1.403   7.735   5.538 -0.2132 -0.3286  1.1628
   29MOL    O74 4050   1.380   7.513   5.467  0.3238 -0.2046 -0.1825
   29MOL    H75 4051   1.542   7.581   5.570 -1.0794 -0.5138  0.4536
   29MOL    H76 4052   1.316   7.759   5.476  0.9370 -0.7805 -0.6481
   29MOL    H77 4053   1.471   7.820   5.544 -0.6763  0.1257 -0.0272
   29MOL    H78 4054   1.378   7.715   5.643 -0.5196  2.4814  1.6763
   29MOL    C79 4055   1.435   7.385   5.478 -0.1192 -0.5172  0.4515
   29MOL    C80 4056   1.400   7.331   5.619 -0.5525  0.3383  0.0898
   29MOL    O81 4057   1.373   7.306   5.378 -0.9644 -0.5146 -0.4392
   29MOL    H82 4058   1.543   7.376   5.467 -0.2411  0.6224 -2.0964
   29MOL    H83 4059   1.449   7.381   5.702  0.2844 -0.9441  0.3804
   29MOL    H84 4060   1.415   7.224   5.633  0.1628  0.7299  2.5107
   29MOL    H85 4061   1.292   7.339   5.633 -0.9868 -3.1595 -0.6516
   29MOL    C86 4062   1.407   7.338   5.249  0.0021  1.3444 -0.3411
   29MOL    C87 4063   1.516   7.241   5.210 -0.5631 -0.3519  0.1999
   29MOL    O88 4064   1.294   7.325   5.165  0.2669  0.3798 -0.2999
   29MOL    H89 4065   1.428   7.444   5.241 -1.8634  1.5930 -2.5417
   29MOL    H90 4066   1.477   7.139   5.215 -1.2486 -0.1527 -0.8971
   29MOL    H91 4067   1.595   7.253   5.283 -1.3837 -1.5913  1.3250
   29MOL    H92 4068   1.557   7.255   5.110  0.7239  1.3777  0.9367
   29MOL    C93 4069   1.195   7.422   5.194 -0.2660  0.5154 -0.6555
   29MOL    C94 4070   1.200   7.514   5.072  0.1743 -0.1809 -0.4305
   29MOL    O95 4071   1.070   7.364   5.203  0.2046  0.1740  0.5267
   29MOL    H96 4072   1.222   7.482   5.281  2.9859 -0.3728 -0.9631
   29MOL    H97 4073   1.297   7.538   5.029 -0.9042  1.2980 -2.1258
   29MOL    H98 4074   1.153   7.607   5.104 -1.4526 -1.3579  0.6718
   29MOL    H99 4075   1.129   7.471   5.001 -1.8370  0.0514  1.3989
   29MOL   C100 4076   1.047   7.306   5.328 -0.3034  0.4780  0.0728
   29MOL   C101 4077   0.950   7.396   5.405  0.3982  0.5497 -0.3340
   29MOL   O102 4078   0.984   7.178   5.312 -0.5982 -0.2636  0.2861
   29MOL   H103 4079   1.133   7.295   5.394  0.4319  0.8495 -0.8255
   29MOL   H104 4080   0.856   7.404   5.350  0.3133  1.1326 -0.1012
   29MOL   H105 4081   0.989   7.496   5.419  0.0166  0.8759 -1.4954
   29MOL   H106 4082   0.926   7.346   5.499 -0.7222  2.1513  0.2538
   29MOL   C107 4083   1.061   7.087   5.240 -0.4500  0.3281 -0.5678
   29MOL   C108 4084   1.110   6.994   5.341  0.1861  0.8501 -0.0737
   29MOL   O109 4085   0.995   7.008   5.154 -0.3408  0.2180  0.2751
   29MOL   H110 4086   1.145   7.130   5.186 -0.6756 -0.0369 -1.2125
   29MOL   H111 4087   1.025   6.964   5.403  0.6350 -4.3009 -1.7203
   29MOL   H112 4088   1.188   7.027   5.410  1.1462 -0.2460 -0.5996
   29MOL   H113 4089   1.146   6.905   5.289 -0.0774  0.9680 -0.4571
   29MOL   C114 4090   0.919   7.079   5.058  0.1916  0.0915  0.3390
   29MOL   C115 4091   1.001   7.079   4.922  0.3957 -0.1034 -0.6095
   29MOL   O116 4092   0.794   7.012   5.046 -0.1684  0.2289 -0.1573
   29MOL   H117 4093   0.907   7.186   5.080 -0.8884  0.0189  0.1279
   29MOL   H118 4094   1.022   6.975   4.896 -0.5996 -0.4491 -0.0628
   29MOL   H119 4095   1.093   7.131   4.950  0.7671 -1.2508  0.3780
   29MOL   H120 4096   0.949   7.137   4.846 -0.4457  0.5623  0.4632
   29MOL   C121 4097   0.712   7.045   5.154  0.2896 -0.5220  0.4101
   29MOL   C122 4098   0.618   7.159   5.107 -0.2774  0.7692 -0.0509
   29MOL   O123 4099   0.639   6.939   5.187 -0.5478 -0.0423 -0.1278
   29MOL   H124 4100   0.769   7.071   5.244  0.4287 -2.8143  1.0235
   29MOL   H125 4101   0.540   7.181   5.181 -0.8304  0.5851 -0.5772
   29MOL   H126 4102   0.563   7.135   5.016  0.0172 -1.7246  0.3979
   29MOL   H127 4103   0.681   7.246   5.088  0.8662  0.0489  0.4021
   29MOL   C128 4104   0.722   6.844   5.246 -0.2993  1.1834 -0.8203
   29MOL   C129 4105   0.673   6.823   5.387 -0.1796  0.1510 -0.0982
   29MOL   O130 4106   0.714   6.722   5.191  0.3638  0.6863  0.1420
   29MOL   H131 4107   0.828   6.868   5.254  0.2843 -1.3395 -0.6641
   29MOL   H132 4108   0.672   6.912   5.449 -2.6918 -0.7200  1.1756
   29MOL   H133 4109   0.731   6.742   5.431 -0.2836  0.1440  0.0239
   29MOL   H134 4110   0.573   6.778   5.383  0.5326 -1.4272 -0.9798
   29MOL   C135 4111   0.793   6.700   5.079 -0.0319  0.0140  0.5864
   29MOL   C136 4112   0.807   6.547   5.059  0.5087  0.2942  0.2295
   29MOL   O137 4113   0.745   6.763   4.961 -0.2793  0.1544  0.3146
   29MOL   H138 4114   0.893   6.740   5.097  0.0145 -0.5590  1.6935
   29MOL   H139 4115   0.709   6.499   5.063  0.4668  0.3216 -0.4067
   29MOL   H140 4116   0.868   6.494   5.131 -1.5393 -0.4922  1.4345
   29MOL   H141 4117   0.848   6.535   4.959 -0.7637 -1.1562 -0.1384
   29MOL   H142 4118   0.711   6.849   4.981 -0.1745  1.0733 -3.0052
   30MOL     C1 4119   3.252   3.479   5.411 -0.3178 -0.3530 -0.2132
   30MOL     C2 4120   3.403   3.491   5.409 -0.3494  0.5713  0.5639
   30MOL     O3 4121   3.203   3.518   5.282 -0.0546 -0.0999 -0.3533
   30MOL     H4 4122   3.207   3.533   5.494  0.0168 -0.8491  0.2978
   30MOL     H5 4123   3.445   3.465   5.507  0.3217  1.0875  0.4164
   30MOL     H6 4124   3.436   3.591   5.382  3.1214 -0.8882 -0.8861
   30MOL     H7 4125   3.449   3.434   5.328 -0.2646  1.9330 -0.3626
   30MOL     H8 4126   3.237   3.372   5.420 -1.8947 -0.1047  0.1041
   30MOL     C9 4127   3.070   3.505   5.273 -0.3000 -0.2549  0.2136
   30MOL    C10 4128   3.030   3.560   5.136 -1.1132  0.3654  0.1914
   30MOL    O11 4129   3.027   3.374   5.289 -0.2152  0.3828  0.5998
   30MOL    H12 4130   3.029   3.580   5.341  2.0772  1.4886 -0.2247
   30MOL    H13 4131   3.071   3.494   5.059  2.5410  1.8145  0.7687
   30MOL    H14 4132   3.076   3.653   5.103  0.7441 -0.1290  1.2986
   30MOL    H15 4133   2.923   3.575   5.124 -1.5017 -0.8897  1.8482
   30MOL    C16 4134   2.943   3.352   5.395 -0.4065  0.2423  1.1852
   30MOL    C17 4135   2.890   3.212   5.382  0.7404 -0.4305 -0.2891
   30MOL    O18 4136   3.004   3.365   5.523  0.3109 -0.4138  0.0328
   30MOL    H19 4137   2.865   3.427   5.387 -1.6278 -0.9171  1.9561
   30MOL    H20 4138   2.832   3.212   5.290 -1.5519 -1.0186  1.1263
   30MOL    H21 4139   2.822   3.180   5.461 -0.7206 -0.9264 -1.7258
   30MOL    H22 4140   2.968   3.138   5.364  0.8221 -0.7241  1.2266
   30MOL    C23 4141   2.921   3.439   5.609  0.2803 -0.6398  0.0083
   30MOL    C24 4142   2.990   3.418   5.754 -0.4219 -0.0280  0.4039
   30MOL    O25 4143   2.915   3.576   5.575 -0.1223  0.0579  0.3257
   30MOL    H26 4144   2.821   3.396   5.605 -0.4198  1.0623 -1.0808
   30MOL    H27 4145   3.088   3.462   5.774  0.1167 -2.5185  3.5153
   30MOL    H28 4146   3.005   3.314   5.779  0.6715 -0.5314 -2.1543
   30MOL    H29 4147   2.911   3.450   5.822  1.5863  3.2428  1.3624
   30MOL    C30 4148   2.794   3.635   5.604 -0.9158  0.2042 -0.1973
   30MOL    C31 4149   2.789   3.755   5.524  0.6998  0.2675 -0.5469
   30MOL    O32 4150   2.690   3.568   5.544  0.1335  0.3362 -0.3280
   30MOL    H33 4151   2.781   3.654   5.711  1.7628 -0.4625  0.2687
   30MOL    H34 4152   2.795   3.736   5.417  2.5921 -1.3953 -0.1606
   30MOL    H35 4153   2.873   3.815   5.559  1.4157 -0.6128 -0.7365
   30MOL    H36 4154   2.696   3.804   5.554  0.9350  0.6371 -0.4130
   30MOL    C37 4155   2.564   3.558   5.618  0.2070 -0.1399  0.4355
   30MOL    C38 4156   2.480   3.512   5.497  0.0322  0.6275 -0.0853
   30MOL    O39 4157   2.558   3.449   5.711 -0.1018 -0.2541 -0.1203
   30MOL    H40 4158   2.545   3.658   5.659  3.2875  1.4279 -1.7140
   30MOL    H41 4159   2.375   3.526   5.520 -0.5301 -0.1039 -2.1546
   30MOL    H42 4160   2.492   3.406   5.478 -1.3873  0.1419  1.5882
   30MOL    H43 4161   2.485   3.576   5.409 -0.5373 -0.0225 -0.5935
   30MOL    C44 4162   2.539   3.489   5.845 -0.1998  1.3753  0.1938
   30MOL    C45 4163   2.517   3.357   5.926  0.2061 -0.2156 -0.0400
   30MOL    O46 4164   2.649   3.561   5.897  0.0964 -0.5554  0.0570
   30MOL    H47 4165   2.446   3.545   5.855 -0.5247  0.8790 -0.0259
   30MOL    H48 4166   2.510   3.370   6.034 -1.3568  0.1568 -0.1789
   30MOL    H49 4167   2.609   3.301   5.909  0.0001 -0.7762  0.6889
   30MOL    H50 4168   2.438   3.287   5.900 -0.0540  0.0269  0.0992
   30MOL    C51 4169   2.610   3.664   5.984  0.2171 -0.1838 -0.1308
   30MOL    C52 4170   2.714   3.677   6.095  0.0953 -0.1461  0.5866
   30MOL    O53 4171   2.607   3.784   5.908 -0.3525 -0.1424  0.2269
   30MOL    H54 4172   2.515   3.646   6.034  0.0036 -0.8587 -0.7683
   30MOL    H55 4173   2.812   3.699   6.053  0.1295 -0.6872  0.3780
   30MOL    H56 4174   2.711   3.585   6.152  0.6728 -1.0396 -0.8042
   30MOL    H57 4175   2.685   3.761   6.159  0.2639  0.4214 -0.0717
   30MOL    C58 4176   2.489   3.857   5.922  0.0375  1.0969 -0.2024
   30MOL    C59 4177   2.512   3.990   5.857 -0.5398  0.2105 -0.4209
   30MOL    O60 4178   2.384   3.791   5.856 -0.4532 -0.1694 -0.3625
   30MOL    H61 4179   2.473   3.863   6.030 -0.7244 -1.8709 -0.1032
   30MOL    H62 4180   2.509   3.979   5.748 -1.2742  1.6818 -0.5563
   30MOL    H63 4181   2.610   4.027   5.888  0.0902 -0.9056 -1.0658
   30MOL    H64 4182   2.434   4.062   5.882 -1.9341 -0.9714 -1.3102
   30MOL    C65 4183   2.270   3.787   5.933  0.0748  0.3035 -0.0716
   30MOL    C66 4184   2.152   3.765   5.844 -0.1734 -0.7146 -0.4514
   30MOL    O67 4185   2.274   3.675   6.019  0.0525  0.0752 -0.1894
   30MOL    H68 4186   2.254   3.886   5.974 -0.6007  0.6025 -1.0348
   30MOL    H69 4187   2.167   3.687   5.769 -0.2978 -2.5936  1.4194
   30MOL    H70 4188   2.125   3.860   5.799 -1.5379 -0.5598  0.6610
   30MOL    H71 4189   2.066   3.724   5.897 -0.0753 -1.5422 -0.9161
   30MOL    C72 4190   2.244   3.703   6.142 -0.0654 -0.5951 -0.0702
   30MOL    C73 4191   2.181   3.587   6.209  0.2732  0.0660 -0.4130
   30MOL    O74 4192   2.354   3.757   6.208 -0.2453 -0.6094  0.2053
   30MOL    H75 4193   2.168   3.780   6.132 -0.0503 -0.4937  0.5413
   30MOL    H76 4194   2.260   3.513   6.223 -0.0145  0.0541  1.2256
   30MOL    H77 4195   2.093   3.547   6.160  0.2129 -0.9909  0.5501
   30MOL    H78 4196   2.158   3.613   6.313 -2.6057  0.9336 -1.2181
   30MOL    C79 4197   2.330   3.856   6.299 -0.5360  0.0490  0.0867
   30MOL    C80 4198   2.471   3.895   6.346 -0.5276  0.2763  0.3049
   30MOL    O81 4199   2.279   3.964   6.232  0.2482 -0.2203 -0.3384
   30MOL    H82 4200   2.268   3.821   6.382 -0.4447  0.3547  0.2837
   30MOL    H83 4201   2.458   3.967   6.426  1.3693  0.0161  0.8708
   30MOL    H84 4202   2.528   3.950   6.272 -0.4691  1.6935  1.4001
   30MOL    H85 4203   2.522   3.808   6.388 -0.5862  1.1013  2.0869
   30MOL    C86 4204   2.174   4.021   6.304  0.3503  0.3793 -0.4178
   30MOL    C87 4205   2.133   4.140   6.224  0.7699  0.2731 -0.3740
   30MOL    O88 4206   2.063   3.938   6.309  0.0188  1.0331  0.1403
   30MOL    H89 4207   2.216   4.057   6.398 -0.5912  1.6664 -0.4738
   30MOL    H90 4208   2.062   4.207   6.273  0.8358  2.3874 -3.0299
   30MOL    H91 4209   2.094   4.087   6.137  0.9994 -1.2023  0.4134
   30MOL    H92 4210   2.230   4.186   6.201  0.9568  0.3588  0.5682
   30MOL    C93 4211   1.992   3.938   6.431  0.1231  0.4719  0.3820
   30MOL    C94 4212   1.876   3.833   6.424 -0.2481 -1.0100 -0.1768
   30MOL    O95 4213   2.070   3.906   6.539 -0.3066  0.2794 -0.4495
   30MOL    H96 4214   1.949   4.037   6.450 -1.0356  0.2889 -1.1955
   30MOL    H97 4215   1.839   3.833   6.526  0.9956 -2.6007  0.2960
   30MOL    H98 4216   1.922   3.737   6.402 -1.7994 -1.8430  0.1420
   30MOL    H99 4217   1.809   3.870   6.346  0.8029  1.3048 -0.0350
   30MOL   C100 4218   2.043   3.988   6.654  0.1244 -0.3956 -0.2057
   30MOL   C101 4219   2.132   3.924   6.763  0.1746  0.7154  0.0546
   30MOL   O102 4220   2.076   4.123   6.642  0.2523 -0.0588 -0.2490
   30MOL   H103 4221   1.937   3.981   6.679 -0.0799  3.1586  0.1634
   30MOL   H104 4222   2.121   3.818   6.787 -0.1298  0.7411  0.0285
   30MOL   H105 4223   2.114   3.981   6.855 -1.4385 -1.8102  1.3580
   30MOL   H106 4224   2.235   3.946   6.736 -0.2843  2.0837 -0.6365
   30MOL   C107 4225   1.985   4.219   6.691 -0.1133 -1.2687 -0.6244
   30MOL   C108 4226   2.071   4.357   6.707 -0.8105  0.1658 -0.6077
   30MOL   O109 4227   1.872   4.244   6.614  0.1846  0.6982  0.3588
   30MOL   H110 4228   1.968   4.191   6.795 -1.0503 -0.9791 -0.7010
   30MOL   H111 4229   2.113   4.390   6.612  3.6404 -2.9084  0.1259
   30MOL   H112 4230   2.153   4.341   6.778 -0.6167 -0.5676 -0.9840
   30MOL   H113 4231   2.006   4.433   6.750  1.2319  0.7197  1.6763
   30MOL   C114 4232   1.755   4.214   6.693  0.1003  0.1696 -0.2713
   30MOL   C115 4233   1.628   4.271   6.629 -0.6009  1.0462 -0.4669
   30MOL   O116 4234   1.733   4.074   6.719  0.4757 -0.4882 -0.2977
   30MOL   H117 4235   1.773   4.262   6.789 -0.4556  1.7145 -0.9298
   30MOL   H118 4236   1.652   4.363   6.577 -1.8744  1.7512  0.1851
   30MOL   H119 4237   1.559   4.283   6.711  0.8980  0.5340  0.8950
   30MOL   H120 4238   1.601   4.209   6.543  1.7865 -2.6984  1.3449
   30MOL   C121 4239   1.701   4.036   6.847  0.5786  0.6308 -0.4834
   30MOL   C122 4240   1.611   3.912   6.837 -1.1948  0.2696 -0.3464
   30MOL   O123 4241   1.810   3.995   6.917  0.1450  0.3582 -0.5795
   30MOL   H124 4242   1.641   4.114   6.895 -0.8323 -0.1593 -0.9272
   30MOL   H125 4243   1.516   3.944   6.795 -1.2884 -0.2169 -0.5028
   30MOL   H126 4244   1.599   3.870   6.937  0.4436  1.9094  0.5714
   30MOL   H127 4245   1.656   3.833   6.778  0.8728 -0.7328  2.4575
   30MOL   C128 4246   1.823   4.065   7.039  0.1525  0.0687  0.5373
   30MOL   C129 4247   1.948   4.010   7.104 -0.0964  0.0532 -0.4386
   30MOL   O130 4248   1.839   4.200   7.017 -0.1698 -0.7136  0.0928
   30MOL   H131 4249   1.734   4.044   7.099  0.9773 -1.9042  1.0956
   30MOL   H132 4250   2.041   4.012   7.048  0.0264  0.3087 -0.2237
   30MOL   H133 4251   1.934   3.906   7.134  0.6869  0.3783  1.0899
   30MOL   H134 4252   1.979   4.063   7.194 -2.6173  1.5722 -0.4242
   30MOL   C135 4253   1.779   4.288   7.117 -0.5839 -0.1543  0.1220
   30MOL   C136 4254   1.820   4.426   7.068  0.3902  0.1633 -0.4134
   30MOL   O137 4255   1.637   4.278   7.124  0.4120 -0.4545  0.3185
   30MOL   H138 4256   1.831   4.261   7.209  2.0026 -0.0828 -1.2595
   30MOL   H139 4257   1.928   4.423   7.057  0.7527 -3.3365  2.9753
   30MOL   H140 4258   1.800   4.497   7.149 -1.9077 -1.0143  0.1117
   30MOL   H141 4259   1.773   4.452   6.974 -1.1591  0.0423  0.3108
   30MOL   H142 4260   1.613   4.351   7.179 -0.9993 -0.7829  0.1527
   31MOL     C1 4261   2.254   0.685   7.870  0.6270  0.7833  0.2544
   31MOL     C2 4262   2.121   0.643   7.813  0.9625 -0.7417  0.1406
   31MOL     O3 4263   2.224   0.676   0.094 -0.8339  0.2900  0.1098
   31MOL     H4 4264   2.279   0.790   7.852  1.7027  0.3905 -0.5602
   31MOL     H5 4265   2.111   0.537   7.837 -2.0397 -0.3300  0.9076
   31MOL     H6 4266   2.113   0.671   7.709 -0.3723 -1.2711  0.0883
   31MOL     H7 4267   2.038   0.695   7.861  0.8201  0.6094 -1.5528
   31MOL     H8 4268   2.335   0.615   7.851  1.3063  0.7133  3.1538
   31MOL     C9 4269   2.331   0.728   0.166 -0.7392 -0.8807  0.2009
   31MOL    C10 4270   2.296   0.866   0.213  0.4223 -0.1653  0.1114
   31MOL    O11 4271   2.357   0.648   0.278 -0.1142 -0.1260 -0.0163
   31MOL    H12 4272   2.421   0.738   0.105  0.9730  1.7537  3.0578
   31MOL    H13 4273   2.201   0.866   0.266  0.3105 -2.5994 -0.0585
   31MOL    H14 4274   2.281   0.937   0.131 -3.0547 -1.8263 -0.7731
   31MOL    H15 4275   2.365   0.903   0.289  0.2403 -1.1797  0.7772
   31MOL    C16 4276   2.406   0.525   0.254  0.6398 -0.1978 -0.0633
   31MOL    C17 4277   2.553   0.512   0.303  0.1234 -0.0707 -0.0453
   31MOL    O18 4278   2.341   0.422   0.326 -0.0286  0.2079 -0.0612
   31MOL    H19 4279   2.401   0.500   0.148 -0.0260  2.2576 -0.6284
   31MOL    H20 4280   2.599   0.415   0.281  2.1764  0.4420  1.8592
   31MOL    H21 4281   2.564   0.529   0.410  3.1659  2.2280 -0.6396
   31MOL    H22 4282   2.619   0.586   0.257 -0.1807  0.5882  0.5724
   31MOL    C23 4283   2.205   0.417   0.296  0.7514 -0.2550 -0.1767
   31MOL    C24 4284   2.183   0.327   0.177 -0.4558 -0.3046 -0.7048
   31MOL    O25 4285   2.143   0.350   0.403 -1.1674  0.4780  0.3359
   31MOL    H26 4286   2.164   0.518   0.292 -2.1399 -1.3773  0.0078
   31MOL    H27 4287   2.076   0.308   0.179 -0.0747 -2.5310 -0.1383
   31MOL    H28 4288   2.241   0.235   0.184 -0.4350 -0.2811 -0.5714
   31MOL    H29 4289   2.203   0.361   0.076  1.2401 -2.1217 -1.0216
   31MOL    C30 4290   2.135   0.423   0.520 -0.5375 -0.3757  0.0898
   31MOL    C31 4291   1.987   0.468   0.532 -0.5023  0.1588  0.4905
   31MOL    O32 4292   2.164   0.338   0.632  0.4100 -0.0054 -0.0370
   31MOL    H33 4293   2.202   0.509   0.516 -0.2570 -0.5833  0.3001
   31MOL    H34 4294   1.966   0.549   0.462  0.2296  0.0853  0.1854
   31MOL    H35 4295   1.954   0.494   0.633  0.5935  1.8749  0.4353
   31MOL    H36 4296   1.925   0.381   0.511  1.5211 -1.0312 -0.6726
   31MOL    C37 4297   2.296   0.308   0.645  0.3103 -0.0532  0.2886
   31MOL    C38 4298   2.354   0.373   0.765  0.0032  0.2668  0.0108
   31MOL    O39 4299   2.315   0.178   0.666  0.0958 -0.1248 -0.0990
   31MOL    H40 4300   2.356   0.327   0.555  0.6046 -0.2905  0.4337
   31MOL    H41 4301   2.454   0.334   0.780  0.2560  0.8807 -0.0745
   31MOL    H42 4302   2.302   0.354   0.859 -1.6703  2.4332 -0.4276
   31MOL    H43 4303   2.351   0.482   0.758  0.8014  0.2050 -1.3047
   31MOL    C44 4304   2.300   0.089   0.552  0.9953  0.1827 -0.5058
   31MOL    C45 4305   2.426   0.087   0.475 -0.2902  0.4871 -0.3913
   31MOL    O46 4306   2.290   7.866   0.600  0.4668 -0.5825  0.0830
   31MOL    H47 4307   2.209   0.109   0.497  0.4915  0.4835  0.4265
   31MOL    H48 4308   2.510   0.056   0.538 -0.1736  0.3745 -0.6037
   31MOL    H49 4309   2.451   0.184   0.432  2.2326 -0.0028 -0.1458
   31MOL    H50 4310   2.412   0.016   0.395 -1.4423 -0.3382  0.5288
   31MOL    C51 4311   2.164   7.822   0.640 -0.4755 -0.4531  0.1514
   31MOL    C52 4312   2.101   7.722   0.541  0.2073 -0.8040  0.9926
   31MOL    O53 4313   2.176   7.761   0.763 -0.4384  0.4823 -0.2658
   31MOL    H54 4314   2.101   7.909   0.659 -1.2914 -0.6923 -1.3830
   31MOL    H55 4315   2.081   7.779   0.450 -0.4312 -1.9850  0.3856
   31MOL    H56 4316   2.009   7.680   0.582 -0.8029 -0.4719 -0.8678
   31MOL    H57 4317   2.165   7.640   0.511  0.0526 -0.6518  0.2340
   31MOL    C58 4318   2.236   7.838   0.869  0.2864 -0.0077  0.1881
   31MOL    C59 4319   2.123   7.852   0.979 -0.1637  0.1033  0.2387
   31MOL    O60 4320   2.342   7.770   0.929  0.2984 -0.4472 -0.0876
   31MOL    H61 4321   2.272   0.024   0.847  0.1985 -0.4813 -2.1868
   31MOL    H62 4322   2.025   7.876   0.937 -0.4975  0.5054  1.2292
   31MOL    H63 4323   2.149   0.026   1.038  0.2921 -0.5953  1.0934
   31MOL    H64 4324   2.109   7.757   1.031 -0.2495 -1.4467 -2.5055
   31MOL    C65 4325   2.462   7.788   0.859  0.0744  0.1974  0.0426
   31MOL    C66 4326   2.564   7.846   0.961  0.0860  0.0330 -0.1406
   31MOL    O67 4327   2.513   7.666   0.820 -0.1374  0.1046  0.3117
   31MOL    H68 4328   2.462   7.845   0.766  0.7426 -0.9116 -0.6395
   31MOL    H69 4329   2.538   0.034   0.991  0.7334  0.2124 -0.1846
   31MOL    H70 4330   2.660   7.857   0.911 -0.5257 -0.8862 -1.5386
   31MOL    H71 4331   2.564   7.778   1.046  2.5600  0.4101  0.2033
   31MOL    C72 4332   2.453   7.599   0.709 -0.4033  0.9412 -0.7588
   31MOL    C73 4333   2.564   7.580   0.613  0.0266 -0.6369  0.1664
   31MOL    O74 4334   2.407   7.469   0.745  0.4195  0.0369  0.6932
   31MOL    H75 4335   2.369   7.653   0.667 -0.5781 -0.2259 -1.9280
   31MOL    H76 4336   2.529   7.507   0.541 -0.9674  0.3666 -0.3955
   31MOL    H77 4337   2.657   7.547   0.660  0.8703 -0.8587 -1.6374
   31MOL    H78 4338   2.568   7.680   0.568 -0.3447 -0.6529  0.0976
   31MOL    C79 4339   2.296   7.470   0.831 -0.6860 -0.4679 -0.1002
   31MOL    C80 4340   2.190   7.394   0.751 -0.8597 -0.7166 -0.0519
   31MOL    O81 4341   2.305   7.389   0.948  0.0725 -0.6026  0.3125
   31MOL    H82 4342   2.252   7.566   0.856  0.3911  0.4462 -1.6164
   31MOL    H83 4343   2.092   7.409   0.796 -0.2150 -0.6408  1.3306
   31MOL    H84 4344   2.203   7.290   0.722 -0.4252 -0.4325 -0.9009
   31MOL    H85 4345   2.175   7.446   0.656 -0.1858  0.4422  0.4626
   31MOL    C86 4346   2.385   7.438   1.047 -0.6657  0.5362 -0.1698
   31MOL    C87 4347   2.299   7.435   1.169  0.0132 -0.0142  0.5661
   31MOL    O88 4348   2.489   7.350   1.071 -0.0482  0.2694 -0.2176
   31MOL    H89 4349   2.425   7.538   1.028 -0.5714  1.0657  2.6339
   31MOL    H90 4350   2.216   7.503   1.151 -0.1347 -0.2873  0.2065
   31MOL    H91 4351   2.354   7.465   1.258 -0.7625  0.3529  0.9277
   31MOL    H92 4352   2.249   7.340   1.188 -1.9019  0.9750  0.6053
   31MOL    C93 4353   2.598   7.355   0.978  0.7197  0.1516 -0.3038
   31MOL    C94 4354   2.716   7.441   1.034 -0.4186 -0.7495 -0.4174
   31MOL    O95 4355   2.643   7.226   0.954  0.8313  0.2682 -0.5414
   31MOL    H96 4356   2.562   7.402   0.886  0.7047  2.2637  0.7327
   31MOL    H97 4357   2.785   7.451   0.950 -1.1918 -1.2517 -1.1278
   31MOL    H98 4358   2.747   7.412   1.134 -1.1098 -0.0829 -0.0030
   31MOL    H99 4359   2.667   7.538   1.048  0.7750 -0.1738 -0.1636
   31MOL   C100 4360   2.550   7.144   0.892  0.3626 -0.1780  0.0622
   31MOL   C101 4361   2.598   7.120   0.745 -0.5946 -0.0391  0.0743
   31MOL   O102 4362   2.549   7.018   0.949  0.1874  0.1850  0.0323
   31MOL   H103 4363   2.448   7.181   0.885  0.4607 -0.2759 -2.5756
   31MOL   H104 4364   2.514   7.063   0.703 -0.2367  0.2457 -1.0543
   31MOL   H105 4365   2.687   7.059   0.733  0.0958  0.6485  1.6011
   31MOL   H106 4366   2.611   7.215   0.693  2.0959 -0.2887  0.2399
   31MOL   C107 4367   2.494   7.010   1.081  0.0321 -0.1300  0.6388
   31MOL   C108 4368   2.383   6.924   1.065 -0.3069 -0.0164  0.2671
   31MOL   O109 4369   2.577   6.961   1.175  0.2318 -0.5462 -0.2761
   31MOL   H110 4370   2.461   7.109   1.112 -0.7729 -0.0824 -0.3493
   31MOL   H111 4371   2.310   6.953   0.990 -0.6905 -2.2601 -0.2734
   31MOL   H112 4372   2.332   6.916   1.161 -0.2574 -0.6542  0.2428
   31MOL   H113 4373   2.411   6.825   1.028  0.5184 -0.2743  1.5404
   31MOL   C114 4374   2.641   7.057   1.251 -0.5181 -0.0291 -0.0719
   31MOL   C115 4375   2.571   7.053   1.386  0.2652 -0.5567 -0.3610
   31MOL   O116 4376   2.773   7.027   1.275 -0.5402  0.3940 -0.2962
   31MOL   H117 4377   2.645   7.153   1.199  0.3730 -0.2637 -0.4480
   31MOL   H118 4378   2.619   7.124   1.454  0.7788 -1.3547  0.1088
   31MOL   H119 4379   2.577   6.956   1.434  2.0958 -0.4568 -0.3231
   31MOL   H120 4380   2.471   7.093   1.368 -0.0168 -1.1550 -0.1017
   31MOL   C121 4381   2.850   7.021   1.160 -0.3034  0.2024  0.0945
   31MOL   C122 4382   2.930   7.151   1.156  0.2273  0.0769  0.7725
   31MOL   O123 4383   2.946   6.919   1.157  0.6433 -0.0713  0.1962
   31MOL   H124 4384   2.788   7.016   1.071 -2.5214  1.7130  1.4852
   31MOL   H125 4385   2.978   7.154   1.058  0.5987 -0.1764  0.9433
   31MOL   H126 4386   3.011   7.155   1.228  1.1352 -0.2344 -0.2035
   31MOL   H127 4387   2.865   7.237   1.163 -0.7699 -0.6779  0.8431
   31MOL   C128 4388   2.902   6.795   1.117 -0.0381  0.4542 -0.1676
   31MOL   C129 4389   3.006   6.739   1.020  0.5088 -0.1458 -0.0654
   31MOL   O130 4390   2.907   6.709   1.233 -0.7368  0.2839 -0.2284
   31MOL   H131 4391   2.804   6.790   1.069 -1.1168 -1.0898  2.0586
   31MOL   H132 4392   3.008   6.788   0.923  0.8388  0.6981  0.3661
   31MOL   H133 4393   2.966   6.640   0.999  0.1578 -0.3008  1.2496
   31MOL   H134 4394   3.105   6.735   1.065  0.4324 -2.3108 -0.0610
   31MOL   C135 4395   2.805   6.726   1.329  0.1133 -0.2903 -0.2821
   31MOL   C136 4396   2.795   6.595   1.411  0.3685  0.7738  0.0704
   31MOL   O137 4397   2.842   6.826   1.422  0.3446 -0.4562  0.3927
   31MOL   H138 4398   2.710   6.751   1.282  0.3010 -0.3892 -0.7139
   31MOL   H139 4399   2.729   6.608   1.496  0.8835 -1.6650  0.8820
   31MOL   H140 4400   2.895   6.571   1.446 -0.6370 -0.6955  1.9897
   31MOL   H141 4401   2.759   6.509   1.354  1.4662  0.8582 -0.7715
   31MOL   H142 4402   2.837   6.908   1.375 -1.0792  1.1688  3.2716
   32MOL     C1 4403   6.605   1.447   2.372 -0.5616 -0.2267 -0.5287
   32MOL     C2 4404   6.502   1.520   2.459  0.2829 -0.7505  0.3160
   32MOL     O3 4405   6.730   1.430   2.437  0.4416 -0.3861  0.3559
   32MOL     H4 4406   6.636   1.489   2.276  2.6598 -3.0065 -0.7797
   32MOL     H5 4407   6.463   1.464   2.544 -0.1507 -2.9871 -1.3040
   32MOL     H6 4408   6.421   1.549   2.392 -0.3786  0.2144  1.5099
   32MOL     H7 4409   6.526   1.620   2.494 -2.7418  0.2893 -0.4106
   32MOL     H8 4410   6.565   1.346   2.367  1.1506 -0.8857 -1.1479
   32MOL     C9 4411   6.823   1.347   2.373 -0.4889 -0.2806 -0.4331
   32MOL    C10 4412   6.934   1.424   2.302  0.0703  0.7001 -1.2475
   32MOL    O11 4413   6.885   1.265   2.456  0.4570 -0.2887 -0.4773
   32MOL    H12 4414   6.780   1.306   2.281  2.2032 -3.6834 -0.2473
   32MOL    H13 4415   7.005   1.354   2.259 -0.2998 -0.0948 -0.5755
   32MOL    H14 4416   6.991   1.483   2.373  0.8446 -1.6565  0.1533
   32MOL    H15 4417   6.888   1.490   2.228  0.4348  0.2068 -1.9176
   32MOL    C16 4418   6.804   1.153   2.492  0.2925 -0.5516 -0.3396
   32MOL    C17 4419   6.843   1.035   2.408  0.0313 -0.3804 -0.2752
   32MOL    O18 4420   6.824   1.112   2.632  0.0450 -0.3369  0.1375
   32MOL    H19 4421   6.700   1.182   2.478  0.2356 -0.7194 -0.2493
   32MOL    H20 4422   6.765   0.961   2.427 -0.3068  0.6940  2.8019
   32MOL    H21 4423   6.929   0.987   2.455  0.5071  0.6038 -0.1376
   32MOL    H22 4424   6.867   1.062   2.306 -0.2628  0.6566 -0.0763
   32MOL    C23 4425   6.793   1.221   2.719  1.0751  0.2853 -0.1146
   32MOL    C24 4426   6.663   1.196   2.802  0.5286 -0.5445  0.3075
   32MOL    O25 4427   6.894   1.226   2.817 -0.2513  0.7317 -0.4268
   32MOL    H26 4428   6.792   1.317   2.667  0.0017  1.5267  2.1243
   32MOL    H27 4429   6.633   1.277   2.869 -0.4090  0.7998 -1.6700
   32MOL    H28 4430   6.656   1.095   2.842  0.3265 -1.8515 -2.8987
   32MOL    H29 4431   6.592   1.196   2.719 -1.0963  1.7523  1.6151
   32MOL    C30 4432   7.028   1.240   2.761 -0.3338 -0.2809  0.4064
   32MOL    C31 4433   7.071   1.385   2.788 -0.1442 -0.2565 -0.2349
   32MOL    O32 4434   7.106   1.171   2.841  0.3986  0.0589  0.2127
   32MOL    H33 4435   7.052   1.216   2.658 -1.6886  1.5274 -0.3376
   32MOL    H34 4436   7.047   1.423   2.887 -0.0446 -0.6752 -0.0492
   32MOL    H35 4437   7.031   1.453   2.712 -1.0486 -0.0826  0.3851
   32MOL    H36 4438   7.177   1.402   2.769  0.7357 -2.1100  2.7873
   32MOL    C37 4439   7.096   1.030   2.824  0.2067 -0.8759 -0.2681
   32MOL    C38 4440   7.218   0.978   2.741  0.4433 -0.1632  0.0286
   32MOL    O39 4441   7.093   0.964   2.943  0.1045  0.1169 -0.1004
   32MOL    H40 4442   7.000   1.001   2.780  0.5232  1.5140 -2.6597
   32MOL    H41 4443   7.310   1.007   2.792  0.2732  0.6163 -0.1014
   32MOL    H42 4444   7.223   1.026   2.643  0.9247  2.1157  1.1334
   32MOL    H43 4445   7.213   0.870   2.725 -0.3574  0.1449 -1.9432
   32MOL    C44 4446   6.990   1.004   3.033  0.7700 -0.1924 -0.5622
   32MOL    C45 4447   6.875   0.900   3.030 -0.0016 -0.0889 -0.5530
   32MOL    O46 4448   7.041   0.992   3.161  0.6710 -0.5009 -0.2937
   32MOL    H47 4449   6.936   1.097   3.015  0.9160  0.0272  0.1128
   32MOL    H48 4450   6.915   0.802   3.055  2.3967  1.7238  3.3419
   32MOL    H49 4451   6.831   0.902   2.930 -0.0069 -0.0356 -0.5495
   32MOL    H50 4452   6.801   0.921   3.107  0.1421  0.7396 -0.6285
   32MOL    C51 4453   7.158   1.075   3.182  0.5725  0.0557  0.4459
   32MOL    C52 4454   7.117   1.213   3.251  0.2300 -0.0102 -0.2103
   32MOL    O53 4455   7.247   1.014   3.267  0.3941  0.1812 -0.1111
   32MOL    H54 4456   7.204   1.094   3.084  0.0803  1.1838  0.4225
   32MOL    H55 4457   7.090   1.190   3.354  1.0584  1.3097  0.3214
   32MOL    H56 4458   7.036   1.267   3.202 -0.8879 -2.3335 -0.9827
   32MOL    H57 4459   7.204   1.279   3.254 -0.7912  1.3528 -0.4872
   32MOL    C58 4460   7.306   0.895   3.226  0.1079  0.6084 -0.2781
   32MOL    C59 4461   7.451   0.924   3.213 -0.0120 -0.3589 -0.0055
   32MOL    O60 4462   7.300   0.801   3.325 -0.2693  0.2082 -0.0548
   32MOL    H61 4463   7.265   0.859   3.132  0.2365 -1.4183  0.4154
   32MOL    H62 4464   7.498   0.842   3.159  0.4718  0.6351 -1.1111
   32MOL    H63 4465   7.499   0.931   3.310 -3.5913  1.5895  1.7372
   32MOL    H64 4466   7.460   1.017   3.158 -0.9937  0.9526  2.0010
   32MOL    C65 4467   7.173   0.768   3.367  0.3610  0.4677  0.1545
   32MOL    C66 4468   7.110   0.657   3.284 -0.6374 -0.2153  0.1999
   32MOL    O67 4469   7.178   0.730   3.503 -0.0962 -0.5459  0.1450
   32MOL    H68 4470   7.107   0.854   3.358  2.4651  1.9341 -1.9990
   32MOL    H69 4471   7.175   0.571   3.297 -1.9832 -1.5011 -1.3282
   32MOL    H70 4472   7.105   0.691   3.180 -3.2401  0.6823  0.5836
   32MOL    H71 4473   7.011   0.631   3.321 -0.8973 -2.8716 -2.2171
   32MOL    C72 4474   7.215   0.830   3.584  0.6058 -0.6355 -0.4436
   32MOL    C73 4475   7.100   0.869   3.679 -0.0551 -0.0937 -0.3231
   32MOL    O74 4476   7.316   0.789   3.668 -0.3468 -0.2376  0.4481
   32MOL    H75 4477   7.249   0.917   3.529 -1.0842 -0.5539 -1.4016
   32MOL    H76 4478   7.013   0.891   3.616 -1.2024  1.4436  1.7564
   32MOL    H77 4479   7.130   0.949   3.747 -1.1494  0.2261 -0.2003
   32MOL    H78 4480   7.090   0.779   3.739 -1.1335  0.7744  0.8285
   32MOL    C79 4481   7.429   0.739   3.600  0.2427  0.3967 -0.6228
   32MOL    C80 4482   7.531   0.847   3.579  0.4405  0.2822 -0.2160
   32MOL    O81 4483   7.494   0.653   3.686  0.5712 -0.6191 -0.1318
   32MOL    H82 4484   7.402   0.685   3.509  1.2695 -0.2421 -0.5522
   32MOL    H83 4485   7.609   0.806   3.514  0.6181 -0.9857  0.7767
   32MOL    H84 4486   7.579   0.863   3.676  1.6644  0.9058 -0.9004
   32MOL    H85 4487   7.501   0.944   3.540  1.5517  0.8377  0.2800
   32MOL    C86 4488   7.423   0.536   3.713  1.1033 -0.1811  0.0251
   32MOL    C87 4489   7.469   0.428   3.613  0.5767 -0.2033 -0.4608
   32MOL    O88 4490   7.468   0.497   3.839 -0.4101  0.2966  0.5681
   32MOL    H89 4491   7.315   0.554   3.713  0.5635 -3.1015  1.2333
   32MOL    H90 4492   7.430   0.330   3.642  0.6206  0.2454  1.1891
   32MOL    H91 4493   7.576   0.420   3.631  0.7046  1.7940 -0.3111
   32MOL    H92 4494   7.448   0.454   3.510  0.1451  0.6606 -0.1572
   32MOL    C93 4495   7.446   0.585   3.936 -0.7900 -0.9417  0.0067
   32MOL    C94 4496   7.316   0.540   4.015 -0.1289  0.1125  0.4793
   32MOL    O95 4497   7.558   0.590   4.025  0.7149 -0.3051  0.2256
   32MOL    H96 4498   7.432   0.690   3.912 -1.8814 -0.7074  1.6342
   32MOL    H97 4499   7.316   0.607   4.101  2.8526 -0.3903  0.9447
   32MOL    H98 4500   7.340   0.443   4.058  1.7190  1.4187  2.5259
   32MOL    H99 4501   7.226   0.545   3.954  1.1993 -1.3385 -1.7034
   32MOL   C100 4502   7.677   0.622   3.952  1.0144  0.0700  0.5417
   32MOL   C101 4503   7.719   0.769   3.987  0.1804 -0.4172 -0.9414
   32MOL   O102 4504   7.790   0.555   3.997  0.5123 -0.0026  0.3681
   32MOL   H103 4505   7.671   0.593   3.847 -0.0275  1.3484  0.2212
   32MOL   H104 4506   7.806   0.800   3.928 -0.2788  0.1127 -1.3498
   32MOL   H105 4507   7.746   0.789   4.091  0.3762  0.4117 -1.1437
   32MOL   H106 4508   7.637   0.836   3.962 -0.7313 -0.9668  0.5523
   32MOL   C107 4509   7.775   0.410   3.974  0.5963  0.2301  0.1806
   32MOL   C108 4510   7.886   0.367   3.876 -0.9324  0.9213 -0.5776
   32MOL   O109 4511   7.796   0.342   4.101 -0.3772  0.4741 -0.0528
   32MOL   H110 4512   7.681   0.375   3.931  1.5262 -1.2715 -0.6319
   32MOL   H111 4513   0.067   0.363   3.929 -0.9149  0.2434 -0.6526
   32MOL   H112 4514   7.891   0.431   3.788  0.0930 -1.7869 -2.5588
   32MOL   H113 4515   7.865   0.267   3.837  1.0258  1.3407 -2.8516
   32MOL   C114 4516   7.691   0.273   4.157 -0.4603  0.3872 -0.1555
   32MOL   C115 4517   7.700   0.125   4.122 -0.7020  0.3121 -0.0229
   32MOL   O116 4518   7.673   0.286   4.296 -0.0592 -0.0860  0.0093
   32MOL   H117 4519   7.594   0.298   4.114 -0.6758 -0.3785 -0.1216
   32MOL   H118 4520   7.800   0.084   4.140 -1.3822 -0.3178  2.4971
   32MOL   H119 4521   7.678   0.111   4.016  0.1976  0.1775 -0.1971
   32MOL   H120 4522   7.633   0.066   4.184  1.6773 -1.2563  1.1614
   32MOL   C121 4523   7.643   0.418   4.335 -0.9309  0.2840 -0.8624
   32MOL   C122 4524   7.501   0.405   4.394 -0.1584  0.4634  0.2147
   32MOL   O123 4525   7.720   0.454   4.442  0.2552 -0.3118  0.3572
   32MOL   H124 4526   7.645   0.497   4.261 -0.0959 -1.3096 -2.5920
   32MOL   H125 4527   7.425   0.385   4.319 -1.5384 -0.3934  1.8085
   32MOL   H126 4528   7.467   0.494   4.447 -2.0306  1.4350 -2.5243
   32MOL   H127 4529   7.512   0.333   4.475 -0.1789  1.5831  1.2138
   32MOL   C128 4530   7.852   0.499   4.419 -0.4010  0.8160  1.0874
   32MOL   C129 4531   7.860   0.648   4.449 -0.7831  0.1786  0.2338
   32MOL   O130 4532   0.042   0.417   4.488  0.2580  0.3008 -0.7413
   32MOL   H131 4533   7.876   0.487   4.314  1.3635 -0.0588  1.5587
   32MOL   H132 4534   7.870   0.667   4.556  2.6508  1.5075 -0.2594
   32MOL   H133 4535   7.772   0.696   4.406  0.1143  0.9067 -0.8197
   32MOL   H134 4536   0.030   0.698   4.401 -1.2797  0.6565 -0.1446
   32MOL   C135 4537   0.033   0.282   4.451 -0.0223 -0.1487  0.3835
   32MOL   C136 4538   0.165   0.215   4.489 -0.3547 -0.6274  0.3446
   32MOL   O137 4539   7.847   0.215   4.519  0.3071  0.0842 -0.4601
   32MOL   H138 4540   0.010   0.270   4.345 -1.6603 -0.5690  0.7694
   32MOL   H139 4541   0.247   0.249   4.425 -1.2477  0.2681 -0.3376
   32MOL   H140 4542   0.166   0.108   4.468 -0.9084 -1.1966  3.0451
   32MOL   H141 4543   0.198   0.239   4.591  0.1484 -1.1955  0.3226
   32MOL   H142 4544   7.766   0.261   4.501  0.0215 -0.0767  0.3913
   33MOL     C1 4545   6.207   6.725   1.624  0.4552 -0.6621  0.2001
   33MOL     C2 4546   6.118   6.610   1.632 -0.4028 -0.1007 -0.4358
   33MOL     O3 4547   6.287   6.713   1.740 -0.5746  0.5846  0.6095
   33MOL     H4 4548   6.141   6.811   1.616 -0.0661 -1.2787 -2.9504
   33MOL     H5 4549   6.025   6.625   1.577 -1.4592 -1.1551  0.9963
   33MOL     H6 4550   6.099   6.581   1.736  1.1399 -2.0438 -0.6734
   33MOL     H7 4551   6.169   6.519   1.602  0.0634 -0.0438  0.1733
   33MOL     H8 4552   6.264   6.712   1.532  2.0723 -0.1273  1.0896
   33MOL     C9 4553   6.360   6.828   1.776  0.2745  0.0923  0.0597
   33MOL    C10 4554   6.418   6.898   1.659  0.0408  0.3315 -0.1066
   33MOL    O11 4555   6.281   6.916   1.848  0.2437  0.0357 -0.1398
   33MOL    H12 4556   6.442   6.797   1.840 -1.3278  0.4856  2.3475
   33MOL    H13 4557   6.347   6.931   1.584 -1.1984 -1.0893  0.4123
   33MOL    H14 4558   6.491   6.834   1.610  0.7493 -0.6267  2.1096
   33MOL    H15 4559   6.462   6.991   1.695  1.6468  0.3678 -2.1074
   33MOL    C16 4560   6.260   6.886   1.984 -0.3146  0.5978 -0.4679
   33MOL    C17 4561   6.333   6.989   2.067 -0.2423  0.0644  0.9653
   33MOL    O18 4562   6.126   6.889   2.021 -0.1782  0.2796  0.0209
   33MOL    H19 4563   6.295   6.789   2.017 -0.2545  1.1198  1.0811
   33MOL    H20 4564   6.440   6.971   2.063 -0.2856 -0.1473  0.7351
   33MOL    H21 4565   6.304   6.970   2.171 -0.0322  0.8466  1.1642
   33MOL    H22 4566   6.300   7.090   2.043 -3.0712 -1.1149 -0.3628
   33MOL    C23 4567   6.044   6.795   1.955 -0.4667 -0.4294 -0.1277
   33MOL    C24 4568   6.074   6.653   2.013  0.5821 -0.0669  0.5478
   33MOL    O25 4569   5.911   6.813   1.977 -0.0362 -0.8750 -0.0928
   33MOL    H26 4570   6.054   6.797   1.846  2.2932 -0.9247  0.0779
   33MOL    H27 4571   6.173   6.614   1.987  0.1366  0.4031 -1.9741
   33MOL    H28 4572   6.003   6.582   1.971  1.7645 -0.2983 -1.1392
   33MOL    H29 4573   6.061   6.645   2.121  1.0378  0.7154  0.6647
   33MOL    C30 4574   5.864   6.927   1.922 -0.3349  0.8344 -0.2929
   33MOL    C31 4575   5.786   6.886   1.801  0.8091 -0.7100  0.2656
   33MOL    O32 4576   5.777   6.993   2.007  0.2834  0.2103  0.1616
   33MOL    H33 4577   5.942   7.000   1.899 -0.8253  0.8292 -2.0354
   33MOL    H34 4578   5.863   6.836   1.743  1.6750 -1.0439  1.6878
   33MOL    H35 4579   5.752   6.979   1.754  2.6829  0.8840  1.9547
   33MOL    H36 4580   5.698   6.825   1.824  0.9968 -1.0776  0.0030
   33MOL    C37 4581   5.838   7.074   2.103 -0.0422 -0.8406  0.0522
   33MOL    C38 4582   5.785   7.212   2.073  0.0908 -0.9219 -0.6486
   33MOL    O39 4583   5.802   7.036   2.233  0.4199 -0.0919 -1.3237
   33MOL    H40 4584   5.947   7.074   2.098 -0.1006 -0.7052 -1.6282
   33MOL    H41 4585   5.822   7.249   1.977 -2.0433  0.5065 -0.9455
   33MOL    H42 4586   5.818   7.274   2.156  1.1325 -0.2910 -1.5086
   33MOL    H43 4587   5.678   7.215   2.054 -0.1009 -4.2375 -0.3357
   33MOL    C44 4588   5.861   6.916   2.283 -0.0967  0.1193  0.0244
   33MOL    C45 4589   5.941   6.954   2.410 -0.1739  0.3182 -0.0261
   33MOL    O46 4590   5.756   6.832   2.320 -0.4321  0.0973  0.1589
   33MOL    H47 4591   5.922   6.864   2.209 -0.2501 -1.2752  0.8730
   33MOL    H48 4592   5.881   6.992   2.493 -1.1067  1.6989 -1.2967
   33MOL    H49 4593   6.015   7.031   2.389 -0.8106  1.3626  1.4720
   33MOL    H50 4594   5.995   6.874   2.460 -1.2936 -1.2170 -1.2115
   33MOL    C51 4595   5.690   6.755   2.222  0.2973  0.1374 -0.3839
   33MOL    C52 4596   5.726   6.611   2.244  0.2402  0.6197 -0.9663
   33MOL    O53 4597   5.552   6.759   2.236 -0.3981 -0.4343 -0.3775
   33MOL    H54 4598   5.720   6.785   2.121 -0.8316 -1.2191 -1.1460
   33MOL    H55 4599   5.679   6.541   2.176 -1.2432 -0.8274  1.4579
   33MOL    H56 4600   5.697   6.577   2.344 -2.0811  1.1127 -1.4425
   33MOL    H57 4601   5.835   6.605   2.238  0.2414 -0.6731  0.0104
   33MOL    C58 4602   5.493   6.885   2.214 -0.7455 -0.1566 -0.1449
   33MOL    C59 4603   5.448   6.891   2.069  0.2911 -0.2489  0.0671
   33MOL    O60 4604   5.386   6.904   2.303 -0.0613  0.1366 -0.8997
   33MOL    H61 4605   5.569   6.961   2.231 -2.9553  1.7749  1.5497
   33MOL    H62 4606   5.383   6.978   2.067  1.8075  0.8649 -2.2319
   33MOL    H63 4607   5.392   6.805   2.031 -0.0440 -0.0853  0.1932
   33MOL    H64 4608   5.533   6.920   2.007  0.1217  0.4090  0.1459
   33MOL    C65 4609   5.430   6.913   2.437  0.9099 -0.1622 -0.9293
   33MOL    C66 4610   5.456   7.056   2.465 -0.5210  0.6350  0.2156
   33MOL    O67 4611   5.337   6.865   2.532 -0.2403 -0.6855  0.5265
   33MOL    H68 4612   5.528   6.867   2.448  0.1233 -1.6980 -0.2828
   33MOL    H69 4613   5.489   7.056   2.569  0.4811  0.2000 -0.1009
   33MOL    H70 4614   5.360   7.107   2.456 -0.8676 -0.1061 -0.3906
   33MOL    H71 4615   5.537   7.089   2.401  0.0550 -0.2684  0.4635
   33MOL    C72 4616   5.297   6.731   2.509  0.1229 -0.0148 -0.7329
   33MOL    C73 4617   5.330   6.657   2.633  0.4696  0.3298 -0.5540
   33MOL    O74 4618   5.159   6.731   2.481 -0.2672  0.2127  0.0442
   33MOL    H75 4619   5.350   6.695   2.421 -1.6987 -1.6040 -1.2171
   33MOL    H76 4620   5.329   6.724   2.719 -0.6524 -1.1662  0.6232
   33MOL    H77 4621   5.431   6.616   2.627  0.4292  0.2369 -0.5864
   33MOL    H78 4622   5.273   6.566   2.653  2.3410 -0.6046  0.6802
   33MOL    C79 4623   5.136   6.699   2.349  0.9088  0.3942 -0.5850
   33MOL    C80 4624   5.110   6.548   2.357  0.4488  0.0335  0.2030
   33MOL    O81 4625   5.022   6.770   2.307  0.2564  0.0790  0.0314
   33MOL    H82 4626   5.209   6.736   2.277 -0.0443 -0.8917 -2.2580
   33MOL    H83 4627   5.196   6.483   2.373  0.5745  0.4118  1.0878
   33MOL    H84 4628   5.052   6.506   2.274  1.9614 -0.7346 -0.4913
   33MOL    H85 4629   5.049   6.532   2.445  0.3525  0.1191  0.1519
   33MOL    C86 4630   5.034   6.908   2.328  0.6331  0.7613 -0.3964
   33MOL    C87 4631   5.049   6.979   2.190  0.5092  0.6071 -0.0468
   33MOL    O88 4632   4.922   6.961   2.390  0.2530  0.2386 -0.0552
   33MOL    H89 4633   5.125   6.924   2.386  0.5942 -2.3544  0.6245
   33MOL    H90 4634   4.968   6.951   2.123 -1.2426 -2.5126  3.2228
   33MOL    H91 4635   5.149   6.962   2.152  0.9058 -1.2979  1.7876
   33MOL    H92 4636   5.035   7.084   2.215 -0.2456  0.0152  2.1431
   33MOL    C93 4637   4.902   6.905   2.520  0.3799 -0.2902  0.3527
   33MOL    C94 4638   4.949   7.017   2.622 -0.3608  1.0743  0.0821
   33MOL    O95 4639   4.766   6.883   2.543 -0.1410  0.3057 -0.1502
   33MOL    H96 4640   4.949   6.809   2.542  0.4979  0.0933  1.8376
   33MOL    H97 4641   4.903   7.107   2.582  0.2277  0.7018 -1.4457
   33MOL    H98 4642   5.056   7.021   2.604 -0.3374 -0.2414 -0.0765
   33MOL    H99 4643   4.917   6.989   2.722  0.4727 -0.3811 -0.0483
   33MOL   C100 4644   4.708   6.796   2.443 -0.8249 -0.3835 -0.3249
   33MOL   C101 4645   4.682   6.665   2.510 -0.2230 -0.2610  0.2281
   33MOL   O102 4646   4.589   6.846   2.401  0.0523  0.0006  0.3879
   33MOL   H103 4647   4.774   6.773   2.360 -1.1179 -2.3098 -0.0376
   33MOL   H104 4648   4.772   6.605   2.524 -0.0404 -0.1318 -0.3655
   33MOL   H105 4649   4.613   6.604   2.451  2.6949 -1.4764 -2.1054
   33MOL   H106 4650   4.634   6.690   2.604 -1.9077 -1.7795 -0.2048
   33MOL   C107 4651   4.591   6.951   2.320 -0.3907 -0.3983 -0.2283
   33MOL   C108 4652   4.529   6.892   2.191  0.1464  0.1786  0.0290
   33MOL   O109 4653   4.508   7.049   2.367  0.6391  0.0046  0.7020
   33MOL   H110 4654   4.688   6.997   2.300 -0.5955  0.1988  0.1124
   33MOL   H111 4655   4.513   6.967   2.114  0.0837  0.3712  0.2274
   33MOL   H112 4656   4.430   6.851   2.212 -0.2695  1.7593  1.2890
   33MOL   H113 4657   4.588   6.809   2.154 -2.0636 -1.3196 -0.2404
   33MOL   C114 4658   4.548   7.110   2.482 -0.0709 -0.1732 -1.0324
   33MOL   C115 4659   4.600   7.248   2.446 -0.5612  0.0219  0.0657
   33MOL   O116 4660   4.439   7.128   2.564 -0.1781 -0.5979 -0.1845
   33MOL   H117 4661   4.630   7.062   2.536 -1.1047 -0.1339  0.5967
   33MOL   H118 4662   4.521   7.308   2.402  0.6196  0.3469 -1.6482
   33MOL   H119 4663   4.680   7.244   2.372  1.9047 -0.9484  2.7210
   33MOL   H120 4664   4.636   7.301   2.533  0.2300  1.5231 -1.1550
   33MOL   C121 4665   4.407   7.015   2.636  0.1883 -0.0740  0.2407
   33MOL   C122 4666   4.436   7.055   2.782  0.7668 -0.5297 -0.2124
   33MOL   O123 4667   4.268   6.990   2.626  0.5088 -0.6140 -0.7165
   33MOL   H124 4668   4.470   6.931   2.606  0.6605 -0.0990  1.2888
   33MOL   H125 4669   4.540   7.083   2.798  0.4568  0.4868  0.0637
   33MOL   H126 4670   4.395   6.983   2.853  1.1335 -0.8039 -0.2767
   33MOL   H127 4671   4.386   7.149   2.806  2.3374 -0.2123  1.9744
   33MOL   C128 4672   4.211   6.996   2.497  0.1649  0.9167  0.0114
   33MOL   C129 4673   4.180   6.860   2.451  0.0189  0.0115 -0.2841
   33MOL   O130 4674   4.088   7.064   2.491 -0.6918  0.1379 -0.1593
   33MOL   H131 4675   4.277   7.046   2.426 -1.1580 -0.7069 -2.3987
   33MOL   H132 4676   4.120   6.802   2.522 -0.3211 -3.5050 -3.3328
   33MOL   H133 4677   4.271   6.810   2.419  0.4940  0.1250  0.8473
   33MOL   H134 4678   4.122   6.861   2.359 -1.0901 -0.1668  0.3972
   33MOL   C135 4679   4.088   7.194   2.549  0.2483  0.2276  0.9993
   33MOL   C136 4680   4.134   7.279   2.432  0.3990 -0.5233 -0.2085
   33MOL   O137 4681   3.963   7.237   2.587  0.1313 -0.0262  0.4838
   33MOL   H138 4682   4.157   7.205   2.633  0.7602  0.6143  0.5370
   33MOL   H139 4683   4.238   7.254   2.408 -0.1044 -0.4829 -2.5711
   33MOL   H140 4684   4.135   7.383   2.464 -0.5196 -0.3279 -0.8269
   33MOL   H141 4685   4.056   7.279   2.356 -2.4189  3.1484  2.5096
   33MOL   H142 4686   3.952   7.199   2.673 -0.1016 -1.2410 -0.0892
   34MOL     C1 4687   0.500   2.415   3.028  0.7318  0.8147  0.8080
   34MOL     C2 4688   0.427   2.326   2.929 -0.0612 -0.4113  0.3481
   34MOL     O3 4689   0.602   2.490   2.958 -0.2925 -0.6369  0.1690
   34MOL     H4 4690   0.548   2.351   3.102 -1.4563  0.0902  1.6359
   34MOL     H5 4691   0.358   2.249   2.966  1.7697 -1.6748  1.2139
   34MOL     H6 4692   0.494   2.269   2.865 -2.8621 -0.6451 -2.4828
   34MOL     H7 4693   0.367   2.390   2.865  1.3679 -0.1904 -0.7822
   34MOL     H8 4694   0.435   2.480   3.085  0.0045 -0.1912  1.1408
   34MOL     C9 4695   0.675   2.575   3.031  0.4698 -0.3701  0.2539
   34MOL    C10 4696   0.783   2.618   2.944  0.2406  0.0395 -0.0611
   34MOL    O11 4697   0.599   2.693   3.061  0.7047 -0.0742 -0.0853
   34MOL    H12 4698   0.722   2.526   3.116 -0.0552 -0.4750  0.4840
   34MOL    H13 4699   0.857   2.538   2.932  1.8013  1.4295  0.1490
   34MOL    H14 4700   0.844   2.687   3.002  0.4187 -0.3074  0.1733
   34MOL    H15 4701   0.740   2.661   2.854 -0.2115 -3.7423 -1.7847
   34MOL    C16 4702   0.592   2.725   3.199 -0.1722 -0.8743  0.1818
   34MOL    C17 4703   0.731   2.784   3.245 -0.9656  0.2861  0.1463
   34MOL    O18 4704   0.505   2.830   3.222  0.2200 -0.3431 -0.5171
   34MOL    H19 4705   0.566   2.637   3.258  0.4006 -0.4601  1.0605
   34MOL    H20 4706   0.720   2.830   3.343  1.1824  1.0708  0.0522
   34MOL    H21 4707   0.768   2.866   3.183 -0.9462 -1.0885 -1.6843
   34MOL    H22 4708   0.792   2.694   3.253 -1.5963  0.0618  3.3216
   34MOL    C23 4709   0.374   2.810   3.173  0.1765  0.1559  0.0620
   34MOL    C24 4710   0.290   2.771   3.292 -0.1350 -0.5489  0.2461
   34MOL    O25 4711   0.323   2.926   3.122 -0.5111  0.1002  0.6284
   34MOL    H26 4712   0.367   2.727   3.103  0.1923 -0.0591  0.3128
   34MOL    H27 4713   0.324   2.673   3.326 -0.2295 -0.3972  0.7791
   34MOL    H28 4714   0.186   2.759   3.259  0.1893 -0.3911 -0.8738
   34MOL    H29 4715   0.296   2.838   3.377  0.0389 -0.6468  0.3112
   34MOL    C30 4716   0.375   2.960   2.994 -0.5488 -0.1171  0.3981
   34MOL    C31 4717   0.258   2.963   2.893  0.6416 -0.4832 -0.1472
   34MOL    O32 4718   0.438   3.081   2.994 -0.4902 -0.1926 -0.7551
   34MOL    H33 4719   0.459   2.894   2.971  0.4926  1.4757 -0.4586
   34MOL    H34 4720   0.215   2.863   2.883 -0.4772 -0.0925  0.7013
   34MOL    H35 4721   0.297   2.992   2.795 -1.2373  2.8353 -0.0018
   34MOL    H36 4722   0.173   3.024   2.924  0.8541 -0.1600 -0.1965
   34MOL    C37 4723   0.555   3.104   3.077  0.9486  0.0345  0.7939
   34MOL    C38 4724   0.651   3.181   2.996 -0.7818  0.1597 -0.1979
   34MOL    O39 4725   0.523   3.198   3.180 -0.3775  0.6559  0.1099
   34MOL    H40 4726   0.600   3.009   3.106  1.4541  0.0448  0.0547
   34MOL    H41 4727   0.607   3.275   2.963  0.0059 -0.1900 -2.3053
   34MOL    H42 4728   0.701   3.131   2.913  0.5842 -1.4865  1.5511
   34MOL    H43 4729   0.728   3.231   3.055  0.3169 -1.9792  0.2259
   34MOL    C44 4730   0.479   3.150   3.296 -0.0040 -0.0302 -0.3654
   34MOL    C45 4731   0.597   3.142   3.397  0.1319 -0.1958 -0.0750
   34MOL    O46 4732   0.384   3.238   3.343  0.6238  0.0829  0.4308
   34MOL    H47 4733   0.433   3.051   3.291 -2.0772  0.8867  0.1676
   34MOL    H48 4734   0.683   3.076   3.390  0.1763 -0.1309 -0.1427
   34MOL    H49 4735   0.562   3.124   3.499 -1.6475 -1.2832 -0.8596
   34MOL    H50 4736   0.638   3.243   3.399  0.2413 -0.2136 -1.2297
   34MOL    C51 4737   0.265   3.223   3.274 -0.0311 -0.7251  0.5401
   34MOL    C52 4738   0.168   3.145   3.358  0.6280 -0.8557  0.2060
   34MOL    O53 4739   0.210   3.349   3.261 -0.2423 -0.7316 -0.9261
   34MOL    H54 4740   0.274   3.181   3.174 -3.4764  0.6611 -0.4406
   34MOL    H55 4741   0.198   3.040   3.354  0.2238 -0.9120 -1.7975
   34MOL    H56 4742   0.069   3.150   3.314  1.4716 -1.5198 -1.8241
   34MOL    H57 4743   0.171   3.184   3.460  0.4186  0.5101 -0.3000
   34MOL    C58 4744   0.277   3.439   3.170 -0.5584 -0.7751  0.1972
   34MOL    C59 4745   0.196   3.450   3.039 -0.6673 -0.3451  0.7671
   34MOL    O60 4746   0.272   3.571   3.222  0.3594 -0.5026 -0.5868
   34MOL    H61 4747   0.375   3.396   3.154 -0.2103  0.1437 -0.2111
   34MOL    H62 4748   0.248   3.510   2.965 -1.0043 -0.0494  0.7743
   34MOL    H63 4749   0.101   3.490   3.072  0.2928  1.7242  1.0951
   34MOL    H64 4750   0.192   3.349   2.997 -0.7967 -0.8315  1.9105
   34MOL    C65 4751   0.355   3.588   3.330  0.4385  0.2999  0.4889
   34MOL    C66 4752   0.459   3.695   3.291  0.8778 -0.4535 -0.1159
   34MOL    O67 4753   0.290   3.633   3.447 -0.5840  0.3305 -0.3937
   34MOL    H68 4754   0.419   3.503   3.356  0.7168  0.6425  0.9194
   34MOL    H69 4755   0.530   3.711   3.372 -1.0243 -0.4475  1.5948
   34MOL    H70 4756   0.414   3.794   3.288 -0.1904 -0.8666  1.5694
   34MOL    H71 4757   0.503   3.673   3.194 -0.1621  1.3736 -1.0179
   34MOL    C72 4758   0.250   3.524   3.525 -0.1348  0.4899  0.3638
   34MOL    C73 4759   0.345   3.542   3.646  0.2845 -0.2344  0.3612
   34MOL    O74 4760   0.121   3.527   3.571 -0.0801 -0.1295 -0.4163
   34MOL    H75 4761   0.270   3.425   3.486  1.3042 -0.2650  2.9253
   34MOL    H76 4762   0.301   3.480   3.725 -2.1097  0.3343 -0.4923
   34MOL    H77 4763   0.322   3.640   3.690 -0.4381 -0.2812  0.0925
   34MOL    H78 4764   0.451   3.532   3.622 -0.2347  0.7064 -2.5370
   34MOL    C79 4765   0.017   3.511   3.473  0.1217  0.4936  0.4338
   34MOL    C80 4766   7.847   3.391   3.518 -0.0479 -0.0771 -0.3031
   34MOL    O81 4767   7.845   3.614   3.456  0.1564 -0.2450  0.2779
   34MOL    H82 4768   0.060   3.495   3.375  2.1979  0.3188  1.3502
   34MOL    H83 4769   7.771   3.372   3.442 -0.3503  1.4775 -0.4167
   34MOL    H84 4770   7.805   3.433   3.610 -0.7875 -0.9835 -0.2150
   34MOL    H85 4771   7.900   3.297   3.531  0.2128  0.2656  1.1594
   34MOL    C86 4772   7.889   3.726   3.383  0.6889  0.3042 -0.5730
   34MOL    C87 4773   7.775   3.737   3.275  0.5842  0.1343 -0.0521
   34MOL    O88 4774   7.878   3.838   3.471  0.3661 -0.2122 -0.6695
   34MOL    H89 4775   0.071   3.720   3.332 -0.7631 -1.6735 -3.1691
   34MOL    H90 4776   7.800   3.672   3.191  0.0187  2.4307 -2.0613
   34MOL    H91 4777   7.782   3.835   3.228  0.2610 -0.0934 -0.5774
   34MOL    H92 4778   7.678   3.700   3.308  1.1859  0.1391  1.7809
   34MOL    C93 4779   0.078   3.873   3.537  0.2821 -0.0636  0.6884
   34MOL    C94 4780   0.135   3.992   3.449  0.4234  0.0689  0.1507
   34MOL    O95 4781   0.057   3.919   3.667  0.2268  0.1711 -0.2838
   34MOL    H96 4782   0.149   3.791   3.533  1.4883  0.9361  1.2392
   34MOL    H97 4783   0.053   4.063   3.438  0.8717  0.3523 -1.4984
   34MOL    H98 4784   0.183   3.948   3.362 -0.3821 -2.3176  0.8824
   34MOL    H99 4785   0.213   4.041   3.509  0.1184 -0.7246  1.2154
   34MOL   C100 4786   0.004   3.816   3.752  0.2579 -0.3336 -0.2390
   34MOL   C101 4787   0.074   3.797   3.878 -0.5527 -0.8336 -0.1737
   34MOL   O102 4788   7.791   3.852   3.794 -0.0999  0.3057  0.0179
   34MOL   H103 4789   0.005   3.723   3.695 -1.1454 -1.3091  1.3016
   34MOL   H104 4790   0.021   3.722   3.936 -0.9575 -0.7582 -0.4414
   34MOL   H105 4791   0.070   3.894   3.929 -1.2966  0.7175 -3.1031
   34MOL   H106 4792   0.176   3.769   3.853 -1.0375  0.8335 -4.4740
   34MOL   C107 4793   7.682   3.805   3.716 -0.1482  0.0522  0.1966
   34MOL   C108 4794   7.612   3.697   3.797  0.1486 -0.1123 -0.1419
   34MOL   O109 4795   7.587   3.904   3.696 -0.7233 -0.6154 -0.1221
   34MOL   H110 4796   7.717   3.768   3.620  1.6966  1.0250  0.4798
   34MOL   H111 4797   7.544   3.642   3.731 -0.3596  0.2353  0.0969
   34MOL   H112 4798   7.563   3.727   3.890  0.8032  2.2670 -0.5461
   34MOL   H113 4799   7.684   3.616   3.811  0.3355  0.1466  0.3828
   34MOL   C114 4800   7.618   3.996   3.594  0.2702 -0.7537  0.0198
   34MOL   C115 4801   7.535   3.977   3.475  0.1980 -0.1666 -0.1090
   34MOL   O116 4802   7.602   4.133   3.629  0.0334 -0.1552  0.4598
   34MOL   H117 4803   7.725   3.989   3.574  0.5087  2.4863 -0.1430
   34MOL   H118 4804   7.533   3.874   3.439  3.0665 -0.2299 -0.2188
   34MOL   H119 4805   7.578   4.042   3.399  2.0340  0.0315  1.0611
   34MOL   H120 4806   7.437   4.016   3.502  0.7966  0.7925  0.7056
   34MOL   C121 4807   7.694   4.180   3.722  0.2595  0.4524 -0.2259
   34MOL   C122 4808   7.770   4.297   3.652 -0.6737 -0.2101 -1.0357
   34MOL   O123 4809   7.618   4.242   3.825 -0.6643  0.2733 -0.7906
   34MOL   H124 4810   7.765   4.103   3.754 -0.4097  0.0963  0.4139
   34MOL   H125 4811   7.700   4.379   3.645 -1.9146 -1.1438  0.2811
   34MOL   H126 4812   7.812   4.291   3.551  0.3614 -0.6787 -0.5900
   34MOL   H127 4813   7.853   4.327   3.716 -0.7629 -0.7845 -0.6474
   34MOL   C128 4814   7.577   4.147   3.921 -0.4149  0.7057 -0.0153
   34MOL   C129 4815   7.686   4.137   4.025  0.3609  0.8392  0.3179
   34MOL   O130 4816   7.458   4.182   3.985  0.3689 -0.6224  0.4600
   34MOL   H131 4817   7.565   4.051   3.872  1.3318  0.4708  0.0152
   34MOL   H132 4818   7.705   4.237   4.064  3.0848  0.8298 -0.8546
   34MOL   H133 4819   7.785   4.101   3.997  0.7264  2.5480 -0.6390
   34MOL   H134 4820   7.660   4.080   4.114  1.1171  0.9591  0.6243
   34MOL   C135 4821   7.351   4.182   3.896 -1.0006  0.3152 -0.9181
   34MOL   C136 4822   7.247   4.081   3.941 -0.2700  0.0855  0.3983
   34MOL   O137 4823   7.297   4.312   3.890  0.3244  0.0191  0.1143
   34MOL   H138 4824   7.377   4.149   3.796  1.7353 -0.5527  0.0391
   34MOL   H139 4825   7.291   3.982   3.930  0.5230  0.7377 -2.6571
   34MOL   H140 4826   7.159   4.086   3.877 -0.7207  0.3088  1.0285
   34MOL   H141 4827   7.222   4.098   4.046 -1.4263  0.1721  0.1159
   34MOL   H142 4828   7.362   4.364   3.845 -0.1697 -0.7279 -1.5151
   35MOL     C1 4829   1.028   1.113   7.448  0.1496  0.0407 -0.0458
   35MOL     C2 4830   0.959   1.244   7.401  0.2513  0.2853 -0.9437
   35MOL     O3 4831   0.925   1.019   7.486  0.1799  0.5600 -0.2287
   35MOL     H4 4832   1.093   1.130   7.534 -0.0223 -2.9507  0.7327
   35MOL     H5 4833   1.033   1.318   7.371  0.5120 -0.0546 -1.1460
   35MOL     H6 4834   0.894   1.281   7.481 -1.2505 -0.4844 -1.7757
   35MOL     H7 4835   0.898   1.231   7.311  0.9152  3.3010 -1.8789
   35MOL     H8 4836   1.081   1.062   7.368  0.8178 -1.7554  1.5165
   35MOL     C9 4837   0.978   0.895   7.523 -0.2121 -0.7277 -0.3152
   35MOL    C10 4838   0.954   0.870   7.676 -0.0261 -0.1702  0.0220
   35MOL    O11 4839   0.920   0.795   7.450  0.1296  0.0583  0.6244
   35MOL    H12 4840   1.085   0.894   7.504 -0.5194  1.1539 -2.2373
   35MOL    H13 4841   0.847   0.887   7.688  0.4598  0.7469  3.7443
   35MOL    H14 4842   1.010   0.935   7.745  0.3498  1.2594 -1.5908
   35MOL    H15 4843   0.976   0.764   7.690  1.0954 -0.0924 -1.1287
   35MOL    C16 4844   0.976   0.775   7.324 -0.8217 -0.1972  0.3107
   35MOL    C17 4845   1.046   0.643   7.321 -0.6402  0.4219  0.4621
   35MOL    O18 4846   0.875   0.781   7.219  0.4412  0.3526 -0.2518
   35MOL    H19 4847   1.050   0.852   7.298 -0.6370 -0.5448 -0.2097
   35MOL    H20 4848   1.140   0.648   7.265 -1.7994  0.1717 -1.5519
   35MOL    H21 4849   0.978   0.570   7.278 -1.4640 -0.0289  2.4635
   35MOL    H22 4850   1.059   0.608   7.423 -1.1556 -0.1556  0.3292
   35MOL    C23 4851   0.829   0.908   7.180  0.2339  0.3334  0.6389
   35MOL    C24 4852   0.902   0.957   7.057 -0.1425 -0.1075  0.0202
   35MOL    O25 4853   0.695   0.901   7.151 -0.2494 -0.3065  0.1509
   35MOL    H26 4854   0.839   0.983   7.259 -1.1928  1.2266 -0.0017
   35MOL    H27 4855   1.006   0.976   7.081  0.0072  2.3384 -2.3769
   35MOL    H28 4856   0.869   1.057   7.031  2.5962  1.1522  1.1905
   35MOL    H29 4857   0.896   0.882   6.978 -1.8469 -0.7529  0.7212
   35MOL    C30 4858   0.608   0.871   7.257  1.1526 -0.2259 -0.1523
   35MOL    C31 4859   0.537   0.992   7.319  0.1667 -0.7430 -0.7924
   35MOL    O32 4860   0.501   0.784   7.209 -0.1097  0.4339  0.4416
   35MOL    H33 4861   0.662   0.833   7.343  2.6065 -0.2658 -1.0700
   35MOL    H34 4862   0.471   0.957   7.399  2.3859  2.6262  2.6450
   35MOL    H35 4863   0.478   1.053   7.252 -1.7700  0.0483  1.5474
   35MOL    H36 4864   0.605   1.064   7.366 -1.8834  1.0820 -0.5347
   35MOL    C37 4865   0.538   0.655   7.205  0.4236  0.5288  0.5864
   35MOL    C38 4866   0.466   0.589   7.324  0.1735 -0.0908 -0.0786
   35MOL    O39 4867   0.497   0.600   7.087 -0.1062  0.2684  0.1861
   35MOL    H40 4868   0.645   0.650   7.225  0.8245  1.8685 -1.1211
   35MOL    H41 4869   0.497   0.485   7.331 -0.7578 -0.4613 -1.3012
   35MOL    H42 4870   0.359   0.595   7.303 -0.0935 -0.9876  1.0066
   35MOL    H43 4871   0.480   0.639   7.420 -0.3766 -2.4122  1.2576
   35MOL    C44 4872   0.578   0.633   6.983 -0.2042 -0.4186  0.1612
   35MOL    C45 4873   0.697   0.542   6.977  0.0656  0.5720  0.5497
   35MOL    O46 4874   0.510   0.628   6.859 -0.5125 -0.4387 -0.2491
   35MOL    H47 4875   0.612   0.737   6.983  0.7580 -0.7202 -0.8819
   35MOL    H48 4876   0.760   0.572   6.893 -1.4844  4.0444  0.5356
   35MOL    H49 4877   0.676   0.435   6.969  0.9918  0.5407 -1.7286
   35MOL    H50 4878   0.764   0.549   7.063 -0.8963  0.5460  1.3049
   35MOL    C51 4879   0.427   0.737   6.851 -0.4615 -0.0787  0.4982
   35MOL    C52 4880   0.489   0.838   6.748 -0.5161  0.0108  0.4284
   35MOL    O53 4881   0.308   0.699   6.794 -0.0293  0.0659 -0.4655
   35MOL    H54 4882   0.391   0.783   6.944 -0.2800 -1.7916  1.4283
   35MOL    H55 4883   0.585   0.871   6.788 -0.1867  0.0885 -0.4307
   35MOL    H56 4884   0.420   0.922   6.742 -0.5080  0.1012  1.3982
   35MOL    H57 4885   0.504   0.803   6.646  0.8302  0.6061  0.4189
   35MOL    C58 4886   0.231   0.611   6.878 -0.1769 -0.2254  0.2995
   35MOL    C59 4887   0.116   0.694   6.933 -0.7006  0.2968  0.0986
   35MOL    O60 4888   0.174   0.511   6.801 -0.2275 -0.4320  0.0787
   35MOL    H61 4889   0.287   0.572   6.963 -0.1328 -1.8195 -0.4418
   35MOL    H62 4890   0.151   0.787   6.977  2.8631 -0.5700 -0.7819
   35MOL    H63 4891   0.052   0.634   6.999  0.3487 -0.7382  0.1812
   35MOL    H64 4892   0.060   0.731   6.848 -0.3511 -0.8256 -0.6369
   35MOL    C65 4893   0.272   0.432   6.752  0.2499  0.2171  0.3411
   35MOL    C66 4894   0.299   0.312   6.853 -0.0688  0.0870 -0.6533
   35MOL    O67 4895   0.221   0.363   6.637  0.3882 -0.2664 -0.0061
   35MOL    H68 4896   0.362   0.483   6.720 -1.2328  3.2104  0.7243
   35MOL    H69 4897   0.373   0.246   6.808  0.3637 -0.1525  0.3904
   35MOL    H70 4898   0.205   0.257   6.861  0.8025 -1.2224  0.9085
   35MOL    H71 4899   0.339   0.351   6.947 -1.1415  0.6662 -0.4227
   35MOL    C72 4900   0.188   0.448   6.532  0.8954  0.1166  0.1104
   35MOL    C73 4901   0.302   0.425   6.429  0.9594 -0.2721  0.1052
   35MOL    O74 4902   0.071   0.400   6.473 -0.2596 -0.1328 -0.9124
   35MOL    H75 4903   0.184   0.554   6.556 -2.1381 -0.1902  1.1484
   35MOL    H76 4904   0.402   0.441   6.470  2.3111  1.4636 -3.6496
   35MOL    H77 4905   0.287   0.502   6.354 -1.1175  1.9670  2.7248
   35MOL    H78 4906   0.309   0.325   6.386 -1.2186 -0.8335  1.0018
   35MOL    C79 4907   7.872   0.422   6.559  0.2461 -0.3981 -1.0314
   35MOL    C80 4908   7.787   0.518   6.491 -0.0335 -0.4739  0.1500
   35MOL    O81 4909   7.806   0.298   6.577 -0.3026 -0.3869 -1.0436
   35MOL    H82 4910   7.891   0.469   6.656 -1.0902 -1.4482 -0.2502
   35MOL    H83 4911   7.697   0.532   6.552  1.1161 -0.9416  1.9637
   35MOL    H84 4912   7.752   0.487   6.392 -2.4851  0.4996  0.6652
   35MOL    H85 4913   7.827   0.619   6.482  0.1906 -0.7652 -2.6541
   35MOL    C86 4914   7.850   0.231   6.692 -0.4541 -0.2607  1.2189
   35MOL    C87 4915   7.752   0.255   6.804  0.1850 -0.6482  0.5911
   35MOL    O88 4916   7.845   0.090   6.671  0.1465  0.2678 -0.6104
   35MOL    H89 4917   0.037   0.258   6.724  0.2489  1.3187 -2.1974
   35MOL    H90 4918   7.652   0.222   6.774  1.1293 -1.3490 -1.8854
   35MOL    H91 4919   7.761   0.361   6.826  1.3112 -0.7631  0.6894
   35MOL    H92 4920   7.785   0.199   6.892  0.2882  1.6559  2.0451
   35MOL    C93 4921   0.025   0.060   6.570 -0.7059  0.4003 -0.3597
   35MOL    C94 4922   0.123   7.873   6.637  0.4515  0.5204 -0.4580
   35MOL    O95 4923   7.884   7.912   6.457  0.8381 -0.3416 -0.4473
   35MOL    H96 4924   0.088   0.142   6.538  0.4528 -1.3446 -2.7666
   35MOL    H97 4925   0.193   0.010   6.703 -0.3463  0.4038  0.4813
   35MOL    H98 4926   0.182   7.831   6.556 -0.8635 -0.3158 -0.9902
   35MOL    H99 4927   0.076   7.796   6.698 -1.6671 -0.2025 -2.9089
   35MOL   C100 4928   7.816   0.081   6.366 -0.3108  0.0346  0.4739
   35MOL   C101 4929   7.878   0.076   6.221  0.0134 -0.3680  0.7817
   35MOL   O102 4930   7.692   0.016   6.344  0.0657 -0.4428 -0.5823
   35MOL   H103 4931   7.812   0.188   6.386 -0.2468  0.0392  0.4623
   35MOL   H104 4932   7.819   0.130   6.148 -0.6168 -0.6961  1.0440
   35MOL   H105 4933   7.896   7.885   6.199  0.0624  0.4082 -3.2669
   35MOL   H106 4934   0.059   0.128   6.230  0.4618 -0.6045 -2.1604
   35MOL   C107 4935   7.599   0.033   6.443 -0.0799 -1.0066 -0.1675
   35MOL   C108 4936   7.483   0.104   6.371 -0.7897 -0.0471 -0.3111
   35MOL   O109 4937   7.556   7.816   6.478  0.4061 -0.0272 -0.8053
   35MOL   H110 4938   7.626   0.093   6.530 -2.8769  1.7307 -1.0958
   35MOL   H111 4939   7.401   0.120   6.441 -1.8057  0.4894 -1.6010
   35MOL   H112 4940   7.457   0.050   6.280 -1.3891  0.1611 -0.2666
   35MOL   H113 4941   7.529   0.197   6.338 -1.3318  1.0215  1.8432
   35MOL   C114 4942   7.631   7.755   6.587  0.2202 -0.0055 -0.1011
   35MOL   C115 4943   7.561   7.790   6.724 -0.0709  0.2897 -0.8302
   35MOL   O116 4944   7.634   7.617   6.576 -0.7209 -0.3482 -0.4658
   35MOL   H117 4945   7.733   7.793   6.596  0.4980 -1.1211  1.7073
   35MOL   H118 4946   7.463   7.743   6.726 -0.2513  0.7145  0.3990
   35MOL   H119 4947   7.570   7.896   6.748  0.6974  0.5995 -2.3656
   35MOL   H120 4948   7.619   7.749   6.807  0.0854  0.6079 -0.7796
   35MOL   C121 4949   7.713   7.579   6.470 -0.1516  0.5810  0.0941
   35MOL   C122 4950   7.802   7.473   6.521 -0.2825 -0.2127 -0.4062
   35MOL   O123 4951   7.640   7.517   6.373  0.0133  0.2745 -0.5244
   35MOL   H124 4952   7.772   7.659   6.425 -0.7401  1.5559  1.0285
   35MOL   H125 4953   7.858   7.420   6.444 -0.4393 -0.1231 -0.5856
   35MOL   H126 4954   7.739   7.397   6.567  1.4096 -1.1863  0.3245
   35MOL   H127 4955   7.862   7.519   6.599  0.5463 -2.4260  0.2787
   35MOL   C128 4956   7.596   7.593   6.267 -0.5507  0.2747 -0.2841
   35MOL   C129 4957   7.680   7.559   6.142 -0.3731 -0.0236  0.0249
   35MOL   O130 4958   7.464   7.566   6.232  0.0209 -0.2187  0.1346
   35MOL   H131 4959   7.607   7.697   6.298  0.7868  0.1530 -0.3148
   35MOL   H132 4960   7.680   7.641   6.070  1.5653  0.8801  1.0052
   35MOL   H133 4961   7.633   7.481   6.083 -1.1404 -0.7070  1.5118
   35MOL   H134 4962   7.787   7.546   6.158 -0.2153 -0.9135 -1.6964
   35MOL   C135 4963   7.365   7.578   6.330 -0.2266 -0.0427  0.1051
   35MOL   C136 4964   7.243   7.606   6.254  0.3171  0.5659  0.1635
   35MOL   O137 4965   7.353   7.463   6.411  0.0394 -0.4184  0.0792
   35MOL   H138 4966   7.397   7.664   6.390 -1.0723  0.5597 -0.2909
   35MOL   H139 4967   7.163   7.647   6.316  0.8124  3.2247 -0.9119
   35MOL   H140 4968   7.216   7.518   6.195  1.0831 -0.4761  1.3364
   35MOL   H141 4969   7.267   7.686   6.185  0.9226  1.2440  1.1468
   35MOL   H142 4970   7.436   7.464   6.454 -0.5549  1.7163  1.2612
   36MOL     C1 4971   5.832   3.345   6.586  0.5025 -0.2000 -0.3937
   36MOL     C2 4972   5.729   3.281   6.493 -0.5864 -0.2949 -0.1470
   36MOL     O3 4973   5.940   3.397   6.505 -0.0749  0.0284 -0.2224
   36MOL     H4 4974   5.868   3.276   6.662  1.6262  0.1227 -0.6174
   36MOL     H5 4975   5.778   3.194   6.449  1.6455  1.0049 -0.2981
   36MOL     H6 4976   5.685   3.350   6.422  3.0031  2.2373 -0.0674
   36MOL     H7 4977   5.653   3.236   6.557 -0.6721  0.1616  0.0757
   36MOL     H8 4978   5.779   3.431   6.626  2.3108  0.8488 -0.1465
   36MOL     C9 4979   6.033   3.468   6.585  0.4993  0.5725  0.3254
   36MOL    C10 4980   6.156   3.377   6.612  0.4786  0.1053  0.4271
   36MOL    O11 4981   6.089   3.579   6.523 -0.4152  0.6734 -0.2288
   36MOL    H12 4982   5.986   3.504   6.677 -1.4393 -1.4521  0.1750
   36MOL    H13 4983   6.214   3.374   6.520 -0.3267  0.8654 -0.1131
   36MOL    H14 4984   6.134   3.278   6.652 -0.7105  0.7460  1.4376
   36MOL    H15 4985   6.216   3.427   6.688 -0.0897  0.5396  0.6029
   36MOL    C16 4986   6.002   3.690   6.517  0.2645  0.3887 -0.0801
   36MOL    C17 4987   6.062   3.804   6.607  0.1890  0.4478 -0.0060
   36MOL    O18 4988   5.998   3.737   6.384 -0.5051  0.0631  0.4254
   36MOL    H19 4989   5.901   3.676   6.555  1.4746 -1.0386  2.7838
   36MOL    H20 4990   5.999   3.892   6.616 -0.4181 -0.1054  1.1912
   36MOL    H21 4991   6.164   3.817   6.571 -0.0980 -1.1128 -1.4573
   36MOL    H22 4992   6.071   3.767   6.709 -3.3436  0.1475  0.2543
   36MOL    C23 4993   5.931   3.649   6.293 -0.4614  0.2359 -0.3321
   36MOL    C24 4994   5.801   3.724   6.262  0.2378 -0.3021  0.1100
   36MOL    O25 4995   5.996   3.645   6.175 -0.2284  0.3466 -0.3693
   36MOL    H26 4996   5.920   3.550   6.337  1.0789  0.1559 -0.1168
   36MOL    H27 4997   5.817   3.818   6.210 -0.3283  0.3145  1.0466
   36MOL    H28 4998   5.742   3.736   6.352  2.2641  0.9105  1.3108
   36MOL    H29 4999   5.732   3.674   6.194 -0.5962  0.8666  0.0863
   36MOL    C30 5000   6.123   3.586   6.185  0.3194  0.3158  0.6780
   36MOL    C31 5001   6.118   3.440   6.146 -0.4573 -0.4007  0.0094
   36MOL    O32 5002   6.216   3.642   6.093 -0.2519 -0.0025  0.0314
   36MOL    H33 5003   6.171   3.610   6.280  1.4447  1.5296 -0.1677
   36MOL    H34 5004   6.055   3.385   6.217  0.3621 -0.2454  0.8653
   36MOL    H35 5005   6.214   3.390   6.157 -0.1709  0.1459 -0.0156
   36MOL    H36 5006   6.078   3.429   6.045 -0.0846 -1.0023 -0.0746
   36MOL    C37 5007   6.270   3.762   6.127 -0.5143  0.5879 -0.5173
   36MOL    C38 5008   6.424   3.745   6.136 -0.9946  0.1793 -0.1877
   36MOL    O39 5009   6.249   3.849   6.029 -0.0715  0.6010  0.5963
   36MOL    H40 5010   6.231   3.805   6.220 -1.6781 -2.1332  0.2971
   36MOL    H41 5011   6.471   3.839   6.165  0.9205 -0.3610 -1.4733
   36MOL    H42 5012   6.464   3.711   6.041 -3.0177  2.0024 -1.7510
   36MOL    H43 5013   6.444   3.671   6.213  2.6549  0.1294 -1.1104
   36MOL    C44 5014   6.140   3.936   6.049  0.3958  0.8314 -0.1442
   36MOL    C45 5015   6.190   4.080   6.086  0.0694  0.0868 -0.4078
   36MOL    O46 5016   6.075   3.957   5.929 -0.0152  0.2727  0.1410
   36MOL    H47 5017   6.066   3.897   6.118  0.7712 -0.9275 -0.7219
   36MOL    H48 5018   6.098   4.132   6.113  0.7466  0.5539  1.0023
   36MOL    H49 5019   6.242   4.135   6.008 -0.7477  1.5728  0.0705
   36MOL    H50 5020   6.259   4.065   6.169 -0.2694  0.9774  0.0322
   36MOL    C51 5021   5.974   3.861   5.905  0.7569 -0.7084 -0.8369
   36MOL    C52 5022   5.839   3.934   5.906  0.0107 -0.0417  0.4461
   36MOL    O53 5023   5.997   3.807   5.774 -0.0699 -0.0538 -0.2234
   36MOL    H54 5024   5.970   3.776   5.973  0.8178 -0.5544 -0.6389
   36MOL    H55 5025   5.849   4.027   5.850 -3.2802 -0.0320 -0.2336
   36MOL    H56 5026   5.814   3.943   6.012  0.0644  0.4501  0.4200
   36MOL    H57 5027   5.766   3.873   5.853  0.1392 -0.7491  1.0751
   36MOL    C58 5028   6.085   3.700   5.766 -0.4056 -0.5837  0.0943
   36MOL    C59 5029   6.000   3.568   5.761  0.9106 -0.0326 -0.7372
   36MOL    O60 5030   6.169   3.710   5.657  0.4813  0.1421 -0.1178
   36MOL    H61 5031   6.135   3.695   5.862 -1.4109 -1.0353  0.6052
   36MOL    H62 5032   5.951   3.542   5.667  0.3760 -1.3788 -0.1055
   36MOL    H63 5033   5.932   3.568   5.846 -0.2849  0.0269 -1.6860
   36MOL    H64 5034   6.073   3.489   5.779  2.6636  1.5781 -0.5754
   36MOL    C65 5035   6.278   3.797   5.678  0.7560 -0.1088 -0.5699
   36MOL    C66 5036   6.400   3.710   5.721 -0.7281 -0.7540 -0.0163
   36MOL    O67 5037   6.307   3.865   5.562  0.0811 -0.0338 -0.0681
   36MOL    H68 5038   6.264   3.876   5.752  3.7491 -0.7698  0.8015
   36MOL    H69 5039   6.467   3.787   5.759 -1.2708 -0.1626 -0.2432
   36MOL    H70 5040   6.436   3.642   5.644  0.2662 -1.1702  0.8003
   36MOL    H71 5041   6.373   3.643   5.802 -3.3617 -1.1643 -1.1941
   36MOL    C72 5042   6.213   3.967   5.522  0.4538  0.3733 -0.2442
   36MOL    C73 5043   6.269   4.101   5.587  0.6283 -0.3860 -0.1466
   36MOL    O74 5044   6.226   3.985   5.386 -0.0371  0.1429 -0.2451
   36MOL    H75 5045   6.107   3.958   5.548  0.6413 -0.9472  0.1030
   36MOL    H76 5046   6.231   4.118   5.687 -0.5939  1.2918 -0.8807
   36MOL    H77 5047   6.260   4.182   5.515 -0.3617 -1.9550 -1.8542
   36MOL    H78 5048   6.376   4.081   5.590  0.2007 -2.7147  0.2638
   36MOL    C79 5049   6.177   3.873   5.320  0.3481  0.3472  0.7371
   36MOL    C80 5050   6.047   3.898   5.248  0.4606  0.2842  0.0655
   36MOL    O81 5051   6.276   3.834   5.223  0.1370  0.0752  0.5991
   36MOL    H82 5052   6.160   3.790   5.388  0.5196  0.5404  1.0162
   36MOL    H83 5053   6.012   3.802   5.211 -1.6832  1.9083 -2.3086
   36MOL    H84 5054   6.058   3.968   5.166  0.7961  1.8520  1.4158
   36MOL    H85 5055   5.983   3.940   5.326  0.8880  0.5532  0.2703
   36MOL    C86 5056   6.363   3.735   5.268 -0.1000  0.3328  0.1066
   36MOL    C87 5057   6.325   3.607   5.198 -0.4450 -0.1078  0.6878
   36MOL    O88 5058   6.496   3.762   5.231 -0.3327 -1.1564 -0.3554
   36MOL    H89 5059   6.356   3.714   5.375  1.8435  2.8434  0.7767
   36MOL    H90 5060   6.221   3.595   5.227 -1.8142  0.4163 -3.7316
   36MOL    H91 5061   6.382   3.520   5.231 -0.1040 -0.4818 -0.8673
   36MOL    H92 5062   6.322   3.611   5.089 -1.1286 -2.2341  0.6135
   36MOL    C93 5063   6.555   3.864   5.316  1.1752  0.3528 -0.2571
   36MOL    C94 5064   6.670   3.797   5.388 -0.2111 -0.0406  0.3736
   36MOL    O95 5065   6.606   3.972   5.242  0.5518  0.0894 -1.3363
   36MOL    H96 5066   6.487   3.901   5.393  0.6248  0.3184 -0.7215
   36MOL    H97 5067   6.643   3.694   5.415 -0.4194  0.3004  1.4739
   36MOL    H98 5068   6.692   3.850   5.480 -0.9932 -0.0530  0.5763
   36MOL    H99 5069   6.747   3.786   5.311 -1.5848 -0.9623 -0.9193
   36MOL   C100 5070   6.509   4.070   5.210 -0.0116  1.0829  0.6063
   36MOL   C101 5071   6.556   4.195   5.276  1.4160 -0.4669  0.4571
   36MOL   O102 5072   6.518   4.091   5.077 -0.4407  0.4696  0.8931
   36MOL   H103 5073   6.408   4.047   5.244 -0.6867  2.1598 -0.6206
   36MOL   H104 5074   6.543   4.196   5.384 -1.7630 -0.0326  0.1209
   36MOL   H105 5075   6.496   4.277   5.237 -0.1696 -1.9008 -0.2073
   36MOL   H106 5076   6.657   4.221   5.243  0.4707 -0.2205 -2.3901
   36MOL   C107 5077   6.459   3.999   4.993  0.5680 -0.3157 -0.5499
   36MOL   C108 5078   6.333   4.061   4.926  0.0862 -0.9088 -0.2673
   36MOL   O109 5079   6.539   3.967   4.889 -0.1417 -0.0067 -0.2678
   36MOL   H110 5080   6.433   3.907   5.046  0.1965  0.7888  1.2519
   36MOL   H111 5081   6.245   4.056   4.990  1.0916 -1.9626  1.0771
   36MOL   H112 5082   6.308   4.013   4.831  1.6010  1.1695 -1.7554
   36MOL   H113 5083   6.348   4.168   4.914  2.4003 -1.1637  0.0346
   36MOL   C114 5084   6.634   3.871   4.924 -0.3160 -0.1648 -0.5484
   36MOL   C115 5085   6.594   3.742   4.859 -0.6115 -0.1786 -0.5788
   36MOL   O116 5086   6.753   3.918   4.864 -0.6076  0.4274  0.1254
   36MOL   H117 5087   6.643   3.862   5.032  0.4717 -0.8968 -0.6800
   36MOL   H118 5088   6.678   3.673   4.866 -0.4993 -0.0920 -1.0466
   36MOL   H119 5089   6.570   3.756   4.754  0.1848  1.1057 -0.6058
   36MOL   H120 5090   6.509   3.690   4.902 -0.0398 -3.3753 -3.1466
   36MOL   C121 5091   6.816   4.020   4.935 -0.2436  0.1285 -0.7318
   36MOL   C122 5092   6.913   3.948   5.027  0.4259 -0.4096 -0.3369
   36MOL   O123 5093   6.878   4.108   4.850  0.4412 -0.1744  0.1565
   36MOL   H124 5094   6.744   4.078   4.993  1.1634  1.1240  0.0366
   36MOL   H125 5095   6.985   3.883   4.977  1.5146 -0.3190  1.0950
   36MOL   H126 5096   6.870   3.889   5.108  0.7789 -0.5465 -0.2510
   36MOL   H127 5097   6.973   4.023   5.078  0.6397 -1.5069  1.0530
   36MOL   C128 5098   6.809   4.162   4.744 -0.2368 -0.9478 -0.1755
   36MOL   C129 5099   6.826   4.306   4.762  0.1812 -0.0029  0.5844
   36MOL   O130 5100   6.862   4.128   4.616  0.6421  0.3504  0.4479
   36MOL   H131 5101   6.701   4.151   4.743 -0.5606  1.4953 -4.0385
   36MOL   H132 5102   6.740   4.358   4.720 -0.0484 -0.3295  0.6444
   36MOL   H133 5103   6.912   4.348   4.709 -0.0795  1.1559  1.0630
   36MOL   H134 5104   6.810   4.337   4.865 -0.0342 -0.9574  0.8491
   36MOL   C135 5105   6.830   4.006   4.558  0.5919  0.2571 -0.5986
   36MOL   C136 5106   6.674   3.982   4.547  0.1827  0.2069  0.3666
   36MOL   O137 5107   6.898   3.985   4.438  0.2046 -0.4488  0.2845
   36MOL   H138 5108   6.877   3.934   4.626  0.5298 -1.1234 -1.9851
   36MOL   H139 5109   6.620   3.990   4.641  1.7587 -0.3424  1.3496
   36MOL   H140 5110   6.659   3.878   4.519 -2.2255  0.1710  1.6770
   36MOL   H141 5111   6.632   4.046   4.469 -0.0267  0.2123  0.4856
   36MOL   H142 5112   6.978   4.036   4.437  1.3007 -2.0293  2.7291
   37MOL     C1 5113   0.513   2.822   7.851  0.7743  0.2007 -0.7955
   37MOL     C2 5114   0.474   2.774   7.706  0.7834 -0.3127 -0.2519
   37MOL     O3 5115   0.470   2.719   0.023  0.2255 -0.3640  0.8003
   37MOL     H4 5116   0.460   2.917   7.864  0.4343  0.0324 -0.9476
   37MOL     H5 5117   0.401   2.693   7.701 -0.3917  0.7828 -1.1147
   37MOL     H6 5118   0.562   2.742   7.651  0.0516 -2.1921 -0.3751
   37MOL     H7 5119   0.441   2.863   7.653  1.6528 -0.4137 -0.9779
   37MOL     H8 5120   0.619   2.843   7.868  0.9636 -1.8159  0.7217
   37MOL     C9 5121   0.514   2.740   0.153  0.1143 -0.0729 -0.2447
   37MOL    C10 5122   0.646   2.664   0.168  0.0792 -0.1282 -0.1365
   37MOL    O11 5123   0.523   2.876   0.186  0.6592 -0.1661 -0.0789
   37MOL    H12 5124   0.444   2.686   0.217  2.6404 -1.0727  1.7462
   37MOL    H13 5125   0.677   2.651   0.272  0.8768  0.2857 -0.3232
   37MOL    H14 5126   0.720   2.710   0.103  0.9469 -0.4888  0.5851
   37MOL    H15 5127   0.642   2.563   0.128 -0.0001 -1.5279  3.2439
   37MOL    C16 5128   0.503   2.907   0.320  0.0726  0.1353  0.1649
   37MOL    C17 5129   0.512   3.056   0.329  0.6055 -0.2955  0.8126
   37MOL    O18 5130   0.367   2.877   0.354 -0.1068 -0.1844 -0.0874
   37MOL    H19 5131   0.567   2.854   0.391 -0.4323 -0.1111  0.4372
   37MOL    H20 5132   0.614   3.089   0.346 -0.2856  3.0844  0.0316
   37MOL    H21 5133   0.462   3.094   0.418  0.2169  1.4845 -0.1470
   37MOL    H22 5134   0.474   3.107   0.240 -1.8612 -0.6510  1.6305
   37MOL    C23 5135   0.356   2.829   0.485  0.4980 -0.1745  0.2179
   37MOL    C24 5136   0.213   2.824   0.524 -0.0380  0.9170  0.0784
   37MOL    O25 5137   0.398   2.694   0.485 -0.6359 -0.0461 -0.0505
   37MOL    H26 5138   0.419   2.886   0.554  0.4197  1.3305 -0.9171
   37MOL    H27 5139   0.152   2.814   0.434 -0.2916  0.2136  0.3267
   37MOL    H28 5140   0.189   2.923   0.565 -1.2539  0.3538  0.7455
   37MOL    H29 5141   0.179   2.755   0.601 -1.9925  1.7002 -0.0361
   37MOL    C30 5142   0.438   2.641   0.614 -0.3370  0.1539  0.0109
   37MOL    C31 5143   0.458   2.491   0.600 -0.0113  0.5509 -0.4418
   37MOL    O32 5144   0.555   2.704   0.652  0.3904  0.1971  0.0396
   37MOL    H33 5145   0.351   2.663   0.675  0.2091  0.3620  0.7189
   37MOL    H34 5146   0.478   2.464   0.704  1.0026 -2.0538 -1.2893
   37MOL    H35 5147   0.538   2.471   0.528 -0.4170  1.1581 -1.0719
   37MOL    H36 5148   0.368   2.436   0.574 -0.4926  0.6737  0.9599
   37MOL    C37 5149   0.566   2.711   0.792  0.6659 -0.6861  0.4251
   37MOL    C38 5150   0.714   2.746   0.814  0.4431 -0.7598 -0.4595
   37MOL    O39 5151   0.497   2.822   0.829  0.5405 -0.4375 -0.0083
   37MOL    H40 5152   0.539   2.620   0.846  1.6102  0.1634  2.4022
   37MOL    H41 5153   0.780   2.680   0.758  2.1507 -1.5240  2.3648
   37MOL    H42 5154   0.741   2.747   0.920  0.1875  1.9678 -0.3815
   37MOL    H43 5155   0.727   2.848   0.776  2.1919 -1.1352 -0.8834
   37MOL    C44 5156   0.411   2.801   0.937 -0.0810 -0.0941 -0.0150
   37MOL    C45 5157   0.408   2.930   1.017  0.0743  0.4279 -0.5802
   37MOL    O46 5158   0.282   2.772   0.883  0.0464 -0.3914 -0.4248
   37MOL    H47 5159   0.453   2.723   1.001 -0.1851  0.7154  1.0738
   37MOL    H48 5160   0.500   2.951   1.073 -2.1580  2.2926  2.5861
   37MOL    H49 5161   0.335   2.929   1.098  0.0520  0.0333 -0.6088
   37MOL    H50 5162   0.402   3.018   0.952 -1.6351  0.0829 -0.9180
   37MOL    C51 5163   0.216   2.681   0.950 -0.5463  0.0936  0.1388
   37MOL    C52 5164   0.070   2.671   0.904  0.9356 -0.5422  0.2553
   37MOL    O53 5165   0.276   2.557   0.928 -0.0859 -0.5661  0.6759
   37MOL    H54 5166   0.214   2.705   1.057  0.8730  2.3259 -0.2987
   37MOL    H55 5167   0.017   2.762   0.931  2.3961 -0.6854  3.7561
   37MOL    H56 5168   0.013   2.589   0.947  1.1419 -0.7717  0.0948
   37MOL    H57 5169   0.063   2.650   0.797  1.4087  1.8086 -0.2673
   37MOL    C58 5170   0.286   2.477   1.046 -0.2767 -0.0673  0.1274
   37MOL    C59 5171   0.330   2.336   1.002 -0.3231  0.1376  0.7152
   37MOL    O60 5172   0.388   2.534   1.131 -0.0564  0.3454  0.3872
   37MOL    H61 5173   0.184   2.468   1.084 -0.2696 -1.6140 -0.1613
   37MOL    H62 5174   0.246   2.289   0.952  0.0340 -0.6178  0.8207
   37MOL    H63 5175   0.345   2.279   1.094 -0.0178  0.0246  0.5952
   37MOL    H64 5176   0.423   2.344   0.946 -0.6028  0.6979  0.3267
   37MOL    C65 5177   0.355   2.529   1.265 -0.5610  0.2939  0.2649
   37MOL    C66 5178   0.474   2.578   1.342  0.7696  0.6796  0.8650
   37MOL    O67 5179   0.253   2.615   1.299 -0.5615 -1.6723 -0.5278
   37MOL    H68 5180   0.337   2.424   1.286 -3.2906  0.1927 -2.2928
   37MOL    H69 5181   0.570   2.539   1.309 -0.4226 -2.4259  0.8944
   37MOL    H70 5182   0.462   2.546   1.446 -1.8988  0.7812  0.6376
   37MOL    H71 5183   0.473   2.687   1.340 -0.7033  0.6660  0.4639
   37MOL    C72 5184   0.135   2.553   1.345  0.4359 -0.4158  1.2798
   37MOL    C73 5185   0.103   2.627   1.471  0.2996 -0.0281 -0.2010
   37MOL    O74 5186   0.026   2.561   1.255  0.1109 -0.0346 -0.0808
   37MOL    H75 5187   0.150   2.450   1.379 -2.2972 -0.0587  3.8099
   37MOL    H76 5188   0.025   2.572   1.523  0.1347 -1.3334 -1.7971
   37MOL    H77 5189   0.071   2.727   1.443  1.2486  0.0827 -0.9261
   37MOL    H78 5190   0.188   2.643   1.538 -1.6752  1.5981  1.9875
   37MOL    C79 5191   7.860   2.450   1.257 -0.1857 -0.9802  0.0456
   37MOL    C80 5192   7.744   2.464   1.160  0.2087 -0.1750  0.0164
   37MOL    O81 5193   0.026   2.340   1.207  0.4183 -0.0576 -0.4511
   37MOL    H82 5194   7.819   2.438   1.357  1.3696  4.0115  1.4690
   37MOL    H83 5195   7.784   2.487   1.061  0.9777  5.6279  1.5185
   37MOL    H84 5196   7.673   2.539   1.194 -0.5497 -0.7177 -0.3727
   37MOL    H85 5197   7.695   2.367   1.162  0.7055 -0.4290  0.0662
   37MOL    C86 5198   0.015   2.220   1.283  0.3761 -0.1247 -0.7110
   37MOL    C87 5199   0.092   2.122   1.203 -0.0657  0.4610  0.7400
   37MOL    O88 5200   0.081   2.240   1.409 -0.4191  0.5280  0.6007
   37MOL    H89 5201   7.821   2.205   1.291  0.3687 -0.7728 -1.8713
   37MOL    H90 5202   0.195   2.157   1.201  0.1656 -0.2174  0.8874
   37MOL    H91 5203   0.054   2.123   1.101  1.5340 -0.6956  0.1118
   37MOL    H92 5204   0.084   2.022   1.246 -0.2590 -0.5145 -1.4838
   37MOL    C93 5205   0.005   2.196   1.517  0.0873  0.5145 -0.5959
   37MOL    C94 5206   0.106   2.165   1.634  0.2533  0.1237  0.5618
   37MOL    O95 5207   7.831   2.286   1.562  0.9052  0.4815  0.2279
   37MOL    H96 5208   7.885   2.095   1.494  3.1190 -0.7335  0.1821
   37MOL    H97 5209   0.050   2.140   1.724 -0.3157  0.3754  0.2781
   37MOL    H98 5210   0.162   2.257   1.652 -1.8185  0.8118  4.0630
   37MOL    H99 5211   0.175   2.086   1.606 -1.1659 -0.2576 -1.9990
   37MOL   C100 5212   7.702   2.228   1.595  0.3309 -0.6061 -0.3969
   37MOL   C101 5213   7.634   2.321   1.680 -0.3294  0.4489 -0.3153
   37MOL   O102 5214   7.626   2.206   1.474 -0.2585 -0.4321 -0.2246
   37MOL   H103 5215   7.721   2.134   1.647 -1.5901 -0.0918  1.3050
   37MOL   H104 5216   7.640   2.415   1.626 -2.9185  1.6671  1.3867
   37MOL   H105 5217   7.685   2.326   1.776  0.0645 -0.0672 -0.5022
   37MOL   H106 5218   7.532   2.284   1.693  0.6803 -2.3474 -0.0788
   37MOL   C107 5219   7.555   2.087   1.477 -0.1122  0.0991 -0.2148
   37MOL   C108 5220   7.448   2.084   1.374  0.1685 -0.1729  0.3111
   37MOL   O109 5221   7.652   1.994   1.434  0.3908 -0.2893  0.2248
   37MOL   H110 5222   7.522   2.067   1.578 -1.5124 -2.6569 -1.1711
   37MOL   H111 5223   7.397   1.988   1.390  1.1852 -0.5404  1.3888
   37MOL   H112 5224   7.486   2.082   1.272  1.7751  1.2372  0.8696
   37MOL   H113 5225   7.374   2.164   1.381 -1.0271 -1.0501 -1.8669
   37MOL   C114 5226   7.654   1.874   1.504 -0.0721  0.3359 -0.6381
   37MOL   C115 5227   7.729   1.781   1.413  0.1722  0.6258  0.9402
   37MOL   O116 5228   7.717   1.882   1.633 -0.0455 -0.5813  0.1214
   37MOL   H117 5229   7.552   1.835   1.508  0.0623 -0.1035 -1.3867
   37MOL   H118 5230   7.676   1.766   1.320  0.5700 -1.3570  1.0141
   37MOL   H119 5231   7.749   1.686   1.463  0.0870  0.1376  0.0518
   37MOL   H120 5232   7.828   1.818   1.388  0.6050 -0.3012  1.2458
   37MOL   C121 5233   7.638   1.838   1.741 -0.1604  0.3281  0.4859
   37MOL   C122 5234   7.737   1.817   1.854 -0.6048 -0.6049 -0.0776
   37MOL   O123 5235   7.545   1.929   1.786  0.9838 -0.0457 -0.0003
   37MOL   H124 5236   7.595   1.740   1.722  0.0927  0.4262 -0.5725
   37MOL   H125 5237   7.801   1.903   1.872  0.3494 -1.1925 -0.5659
   37MOL   H126 5238   7.804   1.734   1.833 -2.3110 -2.6374  2.1913
   37MOL   H127 5239   7.694   1.783   1.948 -0.1077  2.8689  1.4959
   37MOL   C128 5240   7.424   1.868   1.820  0.5213  0.0827 -0.6681
   37MOL   C129 5241   7.344   1.985   1.890  0.3537  0.3504  0.6146
   37MOL   O130 5242   7.363   1.817   1.705 -0.0903 -0.7221 -0.1961
   37MOL   H131 5243   7.443   1.786   1.889 -1.0385 -0.5094 -0.9285
   37MOL   H132 5244   7.406   2.064   1.932  2.3494 -0.4993 -0.6525
   37MOL   H133 5245   7.281   1.937   1.965 -0.8434 -1.6586 -1.5947
   37MOL   H134 5246   7.285   2.030   1.809  3.1637  3.2981  0.1218
   37MOL   C135 5247   7.258   1.727   1.728 -0.1613 -0.7008  0.6361
   37MOL   C136 5248   7.181   1.734   1.604  0.6110 -0.2511  0.0534
   37MOL   O137 5249   7.311   1.603   1.740 -0.3942  0.6990 -0.2268
   37MOL   H138 5250   7.177   1.741   1.800 -1.5430 -0.5142 -0.9064
   37MOL   H139 5251   7.248   1.704   1.524 -0.9864 -0.7463 -1.1167
   37MOL   H140 5252   7.151   1.838   1.597 -0.5079 -0.5318  0.6051
   37MOL   H141 5253   7.090   1.674   1.608 -1.1971  2.4521  0.5832
   37MOL   H142 5254   7.315   1.590   1.834 -0.7679 -1.9978 -0.5716
   38MOL     C1 5255   7.446   3.458   3.537  0.3964 -0.0083  0.1660
   38MOL     C2 5256   7.429   3.569   3.426  0.6129 -0.4899  0.4651
   38MOL     O3 5257   7.351   3.474   3.641  0.0233  0.1485  1.0181
   38MOL     H4 5258   7.547   3.475   3.571  0.2950  1.5541 -0.2892
   38MOL     H5 5259   7.449   3.665   3.472  0.8796  0.0252 -0.6933
   38MOL     H6 5260   7.329   3.584   3.385  0.7192 -0.2221  0.2994
   38MOL     H7 5261   7.506   3.564   3.348 -1.3745  1.0965 -1.6791
   38MOL     H8 5262   7.438   3.364   3.482 -0.2882  1.6012 -2.5617
   38MOL     C9 5263   7.362   3.388   3.750 -0.7629 -0.3797  0.0123
   38MOL    C10 5264   7.266   3.449   3.854 -0.0301  0.4760  0.5598
   38MOL    O11 5265   7.302   3.269   3.715  0.2691 -0.3822  0.1661
   38MOL    H12 5266   7.461   3.379   3.795 -0.9668  2.6334  1.1699
   38MOL    H13 5267   7.165   3.470   3.820 -0.0713  1.1496  1.0880
   38MOL    H14 5268   7.306   3.543   3.893  0.7044  0.5312 -0.3024
   38MOL    H15 5269   7.261   3.381   3.939 -0.8437 -1.8536 -1.2882
   38MOL    C16 5270   7.381   3.158   3.715 -0.5754 -0.3604 -0.0534
   38MOL    C17 5271   7.287   3.042   3.689  0.1685 -0.4269  0.4548
   38MOL    O18 5272   7.479   3.160   3.608 -0.3468 -0.3736 -0.1800
   38MOL    H19 5273   7.423   3.155   3.816 -1.4140 -0.4139  0.2984
   38MOL    H20 5274   7.349   2.952   3.680  0.5840 -0.1402  0.4051
   38MOL    H21 5275   7.239   3.052   3.592  0.4206 -2.4374  0.0930
   38MOL    H22 5276   7.224   3.032   3.778  1.7223  0.0228  1.6362
   38MOL    C23 5277   7.599   3.109   3.663 -0.1840  0.0727  0.0239
   38MOL    C24 5278   7.687   3.062   3.547  0.2957 -0.6430 -0.6038
   38MOL    O25 5279   7.661   3.219   3.730 -0.4624  0.4318 -0.4006
   38MOL    H26 5280   7.584   3.033   3.740  1.6518  0.4875  0.8297
   38MOL    H27 5281   7.634   2.991   3.484  0.4432 -2.0120  0.7981
   38MOL    H28 5282   7.767   3.001   3.588  1.1247 -0.6828 -2.2370
   38MOL    H29 5283   7.720   3.146   3.486 -1.4968 -0.7644 -1.7801
   38MOL    C30 5284   7.775   3.188   3.806 -0.0658  0.4538  0.6111
   38MOL    C31 5285   7.816   3.317   3.893 -0.3938  0.0035  0.2787
   38MOL    O32 5286   7.749   3.081   3.889  0.4560  0.1160  0.1060
   38MOL    H33 5287   7.854   3.164   3.736  0.0298 -2.4299  1.6693
   38MOL    H34 5288   7.753   3.324   3.982 -0.6151  0.3732  0.0943
   38MOL    H35 5289   7.827   3.407   3.834  0.8997 -0.1722  0.2436
   38MOL    H36 5290   0.004   3.298   3.927 -0.7133 -1.5536  0.4371
   38MOL    C37 5291   7.858   2.993   3.905  0.7858  0.9788  0.3091
   38MOL    C38 5292   7.816   2.883   4.007  0.0305  0.1944 -0.5648
   38MOL    O39 5293   7.886   2.920   3.785  0.8061  0.8806  0.0968
   38MOL    H40 5294   0.037   3.044   3.933  1.4225  0.5805 -1.0121
   38MOL    H41 5295   7.870   2.790   3.988  1.2135  0.8584 -0.4880
   38MOL    H42 5296   7.712   2.865   3.979 -0.0035  2.7702 -2.2253
   38MOL    H43 5297   7.824   2.904   4.114  0.5573 -0.5713 -0.4451
   38MOL    C44 5298   0.108   2.921   3.754 -0.3808  0.1908  0.4400
   38MOL    C45 5299   0.127   2.844   3.625  0.0113  0.0873  1.1076
   38MOL    O46 5300   0.152   3.054   3.735  0.9340  1.4378 -0.3502
   38MOL    H47 5301   0.151   2.867   3.838  0.5168  1.8336  1.0546
   38MOL    H48 5302   0.081   2.745   3.624 -1.7653  0.8382  3.5139
   38MOL    H49 5303   0.234   2.839   3.602 -0.2447 -0.4113 -0.0044
   38MOL    H50 5304   0.087   2.892   3.535 -0.1950  1.5370  1.9626
   38MOL    C51 5305   0.280   3.069   3.780 -0.2498  0.3131  0.0045
   38MOL    C52 5306   0.335   3.202   3.738 -0.6557 -0.0326  0.0942
   38MOL    O53 5307   0.290   3.058   3.917 -0.1462  0.1027  0.2833
   38MOL    H54 5308   0.352   3.003   3.731 -1.0882  0.8749 -2.0388
   38MOL    H55 5309   0.337   3.200   3.629 -1.0424  0.3740  0.0799
   38MOL    H56 5310   0.432   3.232   3.776 -0.9413  2.1716 -0.8682
   38MOL    H57 5311   0.265   3.278   3.772  0.2997  1.1959 -0.6436
   38MOL    C58 5312   0.417   3.012   3.966  0.0788 -0.2656 -0.1141
   38MOL    C59 5313   0.435   3.063   4.103  0.0097 -0.7524  0.3226
   38MOL    O60 5314   0.424   2.869   3.974  0.3084 -0.1523 -0.0567
   38MOL    H61 5315   0.491   3.054   3.899 -2.3049  0.5749 -2.3094
   38MOL    H62 5316   0.441   3.172   4.095  2.6652 -0.9789 -1.4451
   38MOL    H63 5317   0.519   3.023   4.159  0.4855 -0.3450 -0.0922
   38MOL    H64 5318   0.356   3.035   4.173 -0.5212 -1.2111 -0.4507
   38MOL    C65 5319   0.540   2.820   3.916  0.7947  0.4956  0.7387
   38MOL    C66 5320   0.545   2.668   3.947 -0.2465 -0.2115  0.2971
   38MOL    O67 5321   0.537   2.842   3.777 -0.3469 -0.2170  0.2150
   38MOL    H68 5322   0.623   2.871   3.965  3.0708 -0.4866 -1.9471
   38MOL    H69 5323   0.648   2.635   3.931 -0.4865 -0.0881 -1.7242
   38MOL    H70 5324   0.486   2.611   3.876  0.0778 -2.3726  1.7343
   38MOL    H71 5325   0.511   2.641   4.046 -2.2877 -0.0003 -0.3290
   38MOL    C72 5326   0.666   2.858   3.722 -1.2358  0.2742 -0.1311
   38MOL    C73 5327   0.672   2.767   3.595 -0.6711  0.0952  0.2598
   38MOL    O74 5328   0.697   2.982   3.674 -0.1974  0.3350  0.7904
   38MOL    H75 5329   0.741   2.832   3.796 -0.5822  0.1043 -0.8413
   38MOL    H76 5330   0.636   2.666   3.613  0.4285 -0.7793 -2.2598
   38MOL    H77 5331   0.771   2.774   3.549 -0.4541 -2.0740  0.3412
   38MOL    H78 5332   0.602   2.817   3.529  1.8385  0.8853 -1.8790
   38MOL    C79 5333   0.818   3.046   3.721  0.8689 -0.4749  0.0610
   38MOL    C80 5334   0.847   3.170   3.636  0.4372  0.4271  0.3419
   38MOL    O81 5335   0.800   3.092   3.847 -0.0177 -0.6529  0.1640
   38MOL    H82 5336   0.900   2.975   3.715 -0.1139 -1.6725  0.5051
   38MOL    H83 5337   0.885   3.136   3.539 -0.0644 -0.2770  0.3886
   38MOL    H84 5338   0.933   3.214   3.687  0.7699  1.1564 -0.8166
   38MOL    H85 5339   0.764   3.239   3.627 -0.0478 -0.0902  0.8287
   38MOL    C86 5340   0.899   3.063   3.938 -0.0487 -0.2980 -0.2882
   38MOL    C87 5341   0.860   3.124   4.070 -0.3798  0.5090  0.4940
   38MOL    O88 5342   0.910   2.924   3.961  0.1313  0.3350  0.4553
   38MOL    H89 5343   0.990   3.116   3.909  0.1670  0.2991  1.4572
   38MOL    H90 5344   0.949   3.118   4.132 -0.5275  2.6696  0.9351
   38MOL    H91 5345   0.779   3.072   4.120 -0.7965  0.9476  0.2715
   38MOL    H92 5346   0.833   3.229   4.061 -1.9606  0.1347  0.7435
   38MOL    C93 5347   1.034   2.868   3.949  0.0509  0.0336  0.1441
   38MOL    C94 5348   1.036   2.743   4.036 -0.0189  0.8718 -0.3970
   38MOL    O95 5349   1.070   2.830   3.819  0.0058  0.6041  0.4622
   38MOL    H96 5350   1.105   2.942   3.986 -1.0639  0.5788  1.2841
   38MOL    H97 5351   0.999   2.657   3.980  1.2761 -0.9806  1.5520
   38MOL    H98 5352   0.978   2.757   4.128 -1.4975  0.2370 -1.2029
   38MOL    H99 5353   1.132   2.699   4.060  0.1275  3.0618  3.3829
   38MOL   C100 5354   1.205   2.850   3.787 -0.7641  0.4057 -0.5582
   38MOL   C101 5355   1.234   2.767   3.664  0.4283 -0.4425  0.5143
   38MOL   O102 5356   1.226   2.984   3.753 -0.0382 -0.3671 -0.0710
   38MOL   H103 5357   1.271   2.811   3.864  1.1539  1.0506 -1.8356
   38MOL   H104 5358   1.211   2.662   3.680 -0.5877 -0.0656  1.6867
   38MOL   H105 5359   1.339   2.771   3.636 -0.2550 -1.8092 -2.3951
   38MOL   H106 5360   1.179   2.817   3.583  1.1174  2.4319  1.7385
   38MOL   C107 5361   1.332   3.049   3.819 -0.0038 -0.2241 -0.2031
   38MOL   C108 5362   1.353   3.187   3.758 -0.0309 -0.1562  0.2692
   38MOL   O109 5363   1.311   3.078   3.966 -0.1933 -0.5188  0.0906
   38MOL   H110 5364   1.422   2.990   3.797  0.8811  1.1355 -0.3206
   38MOL   H111 5365   1.365   3.192   3.649  0.5233  0.7935  0.3704
   38MOL   H112 5366   1.438   3.237   3.803 -0.4307 -0.1871  1.0566
   38MOL   H113 5367   1.268   3.249   3.788  0.8301 -0.0769  2.6013
   38MOL   C114 5368   1.417   3.049   4.038 -0.2049 -0.3194  0.0444
   38MOL   C115 5369   1.394   3.116   4.179  0.4082  0.6089  0.7768
   38MOL   O116 5370   1.417   2.908   4.044  0.3522 -0.1776  0.5074
   38MOL   H117 5371   1.510   3.086   3.993 -1.5525  1.5051 -1.3181
   38MOL   H118 5372   1.473   3.087   4.248  0.3787 -1.8534 -0.1666
   38MOL   H119 5373   1.295   3.098   4.219  0.9412 -0.0992  1.7818
   38MOL   H120 5374   1.401   3.225   4.171 -0.9226  0.8403  2.6090
   38MOL   C121 5375   1.539   2.852   4.038 -0.0738  0.0703  0.2075
   38MOL   C122 5376   1.528   2.702   4.057 -0.0365 -0.0796  1.3254
   38MOL   O123 5377   1.600   2.868   3.914  0.6349  0.1963 -0.5008
   38MOL   H124 5378   1.600   2.896   4.117  2.5995  0.4730 -1.9969
   38MOL   H125 5379   1.472   2.686   4.149  0.5376 -1.4521  1.4534
   38MOL   H126 5380   1.619   2.644   4.073 -0.4938 -1.1171  0.2624
   38MOL   H127 5381   1.465   2.648   3.986  0.7333  1.6320 -0.7024
   38MOL   C128 5382   1.736   2.895   3.921  1.3570  0.2165 -0.6920
   38MOL   C129 5383   1.797   2.864   3.784 -0.0652  0.1584  0.1611
   38MOL   O130 5384   1.748   3.032   3.941 -1.0058 -0.2041  0.1804
   38MOL   H131 5385   1.772   2.832   4.002 -0.4587 -1.0671 -0.8364
   38MOL   H132 5386   1.904   2.881   3.787 -0.2839  1.5872  0.2432
   38MOL   H133 5387   1.758   2.923   3.702 -2.5955  0.9542  1.8763
   38MOL   H134 5388   1.775   2.758   3.771  1.2399  0.0714 -1.4162
   38MOL   C135 5389   1.848   3.061   4.035  0.3669  0.1795  0.0759
   38MOL   C136 5390   1.876   3.210   4.034  0.2173 -0.2179  0.0840
   38MOL   O137 5391   1.802   3.020   4.158 -0.7774  0.0503  0.2536
   38MOL   H138 5392   1.944   3.012   4.015 -1.6272 -3.1209 -1.8784
   38MOL   H139 5393   1.967   3.228   4.091  1.0745  0.9547 -1.5967
   38MOL   H140 5394   1.791   3.269   4.069  0.9812 -0.2298  2.0275
   38MOL   H141 5395   1.887   3.253   3.934  1.8676  1.2780  0.8727
   38MOL   H142 5396   1.868   2.996   4.221 -1.0039  2.5957  1.5240
   39MOL     C1 5397   4.343   4.158   0.084 -0.5287 -0.7377  0.0354
   39MOL     C2 5398   4.365   4.312   0.074  0.3806 -0.0810 -0.2930
   39MOL     O3 5399   4.235   4.125   0.170 -0.2737  0.3070  0.2248
   39MOL     H4 5400   4.428   4.104   0.126  0.0906 -1.1127 -1.6858
   39MOL     H5 5401   4.271   4.359   0.046 -0.1480 -0.6227  0.5349
   39MOL     H6 5402   4.446   4.343   0.008  0.0346  0.8329 -0.2862
   39MOL     H7 5403   4.400   4.354   0.168 -0.8411 -0.2356  0.2338
   39MOL     H8 5404   4.330   4.119   7.897  1.6734 -0.3129 -0.4391
   39MOL     C9 5405   4.210   3.984   0.167 -0.2070 -0.5798 -0.2478
   39MOL    C10 5406   4.211   3.944   0.316  0.8586  0.1416 -0.1300
   39MOL    O11 5407   4.078   3.956   0.111 -0.1829 -0.4598 -0.1584
   39MOL    H12 5408   4.287   3.925   0.118 -0.1934 -2.5353  2.0607
   39MOL    H13 5409   4.149   4.016   0.369  1.4882  0.0127  0.7943
   39MOL    H14 5410   4.307   3.959   0.365  0.8718  0.5034 -0.2656
   39MOL    H15 5411   4.185   3.839   0.326 -0.9834  0.0972 -4.3876
   39MOL    C16 5412   4.060   3.956   7.885  0.6267 -0.2854  0.2704
   39MOL    C17 5413   4.029   3.813   7.839  0.1966 -0.5240 -0.3674
   39MOL    O18 5414   3.951   4.025   7.840 -0.5686 -0.0653  0.1471
   39MOL    H19 5415   4.146   4.004   7.838  0.5672  0.4504  0.8925
   39MOL    H20 5416   4.017   3.806   7.731 -4.6233 -1.1014  0.0897
   39MOL    H21 5417   3.928   3.790   7.875 -0.4568 -0.7911 -2.3191
   39MOL    H22 5418   4.096   3.744   7.890  2.1623  1.0336 -0.7881
   39MOL    C23 5419   3.942   4.155   7.886 -0.4970 -0.1848 -0.1451
   39MOL    C24 5420   4.020   4.257   7.805  0.7890 -0.1806  0.2512
   39MOL    O25 5421   3.817   4.195   7.893 -0.3901  0.0415 -0.2564
   39MOL    H26 5422   3.972   4.169   0.076  1.0739 -1.2332 -0.4432
   39MOL    H27 5423   4.126   4.242   7.826  0.5264  0.4062  2.0251
   39MOL    H28 5424   4.005   4.360   7.837  1.7024  0.1792 -0.4336
   39MOL    H29 5425   4.002   4.238   7.699  0.5372 -2.7319  0.7120
   39MOL    C30 5426   3.729   4.119   0.062  0.1550 -0.2949 -0.0496
   39MOL    C31 5427   3.683   4.216   0.174 -0.2886  0.3090  0.4549
   39MOL    O32 5428   3.615   4.086   7.904  0.2177 -0.1266  0.2154
   39MOL    H33 5429   3.780   4.035   0.108  1.7222  0.9609  0.5531
   39MOL    H34 5430   3.764   4.254   0.237 -1.1761  2.4069  0.3856
   39MOL    H35 5431   3.606   4.166   0.233 -1.4620 -0.0442 -1.3449
   39MOL    H36 5432   3.649   4.308   0.126 -2.8429 -2.0634 -2.4684
   39MOL    C37 5433   3.634   3.990   7.800  0.7669 -0.5567  0.0099
   39MOL    C38 5434   3.601   3.854   7.875 -0.6779  0.4895  0.0723
   39MOL    O39 5435   3.540   4.003   7.699  0.4788  0.5382  0.3705
   39MOL    H40 5436   3.735   3.990   7.758  0.7439 -0.5392 -0.0444
   39MOL    H41 5437   3.499   3.864   7.913 -1.4829  0.3330 -1.9541
   39MOL    H42 5438   3.676   3.834   0.036  1.7353 -0.7915 -2.5822
   39MOL    H43 5439   3.600   3.779   7.796  2.1767  1.0196 -0.5238
   39MOL    C44 5440   3.561   4.117   7.617  0.3589  0.2019  0.3232
   39MOL    C45 5441   3.606   4.054   7.482 -0.5389  0.1706 -0.0457
   39MOL    O46 5442   3.443   4.189   7.584 -0.7304 -0.1143  0.5456
   39MOL    H47 5443   3.631   4.184   7.668  0.7229  0.3507 -0.3619
   39MOL    H48 5444   3.626   4.130   7.407 -0.8326 -1.9463 -2.3624
   39MOL    H49 5445   3.523   3.989   7.454  1.0060 -2.9880  2.3382
   39MOL    H50 5446   3.693   3.989   7.496 -0.5000  0.2498  0.0735
   39MOL    C51 5447   3.348   4.211   7.693  0.3138  0.1888  0.0490
   39MOL    C52 5448   3.362   4.351   7.749  0.0486  0.0735 -0.2666
   39MOL    O53 5449   3.226   4.202   7.639 -0.3913 -0.0222  0.1665
   39MOL    H54 5450   3.366   4.140   7.774 -3.5370 -1.9074 -0.8434
   39MOL    H55 5451   3.360   4.428   7.672  0.1690  0.2018 -0.1404
   39MOL    H56 5452   3.455   4.364   7.803 -2.2309  2.6552  3.2170
   39MOL    H57 5453   3.280   4.360   7.820  0.8163 -0.4420  0.7047
   39MOL    C58 5454   3.187   4.072   7.600  0.1711  0.1280 -0.9442
   39MOL    C59 5455   3.113   4.001   7.721  0.1545 -0.6902  0.5238
   39MOL    O60 5456   3.085   4.070   7.502 -0.1424  0.6905 -0.6088
   39MOL    H61 5457   3.265   4.007   7.559  1.1445 -0.0252  1.0733
   39MOL    H62 5458   3.029   4.063   7.751  0.2821  0.7013 -1.8835
   39MOL    H63 5459   3.167   3.995   7.816  0.1977  1.8935  0.6996
   39MOL    H64 5460   3.095   3.896   7.700 -1.5011 -0.3859  0.3994
   39MOL    C65 5461   3.127   4.133   7.385  0.0864  0.4564 -0.0040
   39MOL    C66 5462   3.162   4.036   7.271 -0.5048 -0.3945 -0.2055
   39MOL    O67 5463   3.011   4.200   7.345 -0.2331 -0.1974  0.1086
   39MOL    H68 5464   3.214   4.195   7.404 -0.2420  1.0383 -0.3671
   39MOL    H69 5465   3.237   3.971   7.316  0.3683  0.0192 -1.0727
   39MOL    H70 5466   3.210   4.083   7.186  0.2738  2.0595  1.5504
   39MOL    H71 5467   3.069   3.983   7.247 -0.1452 -0.3531 -1.7218
   39MOL    C72 5468   2.974   4.305   7.430 -0.0525 -0.5076  0.4959
   39MOL    C73 5469   3.051   4.431   7.387  0.1983  0.7019 -0.1713
   39MOL    O74 5470   2.839   4.331   7.412  0.5317  0.1367 -0.4079
   39MOL    H75 5471   2.996   4.280   7.534 -3.8491  0.0132  1.4876
   39MOL    H76 5472   3.005   4.517   7.435 -0.1610  0.8955 -0.8489
   39MOL    H77 5473   3.038   4.438   7.279 -5.1084 -1.6390  0.1999
   39MOL    H78 5474   3.159   4.437   7.403  0.2884  0.5397 -0.7043
   39MOL    C79 5475   2.753   4.226   7.441 -0.1107  0.2908 -0.1761
   39MOL    C80 5476   2.731   4.229   7.594  0.5072 -0.2387  0.4834
   39MOL    O81 5477   2.639   4.249   7.377 -0.0594  0.4635 -0.1464
   39MOL    H82 5478   2.792   4.129   7.410 -2.1342 -1.2252  1.7984
   39MOL    H83 5479   2.698   4.327   7.629 -2.6451 -0.4992 -1.5771
   39MOL    H84 5480   2.823   4.185   7.633  1.5607  1.5040  0.0561
   39MOL    H85 5481   2.652   4.162   7.624  0.7362  0.3214  2.3947
   39MOL    C86 5482   2.642   4.207   7.244  0.6725 -0.8711  1.0894
   39MOL    C87 5483   2.540   4.098   7.239  0.2899 -0.2245 -0.8317
   39MOL    O88 5484   2.603   4.309   7.161 -0.2115  0.3471  0.8773
   39MOL    H89 5485   2.740   4.171   7.213  0.8426 -0.0475  0.6659
   39MOL    H90 5486   2.576   4.005   7.284 -0.3616 -0.7533 -1.3855
   39MOL    H91 5487   2.511   4.071   7.138  0.4482  1.0950 -1.2330
   39MOL    H92 5488   2.447   4.129   7.286  0.7221  0.0906 -0.1676
   39MOL    C93 5489   2.698   4.405   7.121  0.0056  0.1447 -0.0261
   39MOL    C94 5490   2.729   4.359   6.979 -0.3310 -0.0555 -0.0199
   39MOL    O95 5491   2.635   4.528   7.118  0.1620 -0.1128 -0.0277
   39MOL    H96 5492   2.784   4.408   7.188  0.0635 -3.0502  0.1396
   39MOL    H97 5493   2.775   4.443   6.926 -0.3036 -0.7393 -1.1126
   39MOL    H98 5494   2.643   4.344   6.914  0.6421  1.6520 -1.7685
   39MOL    H99 5495   2.804   4.281   6.966 -1.2243 -1.1330  1.2077
   39MOL   C100 5496   2.618   4.584   7.243  0.8257  0.0600  0.4047
   39MOL   C101 5497   2.707   4.708   7.244 -0.2727 -0.3964  0.1355
   39MOL   O102 5498   2.487   4.624   7.246  0.4467 -0.7792  0.7732
   39MOL   H103 5499   2.642   4.509   7.318 -0.8545 -0.3446  0.5514
   39MOL   H104 5500   2.812   4.693   7.220 -0.0815  1.1232 -0.0147
   39MOL   H105 5501   2.695   4.763   7.338  0.4826 -2.3353  1.3976
   39MOL   H106 5502   2.677   4.776   7.165 -1.4595 -0.1333  0.7953
   39MOL   C107 5503   2.398   4.527   7.289  0.2106 -0.2780 -0.2767
   39MOL   C108 5504   2.362   4.560   7.431 -0.2735 -0.2353  0.1102
   39MOL   O109 5505   2.291   4.523   7.205  1.2874  0.5205 -0.4658
   39MOL   H110 5506   2.449   4.431   7.300 -0.3581 -0.3896  1.5181
   39MOL   H111 5507   2.312   4.657   7.432 -0.5359 -0.3801  0.7835
   39MOL   H112 5508   2.452   4.568   7.492 -0.6416 -0.4118  0.6749
   39MOL   H113 5509   2.291   4.487   7.469 -1.7665  0.9252 -0.4131
   39MOL   C114 5510   2.309   4.450   7.082 -0.3506  0.5273  0.6056
   39MOL   C115 5511   2.241   4.311   7.096  0.0968  0.5308  0.8552
   39MOL   O116 5512   2.236   4.514   6.982 -0.2705  0.4158 -0.5812
   39MOL   H117 5513   2.415   4.433   7.066 -0.4247  0.9411 -0.3503
   39MOL   H118 5514   2.133   4.306   7.109 -0.2253  2.2509 -0.9294
   39MOL   H119 5515   2.293   4.263   7.179 -1.3653  0.8167  1.9404
   39MOL   H120 5516   2.262   4.265   6.999 -3.8585  1.2223 -0.3822
   39MOL   C121 5517   2.307   4.614   6.918  0.0351  0.4367  0.8295
   39MOL   C122 5518   2.364   4.556   6.789 -0.4355 -0.3207 -0.1303
   39MOL   O123 5519   2.227   4.719   6.886 -0.2904  0.0702 -0.1134
   39MOL   H124 5520   2.391   4.652   6.976  0.7265 -0.1126  0.1852
   39MOL   H125 5521   2.440   4.628   6.759 -0.9010 -0.3690 -1.4737
   39MOL   H126 5522   2.282   4.553   6.717 -1.0797 -0.2805  0.5919
   39MOL   H127 5523   2.404   4.456   6.804  2.4740  0.5450 -1.7122
   39MOL   C128 5524   2.205   4.803   6.998  0.6169  0.2782 -0.0037
   39MOL   C129 5525   2.313   4.912   7.003 -0.0745  0.3468 -0.7155
   39MOL   O130 5526   2.082   4.866   6.987 -0.0155 -0.2217  0.2041
   39MOL   H131 5527   2.198   4.744   7.090 -0.8883 -2.2379 -1.6753
   39MOL   H132 5528   2.295   4.979   7.087  1.2661  1.7977 -1.5760
   39MOL   H133 5529   2.312   4.970   6.911  1.5025  0.7125 -0.5146
   39MOL   H134 5530   2.405   4.859   7.027 -1.1187  0.0205  2.9854
   39MOL   C135 5531   1.972   4.785   7.007 -0.0135 -0.0892  0.3900
   39MOL   C136 5532   1.858   4.867   7.056 -0.2225 -0.3800  0.6288
   39MOL   O137 5533   1.936   4.714   6.888 -0.3119  0.2194 -0.4478
   39MOL   H138 5534   1.997   4.712   7.085 -2.5884 -1.9098 -0.4062
   39MOL   H139 5535   1.884   4.928   7.143 -0.1025 -1.3251  1.2689
   39MOL   H140 5536   1.771   4.804   7.076 -2.0369  1.2035 -2.0729
   39MOL   H141 5537   1.835   4.944   6.983 -2.7243  0.1026  1.8773
   39MOL   H142 5538   1.998   4.643   6.881  0.5122  0.9170 -0.2790
   40MOL     C1 5539   5.492   4.603   1.128  0.6916  0.4746 -0.0484
   40MOL     C2 5540   5.370   4.542   1.199 -0.5207 -0.6863  0.3665
   40MOL     O3 5541   5.601   4.584   1.218  0.6921 -0.2877 -0.2609
   40MOL     H4 5542   5.468   4.709   1.120 -2.4975 -0.2059 -0.2524
   40MOL     H5 5543   5.338   4.580   1.296 -2.4796  0.6784 -0.7667
   40MOL     H6 5544   5.389   4.437   1.221 -0.8621  0.0824  4.6098
   40MOL     H7 5545   5.282   4.543   1.134 -0.6682  0.2776  0.5771
   40MOL     H8 5546   5.512   4.566   1.027 -1.6005  0.4913 -0.5430
   40MOL     C9 5547   5.717   4.649   1.177 -0.1530 -0.3129 -0.3291
   40MOL    C10 5548   5.810   4.660   1.294 -0.8259  0.8991  0.0502
   40MOL    O11 5549   5.789   4.582   1.088  0.3297  0.4700  0.4590
   40MOL    H12 5550   5.678   4.743   1.138 -0.6033 -0.7914 -1.0420
   40MOL    H13 5551   5.868   4.751   1.280 -0.1509  0.1002 -2.5537
   40MOL    H14 5552   5.872   4.571   1.300 -1.8956  0.2160  1.2857
   40MOL    H15 5553   5.744   4.671   1.380  1.4383  0.2556  1.9467
   40MOL    C16 5554   5.887   4.657   1.017 -0.0598  0.4281 -0.0622
   40MOL    C17 5555   6.025   4.611   1.063  0.9244  0.4520 -0.8069
   40MOL    O18 5556   5.876   4.626   0.879  0.1228 -0.2002 -1.2021
   40MOL    H19 5557   5.876   4.764   1.031 -0.3905  0.2271  1.3213
   40MOL    H20 5558   6.036   4.632   1.169  1.0565  2.4194 -1.1919
   40MOL    H21 5559   6.108   4.660   1.012  0.6359 -0.5500 -2.2546
   40MOL    H22 5560   6.043   4.504   1.054  1.6331  0.7694 -3.7948
   40MOL    C23 5561   5.794   4.711   0.801  0.3932 -0.2943  0.8775
   40MOL    C24 5562   5.884   4.826   0.757 -0.2084  0.0107  0.1312
   40MOL    O25 5563   5.760   4.638   0.685  0.5091  0.3554 -0.3578
   40MOL    H26 5564   5.705   4.736   0.860 -0.6659  0.1051 -0.8604
   40MOL    H27 5565   5.930   4.876   0.842  3.7466  0.4849 -2.1379
   40MOL    H28 5566   5.834   4.897   0.692  2.4276  0.1994 -1.7755
   40MOL    H29 5567   5.962   4.793   0.689 -1.1502  1.8124 -1.8889
   40MOL    C30 5568   5.676   4.523   0.695 -0.0759  0.4006 -0.2678
   40MOL    C31 5569   5.535   4.558   0.735 -0.6579 -0.0701  0.3006
   40MOL    O32 5570   5.662   4.464   0.571  0.5055 -0.4266  0.1701
   40MOL    H33 5571   5.717   4.455   0.770  0.9212  0.2298 -0.9607
   40MOL    H34 5572   5.518   4.619   0.823  1.2122  1.5257 -0.3988
   40MOL    H35 5573   5.474   4.468   0.738  1.0252 -1.2709 -0.5961
   40MOL    H36 5574   5.491   4.618   0.655  1.2971 -0.6378 -1.2222
   40MOL    C37 5575   5.770   4.407   0.513  0.2456 -0.2307  0.5080
   40MOL    C38 5576   5.743   4.260   0.502 -0.0398  0.2930 -0.3973
   40MOL    O39 5577   5.783   4.455   0.382 -0.2304 -0.7567  0.0546
   40MOL    H40 5578   5.860   4.427   0.571 -1.4171  2.5872  2.2470
   40MOL    H41 5579   5.808   4.207   0.432  0.2116 -2.6141  1.9250
   40MOL    H42 5580   5.643   4.249   0.459  0.3441 -0.7461 -1.0562
   40MOL    H43 5581   5.737   4.212   0.600  1.8887 -1.0892 -0.9164
   40MOL    C44 5582   5.847   4.579   0.374 -0.4387  0.0383 -0.1231
   40MOL    C45 5583   5.974   4.556   0.289 -0.4803 -0.0836 -0.0871
   40MOL    O46 5584   5.773   4.671   0.297 -0.0547  0.2556  0.3125
   40MOL    H47 5585   5.878   4.618   0.471  0.1846  0.6760 -0.5627
   40MOL    H48 5586   6.045   4.636   0.309 -0.2760  0.0578 -1.3475
   40MOL    H49 5587   5.948   4.544   0.184  0.7907  0.0013 -0.4106
   40MOL    H50 5588   6.022   4.461   0.312  0.8218  0.3336 -1.1067
   40MOL    C51 5589   5.648   4.701   0.346  0.6401  0.6727 -0.3787
   40MOL    C52 5590   5.662   4.828   0.437  0.2480  0.5297 -0.0785
   40MOL    O53 5591   5.559   4.742   0.251  0.0703 -0.8238  0.4635
   40MOL    H54 5592   5.612   4.624   0.414  1.7127 -1.4478 -2.1518
   40MOL    H55 5593   5.740   4.820   0.513  0.8015  2.4775 -0.4089
   40MOL    H56 5594   5.565   4.849   0.483  0.8203  0.8472  1.0090
   40MOL    H57 5595   5.687   4.910   0.369 -2.1174  2.5368  1.3902
   40MOL    C58 5596   5.496   4.636   0.182  0.1090 -1.2184 -0.2300
   40MOL    C59 5597   5.380   4.574   0.265  0.1519  0.1789 -0.5359
   40MOL    O60 5598   5.438   4.687   0.062  0.0809  0.3358  0.1619
   40MOL    H61 5599   5.568   4.556   0.166 -0.7160 -1.9590 -0.3099
   40MOL    H62 5600   5.325   4.494   0.215  2.6875 -3.2708  1.8773
   40MOL    H63 5601   5.311   4.657   0.278 -1.2512 -0.9955 -0.3486
   40MOL    H64 5602   5.409   4.549   0.367 -0.3209 -0.3638 -0.5321
   40MOL    C65 5603   5.527   4.695   7.870 -0.2109  0.1549 -1.2073
   40MOL    C66 5604   5.480   4.588   7.772 -0.1216 -0.3116 -0.3569
   40MOL    O67 5605   5.522   4.812   7.806  0.1843  0.4752  0.3104
   40MOL    H68 5606   5.631   4.676   7.896 -0.5978 -1.1602 -0.5816
   40MOL    H69 5607   5.376   4.597   7.743 -0.4198 -1.2542  0.3987
   40MOL    H70 5608   5.469   4.493   7.826  1.6863 -0.4504 -0.1696
   40MOL    H71 5609   5.547   4.563   7.689 -2.4787 -2.0619 -1.8097
   40MOL    C72 5610   5.574   4.921   7.873  0.1774 -0.7740 -0.0451
   40MOL    C73 5611   5.709   4.952   7.812  0.0994 -0.2311 -0.9066
   40MOL    O74 5612   5.504   5.036   7.847 -0.4900  0.2681 -0.2560
   40MOL    H75 5613   5.576   4.897   0.066 -2.6493  1.5275  0.5674
   40MOL    H76 5614   5.698   4.959   7.704  0.7232 -0.3017 -0.9738
   40MOL    H77 5615   5.781   4.874   7.831  1.4482  1.4603  1.2060
   40MOL    H78 5616   5.749   5.049   7.843 -0.0622 -0.9256  1.5541
   40MOL    C79 5617   5.375   5.033   7.907 -0.2575 -0.5990 -0.0162
   40MOL    C80 5618   5.376   5.148   0.083  0.3052 -0.8209 -0.5047
   40MOL    O81 5619   5.278   5.068   7.810 -0.2464 -0.3230 -0.2048
   40MOL    H82 5620   5.339   4.944   0.045 -0.4974  0.2871  1.3579
   40MOL    H83 5621   5.279   5.162   0.131  0.2737  0.3250 -0.8747
   40MOL    H84 5622   5.387   5.242   0.028  0.0174 -0.0770  0.6782
   40MOL    H85 5623   5.458   5.153   0.154  0.9814  3.0319 -1.4174
   40MOL    C86 5624   5.279   4.987   7.693  0.5110  0.0763 -0.1570
   40MOL    C87 5625   5.170   4.881   7.700 -0.1501  0.0501  0.1946
   40MOL    O88 5626   5.248   5.065   7.579  0.4180  0.7376 -0.0405
   40MOL    H89 5627   5.368   4.930   7.667  2.6034  3.2934 -0.4717
   40MOL    H90 5628   5.164   4.814   7.615 -0.9734 -0.7831  0.8998
   40MOL    H91 5629   5.071   4.925   7.710  0.4880  1.8258 -1.0705
   40MOL    H92 5630   5.193   4.823   7.789 -0.3200  0.2167  0.3489
   40MOL    C93 5631   5.335   5.174   7.557 -0.0773 -0.2047 -0.3900
   40MOL    C94 5632   5.455   5.129   7.467  0.4475 -0.0113 -0.0748
   40MOL    O95 5633   5.271   5.275   7.477  0.5416 -0.2392  0.1585
   40MOL    H96 5634   5.377   5.209   7.651  2.5336 -1.6844 -0.9502
   40MOL    H97 5635   5.423   5.084   7.373  1.3136 -1.7844  0.4486
   40MOL    H98 5636   5.510   5.045   7.508  0.6400 -0.1843 -0.6877
   40MOL    H99 5637   5.527   5.209   7.450 -1.5929  2.5715  2.7387
   40MOL   C100 5638   5.156   5.320   7.546  0.3302 -0.0446 -0.1788
   40MOL   C101 5639   5.189   5.432   7.640  0.3173  0.2985  0.0352
   40MOL   O102 5640   5.061   5.358   7.455  0.7969 -0.1792 -0.4300
   40MOL   H103 5641   5.106   5.236   7.595  0.8670 -0.9534 -1.1455
   40MOL   H104 5642   5.245   5.378   7.716 -0.6566  0.4588  0.8702
   40MOL   H105 5643   5.105   5.483   7.687  1.3056  1.7557  0.2899
   40MOL   H106 5644   5.259   5.499   7.589 -0.6238  1.3192  0.0589
   40MOL   C107 5645   4.995   5.251   7.389  0.3769 -0.0141 -0.0886
   40MOL   C108 5646   4.846   5.265   7.424  0.3855  0.6337  0.3020
   40MOL   O109 5647   4.994   5.275   7.251 -0.6580  0.0140 -0.0904
   40MOL   H110 5648   5.034   5.152   7.413 -2.9074 -1.6963 -1.2342
   40MOL   H111 5649   4.833   5.272   7.532  0.8772  1.8176  0.2897
   40MOL   H112 5650   4.786   5.184   7.381  2.6921 -2.3710  2.4580
   40MOL   H113 5651   4.820   5.364   7.389  2.5455  0.6636 -1.3678
   40MOL   C114 5652   5.114   5.249   7.183  0.4817 -0.1620 -0.3739
   40MOL   C115 5653   5.079   5.135   7.081 -0.6774 -0.7001  0.5958
   40MOL   O116 5654   5.145   5.360   7.105 -0.2858 -0.2709 -0.4043
   40MOL   H117 5655   5.192   5.213   7.250  0.8649  1.8581  0.3156
   40MOL   H118 5656   5.067   5.037   7.127  0.8705 -0.2981  1.8897
   40MOL   H119 5657   5.156   5.134   7.004 -0.7670 -2.2426  0.4957
   40MOL   H120 5658   4.983   5.170   7.041  0.7138  0.6113 -1.6842
   40MOL   C121 5659   5.168   5.473   7.182 -0.0919  0.7451 -0.4457
   40MOL   C122 5660   5.313   5.520   7.167 -0.3717  0.4933 -0.1137
   40MOL   O123 5661   5.098   5.588   7.133 -0.1993 -0.4653 -0.0376
   40MOL   H124 5662   5.148   5.463   7.288  0.1838  2.4239 -0.2213
   40MOL   H125 5663   5.343   5.546   7.065 -1.2423  2.1160  0.0208
   40MOL   H126 5664   5.375   5.444   7.213 -3.0557 -1.5729  0.2274
   40MOL   H127 5665   5.319   5.607   7.231 -1.6472  0.3840  0.1651
   40MOL   C128 5666   4.960   5.590   7.177 -0.0235  0.4819  0.4057
   40MOL   C129 5667   4.961   5.715   7.268 -0.4598 -0.0105  0.0326
   40MOL   O130 5668   4.864   5.606   7.073 -0.1109 -0.0259 -0.5613
   40MOL   H131 5669   4.935   5.502   7.236  0.4055 -1.1229 -1.7470
   40MOL   H132 5670   5.035   5.711   7.348 -0.5150 -0.2374  0.0732
   40MOL   H133 5671   4.866   5.717   7.322  0.7650  0.6104  2.2413
   40MOL   H134 5672   4.973   5.812   7.220  0.8268 -0.4238 -0.4883
   40MOL   C135 5673   4.858   5.500   6.980  0.0355  0.0704 -0.0469
   40MOL   C136 5674   4.758   5.531   6.868  0.0030 -0.4674  0.6324
   40MOL   O137 5675   4.983   5.481   6.915  0.4641  0.8321  0.1998
   40MOL   H138 5676   4.832   5.412   7.038 -0.5041  1.4347  1.8518
   40MOL   H139 5677   4.814   5.534   6.775  2.4710  1.4849  2.1242
   40MOL   H140 5678   4.711   5.630   6.872  4.0709  1.6371 -1.2010
   40MOL   H141 5679   4.688   5.451   6.846  0.9552 -1.5715  1.5933
   40MOL   H142 5680   5.051   5.473   6.980 -0.7167 -0.3188  1.3121
   41MOL     C1 5681   6.505   3.404   5.536 -0.3280  0.4391 -0.6760
   41MOL     C2 5682   6.631   3.324   5.490 -0.3266  0.3101  0.3901
   41MOL     O3 5683   6.390   3.316   5.553  0.2469 -0.1073 -0.3650
   41MOL     H4 5684   6.495   3.487   5.466 -1.0271  0.2280 -0.8370
   41MOL     H5 5685   6.719   3.382   5.461 -1.0085  0.8702 -0.6004
   41MOL     H6 5686   6.609   3.256   5.407  3.2656  0.0555 -0.4619
   41MOL     H7 5687   6.663   3.267   5.577 -1.6950  3.0226  2.7412
   41MOL     H8 5688   6.531   3.446   5.633 -3.0696 -1.8102  1.1223
   41MOL     C9 5689   6.280   3.379   5.611 -0.3464  0.3209  0.7972
   41MOL    C10 5690   6.198   3.444   5.502 -0.0859 -0.3804 -0.1936
   41MOL    O11 5691   6.205   3.292   5.687  0.1402 -0.1399  0.4847
   41MOL    H12 5692   6.326   3.448   5.682 -0.4794 -1.0840  2.2513
   41MOL    H13 5693   6.140   3.365   5.454 -2.6672  0.5745  1.2239
   41MOL    H14 5694   6.263   3.483   5.424  0.6788  2.0283  1.5738
   41MOL    H15 5695   6.130   3.525   5.530 -0.0383  0.6840 -3.0598
   41MOL    C16 5696   6.273   3.212   5.776 -0.0158 -0.7148 -0.0118
   41MOL    C17 5697   6.358   3.297   5.885 -0.1996  0.2144 -0.8096
   41MOL    O18 5698   6.183   3.135   5.851 -1.3029  0.6557  0.6080
   41MOL    H19 5699   6.352   3.158   5.723  0.3956 -0.8862  0.7578
   41MOL    H20 5700   6.448   3.331   5.834 -1.7892  2.7499 -1.9957
   41MOL    H21 5701   6.369   3.238   5.976 -0.2175 -2.2116 -2.3251
   41MOL    H22 5702   6.305   3.389   5.906  1.2551  0.7604  0.5663
   41MOL    C23 5703   6.106   3.053   5.770  0.6048 -0.4575 -0.1112
   41MOL    C24 5704   6.171   2.916   5.784 -0.5095 -0.5437  0.0775
   41MOL    O25 5705   5.974   3.044   5.806 -0.6170  0.3817  0.4198
   41MOL    H26 5706   6.115   3.081   5.665 -0.5243 -0.3334 -0.1750
   41MOL    H27 5707   6.279   2.915   5.792 -0.4990  2.9639  1.0210
   41MOL    H28 5708   6.138   2.859   5.696 -2.2359  1.4689 -0.6183
   41MOL    H29 5709   6.138   2.860   5.872 -0.0558  1.3286  1.4404
   41MOL    C30 5710   5.902   3.164   5.820 -0.4717 -0.5457  0.0484
   41MOL    C31 5711   5.854   3.186   5.676  0.2215 -0.1586 -0.4562
   41MOL    O32 5712   5.805   3.151   5.914  0.4485  0.0499  0.1541
   41MOL    H33 5713   5.970   3.250   5.830 -0.7181 -0.7584  4.6614
   41MOL    H34 5714   5.937   3.203   5.607  0.4450  0.7591  0.0321
   41MOL    H35 5715   5.789   3.273   5.671  0.3898 -0.0034  0.0465
   41MOL    H36 5716   5.787   3.104   5.650  0.5946 -1.0913  1.4525
   41MOL    C37 5717   5.851   3.176   6.039 -0.0787 -0.3829 -0.6319
   41MOL    C38 5718   5.756   3.278   6.095 -0.1678 -0.3157 -0.0122
   41MOL    O39 5719   5.832   3.070   6.118  0.2328 -0.3842  0.0426
   41MOL    H40 5720   5.950   3.222   6.046  0.9477 -2.0971 -3.0024
   41MOL    H41 5721   5.654   3.241   6.080 -1.1939  1.7573  1.4852
   41MOL    H42 5722   5.771   3.374   6.046  1.9406 -0.3104  0.5863
   41MOL    H43 5723   5.769   3.293   6.203  0.3478  0.7516 -0.2120
   41MOL    C44 5724   5.941   2.979   6.127 -0.2086 -0.0798  0.4773
   41MOL    C45 5725   6.017   3.022   6.256  0.1957 -0.3607 -0.0183
   41MOL    O46 5726   5.886   2.846   6.142 -0.1033  0.3492  0.4988
   41MOL    H47 5727   6.010   2.976   6.043  0.4832  1.3261  0.9708
   41MOL    H48 5728   6.106   2.959   6.258  1.8700  1.9398  0.0494
   41MOL    H49 5729   5.954   3.010   6.344 -0.5870  2.0545 -0.2057
   41MOL    H50 5730   6.053   3.124   6.264 -0.6498  0.1038 -1.7804
   41MOL    C51 5731   5.852   2.795   6.012 -0.2556 -0.0025 -0.8820
   41MOL    C52 5732   5.943   2.688   5.977 -0.2858  0.0901  0.5136
   41MOL    O53 5733   5.722   2.741   6.008  0.2939 -0.6832 -0.3238
   41MOL    H54 5734   5.863   2.871   5.935 -0.5556  0.2712 -0.6553
   41MOL    H55 5735   6.049   2.713   5.982 -0.4786  1.1111 -0.2792
   41MOL    H56 5736   5.924   2.646   5.879  0.1482  0.0565  0.4448
   41MOL    H57 5737   5.928   2.604   6.046  1.5100 -0.2908  0.4559
   41MOL    C58 5738   5.616   2.825   5.995 -0.3632  0.1820  0.2866
   41MOL    C59 5739   5.527   2.786   5.869  0.1322 -0.2046  0.0129
   41MOL    O60 5740   5.520   2.797   6.095 -0.9734 -0.0450 -0.0200
   41MOL    H61 5741   5.641   2.930   5.982  0.6704 -0.0468  0.3738
   41MOL    H62 5742   5.457   2.870   5.871 -0.5987 -0.8231  1.5243
   41MOL    H63 5743   5.481   2.688   5.874 -0.5997  0.0630 -1.2819
   41MOL    H64 5744   5.583   2.807   5.778 -2.2773 -0.3986 -1.5476
   41MOL    C65 5745   5.541   2.852   6.219 -0.0160 -0.6030 -0.1116
   41MOL    C66 5746   5.438   2.962   6.245  0.1302 -0.1721  0.5102
   41MOL    O67 5747   5.538   2.758   6.324 -0.1644  0.4052 -0.2555
   41MOL    H68 5748   5.641   2.896   6.211  1.0858 -2.6010  1.7730
   41MOL    H69 5749   5.442   3.033   6.162 -1.8438  0.9258  1.3000
   41MOL    H70 5750   5.471   3.017   6.333  1.0841  1.1734 -0.6740
   41MOL    H71 5751   5.338   2.920   6.249 -0.1695  0.5045  0.2822
   41MOL    C72 5752   5.646   2.666   6.319  0.0525 -0.2631  0.1196
   41MOL    C73 5753   5.730   2.688   6.443  1.0437 -0.1552 -0.4408
   41MOL    O74 5754   5.606   2.534   6.326 -0.5217  0.1010  0.0352
   41MOL    H75 5755   5.711   2.687   6.233  1.6345 -0.9587  1.1181
   41MOL    H76 5756   5.678   2.650   6.531 -0.1036  0.1499 -0.9887
   41MOL    H77 5757   5.746   2.795   6.459 -2.4675  0.5591 -1.3467
   41MOL    H78 5758   5.832   2.653   6.427  0.6817 -1.2759 -0.3593
   41MOL    C79 5759   5.575   2.469   6.205  0.0243 -0.3082 -0.2304
   41MOL    C80 5760   5.680   2.359   6.179 -0.3653  0.3269 -0.1966
   41MOL    O81 5761   5.448   2.411   6.224  0.1520 -0.1494 -0.5108
   41MOL    H82 5762   5.565   2.531   6.116 -0.2482 -1.1929 -0.8222
   41MOL    H83 5763   5.678   2.289   6.262  0.0263 -1.3102 -1.5428
   41MOL    H84 5764   5.782   2.397   6.171  0.2678 -0.9141  1.5877
   41MOL    H85 5765   5.652   2.306   6.088 -0.1117 -1.0746  0.5414
   41MOL    C86 5766   5.348   2.503   6.211  0.4712 -0.2216  0.9278
   41MOL    C87 5767   5.270   2.455   6.085 -0.0975  0.0986  0.1719
   41MOL    O88 5768   5.253   2.499   6.317  0.4873  0.2895 -0.0851
   41MOL    H89 5769   5.380   2.607   6.208 -0.1357  0.0031  1.8019
   41MOL    H90 5770   5.213   2.539   6.045 -1.5562  0.1551  2.3285
   41MOL    H91 5771   5.201   2.373   6.100 -0.0687 -0.0492 -0.4649
   41MOL    H92 5772   5.341   2.419   6.010 -2.0563 -0.6727 -1.3475
   41MOL    C93 5773   5.292   2.543   6.444 -0.1452  0.3672 -0.4001
   41MOL    C94 5774   5.178   2.629   6.492 -0.7364  0.2347 -0.4451
   41MOL    O95 5775   5.295   2.437   6.537  0.1755 -0.0648 -0.5630
   41MOL    H96 5776   5.385   2.599   6.440 -0.5479  1.0812  0.0419
   41MOL    H97 5777   5.083   2.576   6.483 -1.0700  1.2566 -3.3366
   41MOL    H98 5778   5.173   2.718   6.430  0.6662  0.4612 -0.2415
   41MOL    H99 5779   5.197   2.649   6.598 -1.2144 -0.3548 -0.2455
   41MOL   C100 5780   5.401   2.352   6.541 -0.2756 -0.3362  1.2819
   41MOL   C101 5781   5.476   2.395   6.670 -0.0025  0.4537  0.2483
   41MOL   O102 5782   5.360   2.223   6.551 -0.3707 -0.0036 -0.0561
   41MOL   H103 5783   5.471   2.357   6.458 -0.0973 -1.1683  1.3785
   41MOL   H104 5784   5.428   2.370   6.764  0.0467 -3.4386 -0.6784
   41MOL   H105 5785   5.513   2.498   6.662  1.0049  0.0843  0.0143
   41MOL   H106 5786   5.565   2.333   6.681 -2.0048 -2.8576 -1.5449
   41MOL   C107 5787   5.319   2.172   6.428 -0.3323  0.2568 -0.1448
   41MOL   C108 5788   5.409   2.057   6.390  0.1296 -1.1501 -0.8463
   41MOL   O109 5789   5.197   2.112   6.438  0.2992  0.4587  0.3912
   41MOL   H110 5790   5.320   2.244   6.346  1.7402 -2.0476 -2.2241
   41MOL   H111 5791   5.505   2.101   6.364  0.1779 -0.7721 -0.0483
   41MOL   H112 5792   5.363   1.984   6.324  0.5212 -3.0203  0.9128
   41MOL   H113 5793   5.431   1.991   6.473 -1.1791 -1.6111 -0.8561
   41MOL   C114 5794   5.088   2.199   6.443 -0.2043  0.9699 -0.5673
   41MOL   C115 5795   5.001   2.179   6.319  0.1559 -0.2353 -0.0079
   41MOL   O116 5796   5.005   2.178   6.555  0.2657  0.7991 -0.1345
   41MOL   H117 5797   5.128   2.300   6.451  3.1306 -0.3688  0.6914
   41MOL   H118 5798   4.908   2.235   6.318  0.4774  0.3571  2.0098
   41MOL   H119 5799   4.993   2.072   6.304 -3.5654 -0.1071  0.7581
   41MOL   H120 5800   5.059   2.216   6.234  2.2950 -0.0813  1.4879
   41MOL   C121 5801   5.047   2.240   6.676 -0.5672 -0.1532  0.6864
   41MOL   C122 5802   4.952   2.355   6.697  0.2819 -0.4504 -0.3071
   41MOL   O123 5803   5.025   2.156   6.783 -0.2109 -0.2205 -0.1337
   41MOL   H124 5804   5.149   2.277   6.676 -0.5870 -0.0970  0.4987
   41MOL   H125 5805   4.990   2.439   6.639 -2.6732  0.0956 -1.5240
   41MOL   H126 5806   4.960   2.376   6.804 -0.7373  0.0808 -0.3351
   41MOL   H127 5807   4.849   2.338   6.668  0.1862  0.8491 -0.7414
   41MOL   C128 5808   5.131   2.068   6.794  0.3298 -0.2792  0.2284
   41MOL   C129 5809   5.174   2.088   6.936 -0.0534  0.3386  0.2514
   41MOL   O130 5810   5.090   1.929   6.782 -0.3472 -0.2874  0.0278
   41MOL   H131 5811   5.217   2.096   6.733 -1.6665  1.8308 -1.6885
   41MOL   H132 5812   5.098   2.039   6.998 -0.4332 -0.0815 -0.5417
   41MOL   H133 5813   5.186   2.191   6.967  0.4707  0.8937 -1.7739
   41MOL   H134 5814   5.272   2.042   6.948  1.0620  1.9394 -2.4377
   41MOL   C135 5815   5.109   1.886   6.654  0.0138 -0.6309  0.0738
   41MOL   C136 5816   5.116   1.734   6.657 -0.4801  0.1078 -0.2794
   41MOL   O137 5817   4.997   1.916   6.568  0.4057  0.5595 -0.2918
   41MOL   H138 5818   5.194   1.940   6.612  0.2268  0.4849  1.8485
   41MOL   H139 5819   5.014   1.701   6.678  0.5026 -2.3937  0.7684
   41MOL   H140 5820   5.195   1.704   6.726 -0.2528 -1.7204 -1.3105
   41MOL   H141 5821   5.141   1.700   6.556 -1.8751  1.1281 -0.9884
   41MOL   H142 5822   4.994   2.010   6.573  1.1247  0.5501  0.6197
   42MOL     C1 5823   6.878   6.766   5.302 -0.2279 -0.1817  0.4501
   42MOL     C2 5824   6.925   6.888   5.223 -0.1864 -0.7303  0.3787
   42MOL     O3 5825   6.754   6.720   5.254 -0.1177 -0.2301 -0.4411
   42MOL     H4 5826   6.868   6.792   5.407 -0.0999 -1.2840  0.7327
   42MOL     H5 5827   6.927   6.873   5.115  0.5163  2.0569 -0.0078
   42MOL     H6 5828   7.025   6.921   5.248 -0.0369 -1.0675  0.2294
   42MOL     H7 5829   6.859   6.974   5.231  0.8558  0.1037 -0.0277
   42MOL     H8 5830   6.966   6.704   5.286 -0.7835 -0.1928 -3.1459
   42MOL     C9 5831   6.717   6.590   5.309 -0.2707  0.0685 -0.4392
   42MOL    C10 5832   6.619   6.608   5.416  0.3159  0.0910 -0.4755
   42MOL    O11 5833   6.652   6.510   5.214  0.8035  0.1806 -0.5739
   42MOL    H12 5834   6.802   6.534   5.349 -1.3650 -0.6718  0.8999
   42MOL    H13 5835   6.666   6.663   5.498 -1.5772  0.5442  0.3325
   42MOL    H14 5836   6.585   6.507   5.438  2.8766 -0.7585 -0.2166
   42MOL    H15 5837   6.531   6.661   5.378  0.5799  0.7330 -0.2039
   42MOL    C16 5838   6.729   6.490   5.099  0.2781 -0.5737  0.4437
   42MOL    C17 5839   6.799   6.357   5.113 -0.0793  0.8004 -0.2231
   42MOL    O18 5840   6.645   6.478   4.987  0.0485 -0.3934 -0.1253
   42MOL    H19 5841   6.803   6.568   5.082 -1.1410  0.9283  1.0192
   42MOL    H20 5842   6.735   6.284   5.162 -1.2926  0.3124 -2.4568
   42MOL    H21 5843   6.887   6.368   5.177  0.1552  1.4952 -0.6488
   42MOL    H22 5844   6.829   6.323   5.013 -0.3904 -2.3095  0.6882
   42MOL    C23 5845   6.568   6.591   4.972  0.7666 -0.3340  0.0598
   42MOL    C24 5846   6.613   6.655   4.842  0.5858 -0.3449  0.2891
   42MOL    O25 5847   6.435   6.564   4.956 -0.6777  0.1844  0.2110
   42MOL    H26 5848   6.574   6.673   5.043 -2.2681 -0.3627  0.4012
   42MOL    H27 5849   6.563   6.751   4.835  0.9104 -0.3293 -2.6248
   42MOL    H28 5850   6.587   6.592   4.756 -1.3440  0.8236 -0.0156
   42MOL    H29 5851   6.719   6.676   4.853  1.0042 -1.5685 -1.1311
   42MOL    C30 5852   6.355   6.538   5.068 -0.4063  0.6271 -0.1570
   42MOL    C31 5853   6.227   6.630   5.062 -0.1252 -0.3745 -0.0763
   42MOL    O32 5854   6.298   6.410   5.062 -0.0573  0.4765 -1.1719
   42MOL    H33 5855   6.414   6.545   5.160 -0.6390  1.4857 -0.0698
   42MOL    H34 5856   6.180   6.628   5.160  0.9664  0.8040  0.4884
   42MOL    H35 5857   6.163   6.607   4.977 -1.4651  0.5663  0.6801
   42MOL    H36 5858   6.257   6.734   5.052 -0.6523 -0.2147  0.0385
   42MOL    C37 5859   6.374   6.308   5.121  0.4352 -0.2145  0.7746
   42MOL    C38 5860   6.339   6.286   5.264  0.2376  0.7861  0.3474
   42MOL    O39 5861   6.355   6.181   5.060 -0.3691 -0.7347 -0.1895
   42MOL    H40 5862   6.482   6.324   5.127  0.8371 -2.3507 -0.3000
   42MOL    H41 5863   6.400   6.218   5.323 -1.0979 -1.3292 -0.6790
   42MOL    H42 5864   6.240   6.242   5.276  0.3505  1.4959  5.1822
   42MOL    H43 5865   6.344   6.383   5.315  0.1988 -0.0693  2.0107
   42MOL    C44 5866   6.420   6.180   4.938  0.2895 -0.2952 -1.0932
   42MOL    C45 5867   6.537   6.082   4.968  0.5165 -0.4204 -0.0171
   42MOL    O46 5868   6.347   6.121   4.842 -0.0044 -0.2608 -0.3111
   42MOL    H47 5869   6.459   6.279   4.914  1.7263 -0.7688 -0.7387
   42MOL    H48 5870   6.591   6.131   5.049  0.9915 -0.7759 -0.1139
   42MOL    H49 5871   6.601   6.060   4.883  0.8846  0.3490  0.0516
   42MOL    H50 5872   6.491   5.992   5.008 -1.1786  0.6382  0.4733
   42MOL    C51 5873   6.255   6.208   4.779  0.5858  0.2751  0.3301
   42MOL    C52 5874   6.312   6.235   4.634  0.1924  0.0175  0.4776
   42MOL    O53 5875   6.135   6.140   4.758  0.1152  0.0177 -0.0451
   42MOL    H54 5876   6.235   6.303   4.828 -0.4929  0.3007 -0.1521
   42MOL    H55 5877   6.411   6.281   4.632 -0.6315  1.7778 -2.4674
   42MOL    H56 5878   6.247   6.299   4.575 -0.2070 -0.5072  0.3433
   42MOL    H57 5879   6.329   6.138   4.588  1.2495  1.0490 -1.3454
   42MOL    C58 5880   6.067   6.109   4.879  0.2590 -0.8646 -0.0554
   42MOL    C59 5881   5.946   6.204   4.881 -0.0212 -0.2444  0.0503
   42MOL    O60 5882   6.009   5.980   4.875  0.5152 -0.1862 -0.5618
   42MOL    H61 5883   6.125   6.115   4.971  0.9616 -0.9896 -0.4771
   42MOL    H62 5884   5.888   6.186   4.971  0.1616 -1.9825 -0.1575
   42MOL    H63 5885   5.879   6.178   4.799 -1.0095  0.0244  0.7610
   42MOL    H64 5886   5.970   6.310   4.879  0.7467 -0.3608  1.9359
   42MOL    C65 5887   6.103   5.873   4.863 -0.0080  0.6639 -0.5533
   42MOL    C66 5888   6.081   5.786   4.991 -0.0027  0.4728 -0.3109
   42MOL    O67 5889   6.075   5.787   4.751  0.2687  0.6416  0.2458
   42MOL    H68 5890   6.204   5.913   4.873 -0.6157  1.6764  1.9156
   42MOL    H69 5891   6.139   5.694   4.985 -3.3038 -1.6241 -1.6078
   42MOL    H70 5892   5.973   5.770   4.995 -0.3290  1.7238 -3.1238
   42MOL    H71 5893   6.110   5.836   5.084  0.7461 -0.5208 -0.0109
   42MOL    C72 5894   6.116   5.839   4.627 -0.3104 -0.7262  0.5621
   42MOL    C73 5895   6.257   5.792   4.596  0.6926 -0.8776  0.0689
   42MOL    O74 5896   6.029   5.791   4.520  0.4719  0.0866 -0.3824
   42MOL    H75 5897   6.121   5.948   4.623  2.5007 -0.8713 -1.4270
   42MOL    H76 5898   6.288   5.837   4.502  1.4981 -2.8610 -0.6522
   42MOL    H77 5899   6.260   5.684   4.585 -2.9177 -1.0103 -0.1672
   42MOL    H78 5900   6.324   5.818   4.678  2.5665 -3.8144 -0.4671
   42MOL    C79 5901   5.890   5.807   4.545 -0.7546 -0.1400 -0.3036
   42MOL    C80 5902   5.852   5.905   4.440 -0.2941 -0.2025  0.5054
   42MOL    O81 5903   5.818   5.694   4.528  0.0030 -0.0165  0.0431
   42MOL    H82 5904   5.868   5.853   4.641  0.3486  1.3528 -0.7414
   42MOL    H83 5905   5.751   5.934   4.470 -2.1991 -4.3486 -1.4933
   42MOL    H84 5906   5.843   5.863   4.339 -0.6008 -0.8786  0.8104
   42MOL    H85 5907   5.905   6.000   4.445  0.9427 -0.7851 -1.0895
   42MOL    C86 5908   5.824   5.606   4.636 -0.0188  0.1698  0.2308
   42MOL    C87 5909   5.679   5.593   4.685 -0.5692  0.3321 -0.8743
   42MOL    O88 5910   5.860   5.479   4.594  0.2039  0.1359  0.1462
   42MOL    H89 5911   5.894   5.629   4.716 -0.1587 -1.4584  0.8386
   42MOL    H90 5912   5.659   5.536   4.776 -2.3358  3.2933  0.6452
   42MOL    H91 5913   5.627   5.548   4.601  0.6838  0.0304 -1.5008
   42MOL    H92 5914   5.632   5.689   4.703 -2.6169 -0.8601  0.3583
   42MOL    C93 5915   5.994   5.454   4.600 -0.5937  0.3795 -0.0979
   42MOL    C94 5916   6.011   5.356   4.712 -0.7854  0.0393  0.0876
   42MOL    O95 5917   6.026   5.386   4.478  0.2539 -0.4502  0.4199
   42MOL    H96 5918   6.064   5.536   4.615 -2.3432  1.8498  0.2461
   42MOL    H97 5919   5.957   5.264   4.691 -0.1920 -0.7350  1.7914
   42MOL    H98 5920   5.981   5.403   4.805 -0.9424 -2.0320  1.1222
   42MOL    H99 5921   6.114   5.319   4.716 -1.4166 -1.6120  2.3052
   42MOL   C100 5922   6.066   5.475   4.380  0.0002  0.1529  0.6563
   42MOL   C101 5923   6.219   5.466   4.369 -0.5793 -0.0177  0.1240
   42MOL   O102 5924   6.015   5.431   4.258  0.2014 -0.5333  0.0025
   42MOL   H103 5925   6.038   5.579   4.395 -2.0417 -0.0182 -1.6419
   42MOL   H104 5926   6.250   5.529   4.285 -1.5865 -0.0978 -0.3132
   42MOL   H105 5927   6.252   5.364   4.352 -1.9998 -0.5742  0.6335
   42MOL   H106 5928   6.271   5.497   4.460  1.5858 -0.5539 -0.8948
   42MOL   C107 5929   5.876   5.430   4.257 -0.1431  0.2016  0.7237
   42MOL   C108 5930   5.831   5.546   4.166  1.2045  0.2356  0.1014
   42MOL   O109 5931   5.822   5.313   4.200 -0.0688  0.7029  0.5491
   42MOL   H110 5932   5.839   5.449   4.358  1.7934  1.1538  1.2821
   42MOL   H111 5933   5.854   5.643   4.209 -0.0805  0.7299 -0.2999
   42MOL   H112 5934   5.723   5.542   4.153  1.4253 -0.0814 -1.7027
   42MOL   H113 5935   5.880   5.544   4.069  0.4213 -0.8583 -0.2816
   42MOL   C114 5936   5.799   5.217   4.299  0.3676  0.0361  0.7875
   42MOL   C115 5937   5.649   5.201   4.315  0.0088 -0.4457  1.4653
   42MOL   O116 5938   5.848   5.088   4.262 -0.0845 -0.6101  0.3457
   42MOL   H117 5939   5.846   5.230   4.397 -1.2417  1.3971  1.4062
   42MOL   H118 5940   5.597   5.190   4.220  0.5451 -0.3834  1.1620
   42MOL   H119 5941   5.606   5.284   4.372 -1.5128  0.8230 -1.4374
   42MOL   H120 5942   5.630   5.105   4.362  1.8348 -2.2063 -1.2798
   42MOL   C121 5943   5.980   5.063   4.262 -0.3095 -0.9150  0.5926
   42MOL   C122 5944   6.027   5.002   4.393 -0.6453  0.5266 -0.0569
   42MOL   O123 5945   6.010   4.976   4.161  0.2687 -0.5723 -0.4118
   42MOL   H124 5946   6.025   5.161   4.244  0.0949 -1.5925 -2.4022
   42MOL   H125 5947   5.965   4.919   4.426  1.8190 -0.3883  2.4439
   42MOL   H126 5948   6.010   5.078   4.470  1.1626  1.9898 -1.0811
   42MOL   H127 5949   6.129   4.964   4.384  0.0183  1.7935  1.6737
   42MOL   C128 5950   5.983   5.026   4.035  0.3719 -0.4436  0.0844
   42MOL   C129 5951   6.112   5.036   3.963 -0.0525  0.2867 -0.0322
   42MOL   O130 5952   5.912   4.941   3.955  0.0605  0.2611  0.4681
   42MOL   H131 5953   5.930   5.122   4.037 -1.7159 -1.5811  1.0095
   42MOL   H132 5954   6.105   5.055   3.856 -1.0143 -0.2627 -0.0777
   42MOL   H133 5955   6.156   4.937   3.976  0.5642  0.1107 -3.0019
   42MOL   H134 5956   6.176   5.116   4.001 -1.7541  2.5966 -1.8668
   42MOL   C135 5957   5.779   4.930   3.993 -0.9458  0.1834 -0.3498
   42MOL   C136 5958   5.699   5.019   3.893 -0.4540 -0.7036 -0.4544
   42MOL   O137 5959   5.740   4.805   3.982  0.0135 -0.0363 -0.4046
   42MOL   H138 5960   5.761   4.955   4.098 -0.6056 -1.1665  0.0397
   42MOL   H139 5961   5.594   5.010   3.918 -0.4017  0.5310  0.2413
   42MOL   H140 5962   5.703   4.985   3.789 -0.2514 -0.8901 -0.3865
   42MOL   H141 5963   5.725   5.125   3.895 -1.3382 -0.4889  0.0391
   42MOL   H142 5964   5.754   4.753   4.060  1.7413  2.6477  1.1405
   43MOL     C1 5965   3.955   5.319   3.454  0.8495  0.1056 -0.1283
   43MOL     C2 5966   4.069   5.225   3.460 -0.1597 -0.0927  0.2949
   43MOL     O3 5967   3.887   5.299   3.327  0.2380 -0.4089 -0.5488
   43MOL     H4 5968   4.002   5.417   3.463 -1.9873  1.3913  1.0927
   43MOL     H5 5969   4.130   5.234   3.550 -1.4152 -1.0973  1.2677
   43MOL     H6 5970   4.135   5.237   3.374  0.9252 -2.6622  0.6978
   43MOL     H7 5971   4.035   5.122   3.472  2.0115 -0.6704  1.8348
   43MOL     H8 5972   3.888   5.302   3.538 -1.4211  0.5098 -1.8150
   43MOL     C9 5973   3.755   5.344   3.310 -0.4839 -0.4155  0.2864
   43MOL    C10 5974   3.756   5.466   3.223  0.2158 -0.4967 -0.0385
   43MOL    O11 5975   3.683   5.242   3.239 -0.7965  0.6188  0.1523
   43MOL    H12 5976   3.697   5.367   3.399  1.0704 -1.2988  1.5390
   43MOL    H13 5977   3.657   5.512   3.218 -0.3218 -1.7761 -1.8599
   43MOL    H14 5978   3.790   5.430   3.126  1.0835  1.3301 -0.4452
   43MOL    H15 5979   3.832   5.540   3.248 -0.9479  0.4998  0.6075
   43MOL    C16 5980   3.664   5.126   3.320  0.3235 -0.2708  0.3479
   43MOL    C17 5981   3.531   5.140   3.390  0.7417 -0.1257  0.5834
   43MOL    O18 5982   3.675   5.017   3.246  0.1311  0.6241  0.0955
   43MOL    H19 5983   3.741   5.114   3.396  1.6738 -1.6174 -1.1812
   43MOL    H20 5984   3.455   5.154   3.313  1.5135  1.4934  0.0948
   43MOL    H21 5985   3.527   5.231   3.449 -1.9085  0.2901 -0.1413
   43MOL    H22 5986   3.520   5.055   3.457  0.1421  0.7046  1.5477
   43MOL    C23 5987   3.808   4.995   3.204 -0.2065 -0.1167  0.2118
   43MOL    C24 5988   3.870   4.882   3.289 -0.5234  0.8179  0.2211
   43MOL    O25 5989   3.812   4.960   3.069 -0.3297  0.1309  0.3433
   43MOL    H26 5990   3.871   5.083   3.221  1.1128 -0.7795 -1.1038
   43MOL    H27 5991   3.974   4.868   3.258 -0.7941 -0.7519 -0.0219
   43MOL    H28 5992   3.820   4.788   3.269  0.1865 -0.4319  3.9018
   43MOL    H29 5993   3.859   4.912   3.393  0.3388  0.5133  0.4108
   43MOL    C30 5994   3.794   5.074   2.991  0.2861 -0.3422  0.5139
   43MOL    C31 5995   3.925   5.094   2.906  0.3516  0.4995 -0.1512
   43MOL    O32 5996   3.687   5.055   2.902  0.3848 -0.1395  0.0181
   43MOL    H33 5997   3.769   5.171   3.033  0.6955 -0.4190  0.9410
   43MOL    H34 5998   3.913   5.032   2.817  0.2388  1.6424 -0.9466
   43MOL    H35 5999   4.016   5.085   2.967 -0.0758 -0.4356  0.3646
   43MOL    H36 6000   3.923   5.193   2.861 -1.1648 -0.2568 -1.8037
   43MOL    C37 6001   3.558   5.059   2.948  0.4401  0.2850  0.3667
   43MOL    C38 6002   3.502   5.187   2.880  0.0056 -0.6420  0.1498
   43MOL    O39 6003   3.484   4.957   2.887 -0.6100  0.3710  0.6818
   43MOL    H40 6004   3.549   5.072   3.056 -0.4339  1.0031  0.2140
   43MOL    H41 6005   3.394   5.185   2.893 -0.2883  0.9606 -1.8712
   43MOL    H42 6006   3.543   5.201   2.780 -0.3568 -0.3358  0.0455
   43MOL    H43 6007   3.522   5.274   2.942  0.6700 -0.6478 -0.0515
   43MOL    C44 6008   3.503   4.833   2.945  0.4319  0.3075 -0.3290
   43MOL    C45 6009   3.401   4.806   3.041  0.5063 -0.2131 -0.3726
   43MOL    O46 6010   3.488   4.735   2.842 -0.2090 -1.0078  0.1729
   43MOL    H47 6011   3.600   4.822   2.994 -0.2442  0.2401  1.0099
   43MOL    H48 6012   3.415   4.703   3.074 -2.1982 -0.5187 -0.0797
   43MOL    H49 6013   3.307   4.829   2.991  0.7124  1.8311  0.1345
   43MOL    H50 6014   3.406   4.869   3.129 -1.5071  1.5226 -1.4639
   43MOL    C51 6015   3.609   4.736   2.764 -0.3379  0.1016 -0.9739
   43MOL    C52 6016   3.678   4.607   2.792  0.1151  0.3800 -0.7499
   43MOL    O53 6017   3.585   4.738   2.633 -0.2971  0.6796  0.8844
   43MOL    H54 6018   3.667   4.827   2.784 -0.9659  0.4068 -0.5264
   43MOL    H55 6019   3.751   4.593   2.713 -1.1521  0.5329 -1.9773
   43MOL    H56 6020   3.616   4.517   2.788  1.0628 -0.2063 -2.8156
   43MOL    H57 6021   3.721   4.612   2.892 -0.0558  0.7500 -0.6908
   43MOL    C58 6022   3.540   4.862   2.584  0.3933 -1.1108 -0.1827
   43MOL    C59 6023   3.638   4.897   2.470 -0.0682  0.1909 -0.3088
   43MOL    O60 6024   3.416   4.860   2.518 -0.6950  0.3041 -0.0397
   43MOL    H61 6025   3.547   4.940   2.659 -1.0342 -1.3143  0.1836
   43MOL    H62 6026   3.740   4.871   2.499  0.4383  2.2366 -0.1720
   43MOL    H63 6027   3.640   5.001   2.438 -2.8929 -0.4112 -2.6961
   43MOL    H64 6028   3.617   4.845   2.376  2.7328  2.1909 -2.1121
   43MOL    C65 6029   3.303   4.854   2.599  0.2087  0.3911  0.0312
   43MOL    C66 6030   3.223   4.992   2.592 -0.0917  0.7880  0.0760
   43MOL    O67 6031   3.214   4.751   2.551  0.2501 -0.1061 -0.3299
   43MOL    H68 6032   3.335   4.834   2.701 -0.8554  0.2841  0.3597
   43MOL    H69 6033   3.125   4.984   2.640 -0.0992  0.6693  0.0394
   43MOL    H70 6034   3.216   5.007   2.484  2.4546  1.8824  0.0305
   43MOL    H71 6035   3.273   5.070   2.649 -0.1084 -0.9857  2.5791
   43MOL    C72 6036   3.265   4.626   2.576 -0.0564 -0.2403 -0.3950
   43MOL    C73 6037   3.185   4.559   2.688 -0.3776 -0.1746  0.1525
   43MOL    O74 6038   3.242   4.553   2.459 -0.1269  0.0152  0.8648
   43MOL    H75 6039   3.370   4.634   2.605 -0.5053  2.2064  0.7109
   43MOL    H76 6040   3.219   4.466   2.735 -2.9226 -0.7958  0.8799
   43MOL    H77 6041   3.081   4.543   2.659  0.1249 -0.2144 -1.6739
   43MOL    H78 6042   3.193   4.630   2.771 -0.1122 -1.5232  1.3074
   43MOL    C79 6043   3.334   4.564   2.364 -0.1034 -0.0710 -0.3155
   43MOL    C80 6044   3.421   4.442   2.369 -0.1551  0.0167  0.4830
   43MOL    O81 6045   3.258   4.568   2.244 -0.2854  0.0875  0.1265
   43MOL    H82 6046   3.386   4.660   2.373  0.6512 -0.5576  0.6094
   43MOL    H83 6047   3.482   4.432   2.280 -0.9879  0.2150 -0.1122
   43MOL    H84 6048   3.358   4.353   2.372  3.2949 -2.6396 -2.2363
   43MOL    H85 6049   3.486   4.448   2.457  1.7347 -0.1355 -0.8877
   43MOL    C86 6050   3.194   4.696   2.218  0.6417  0.1150  0.1953
   43MOL    C87 6051   3.269   4.761   2.095  0.1788  0.4672  0.3534
   43MOL    O88 6052   3.060   4.667   2.190  0.4854  0.1856 -0.1686
   43MOL    H89 6053   3.195   4.764   2.303 -1.0373 -1.6430  1.6907
   43MOL    H90 6054   3.374   4.775   2.117  0.6639 -0.6209 -1.1516
   43MOL    H91 6055   3.232   4.859   2.067 -1.1381  0.0994  0.7530
   43MOL    H92 6056   3.267   4.697   2.006  0.9000  0.1728  0.5464
   43MOL    C93 6057   2.985   4.641   2.301  0.2925  0.2609 -0.4120
   43MOL    C94 6058   2.878   4.742   2.318  0.4647  0.2856 -0.0743
   43MOL    O95 6059   2.911   4.521   2.291  0.5457  0.0389  0.4552
   43MOL    H96 6060   3.044   4.630   2.392 -0.6795  0.5922  0.2678
   43MOL    H97 6061   2.819   4.713   2.405  1.0184 -1.3354 -0.2063
   43MOL    H98 6062   2.814   4.751   2.230  0.8655  2.1004 -0.1895
   43MOL    H99 6063   2.926   4.837   2.336 -0.7450  0.9589 -0.3507
   43MOL   C100 6064   2.980   4.407   2.282 -0.1592  0.0501 -0.0936
   43MOL   C101 6065   2.930   4.320   2.400  0.5155 -0.0563 -0.0626
   43MOL   O102 6066   2.946   4.340   2.165 -0.3472 -0.5099  0.0211
   43MOL   H103 6067   3.088   4.419   2.294  0.1560 -1.7544 -1.0477
   43MOL   H104 6068   2.919   4.377   2.493 -1.4491 -0.3178 -0.1209
   43MOL   H105 6069   3.013   4.250   2.414  1.9724  1.3926 -1.2220
   43MOL   H106 6070   2.846   4.255   2.376 -0.9664  1.2289  1.5115
   43MOL   C107 6071   3.027   4.367   2.053 -0.8238 -0.3312 -0.0554
   43MOL   C108 6072   3.135   4.268   2.057 -0.0004 -0.0711 -0.0520
   43MOL   O109 6073   2.953   4.347   1.936 -0.7749  1.0149 -0.4717
   43MOL   H110 6074   3.073   4.465   2.065 -0.9333 -0.2416 -0.3662
   43MOL   H111 6075   3.208   4.278   2.138 -0.6717 -2.8772  0.9457
   43MOL   H112 6076   3.187   4.262   1.961 -1.9717 -0.6418 -1.1184
   43MOL   H113 6077   3.086   4.173   2.080 -0.0858  0.3174  1.4577
   43MOL   C114 6078   2.860   4.447   1.909 -0.2359  0.0940  0.0118
   43MOL   C115 6079   2.927   4.522   1.797 -0.3395  0.0041  0.1272
   43MOL   O116 6080   2.738   4.401   1.866 -0.6831 -0.6590 -0.2908
   43MOL   H117 6081   2.846   4.512   1.996 -3.8948  0.1952 -0.5819
   43MOL   H118 6082   2.936   4.456   1.712 -0.3253  1.3174 -0.9110
   43MOL   H119 6083   3.029   4.553   1.817 -0.9690  0.7660  2.3570
   43MOL   H120 6084   2.859   4.601   1.764  0.4046  1.1521  1.2793
   43MOL   C121 6085   2.659   4.352   1.971  0.0449  0.3657  0.2334
   43MOL   C122 6086   2.536   4.434   1.978  0.2127  0.1244  0.5607
   43MOL   O123 6087   2.615   4.224   1.946  0.6030  0.2463 -0.2792
   43MOL   H124 6088   2.706   4.355   2.069 -1.0740 -2.7791  0.9260
   43MOL   H125 6089   2.453   4.402   2.041 -0.3374  0.8594  0.2212
   43MOL   H126 6090   2.485   4.446   1.882  0.8106  0.4776  0.2799
   43MOL   H127 6091   2.562   4.530   2.023 -0.5656  1.7051 -2.2611
   43MOL   C128 6092   2.714   4.130   1.956 -0.2984  0.7853  1.1612
   43MOL   C129 6093   2.644   4.019   2.036  0.3615 -0.0296  0.1187
   43MOL   O130 6094   2.732   4.069   1.827  0.2242  0.1659  0.0462
   43MOL   H131 6095   2.808   4.161   2.002  0.2694  0.1217  0.4606
   43MOL   H132 6096   2.626   4.063   2.135  0.0817  2.1912 -0.8973
   43MOL   H133 6097   2.706   3.930   2.041 -0.5134 -0.6027  0.9290
   43MOL   H134 6098   2.548   3.993   1.992  0.3864  4.6045 -2.9745
   43MOL   C135 6099   2.865   4.063   1.777 -0.5989  0.1429 -0.1984
   43MOL   C136 6100   2.870   3.956   1.667  0.5156 -0.2033  0.3932
   43MOL   O137 6101   2.898   4.188   1.718  0.3276 -1.2492  0.0579
   43MOL   H138 6102   2.937   4.040   1.855 -0.6712 -0.5358 -0.3284
   43MOL   H139 6103   2.783   3.974   1.603  0.8815 -0.7632 -0.2499
   43MOL   H140 6104   2.858   3.858   1.712 -1.3472 -0.2763 -0.1946
   43MOL   H141 6105   2.969   3.954   1.622  0.4811 -0.8080  0.3417
   43MOL   H142 6106   2.901   4.251   1.788 -1.5470 -0.4638 -0.5519
   44MOL     C1 6107   0.402   6.288   0.093 -0.3781  0.3538  0.0747
   44MOL     C2 6108   0.454   6.420   0.155 -0.0090  0.1052  0.1080
   44MOL     O3 6109   0.304   6.310   7.901  0.4387 -0.5102 -0.2726
   44MOL     H4 6110   0.353   6.247   0.181 -0.9511 -0.2209 -0.5048
   44MOL     H5 6111   0.528   6.399   0.232  0.1500 -1.9383 -0.5642
   44MOL     H6 6112   0.372   6.483   0.188 -0.4607 -0.8045  0.7613
   44MOL     H7 6113   0.502   6.485   0.082 -1.1391  0.5730 -0.2298
   44MOL     H8 6114   0.472   6.211   0.062 -0.3851  0.7623 -1.0098
   44MOL     C9 6115   0.203   6.216   7.898  0.0567 -0.3282 -0.1935
   44MOL    C10 6116   0.092   6.270   7.808 -0.1183 -0.6904 -0.3290
   44MOL    O11 6117   0.247   6.095   7.844 -0.1862 -0.2933  0.0558
   44MOL    H12 6118   0.174   6.208   0.089 -0.3661  0.3599 -0.2557
   44MOL    H13 6119   0.015   6.200   7.777 -0.4419 -1.5300  2.2249
   44MOL    H14 6120   0.127   6.305   7.711 -0.5166 -1.1254 -0.6250
   44MOL    H15 6121   0.046   6.353   7.862 -0.5802 -0.3574 -1.2167
   44MOL    C16 6122   0.251   5.988   0.020  0.4335 -0.2413  0.3842
   44MOL    C17 6123   0.276   5.863   7.840  0.2096  0.5535  0.6943
   44MOL    O18 6124   0.349   5.997   0.118  0.0043  0.5917 -0.1713
   44MOL    H19 6125   0.151   5.989   0.063  0.0923  0.8545 -0.3945
   44MOL    H20 6126   0.191   5.840   7.776  1.0534  0.8220 -0.5420
   44MOL    H21 6127   0.315   5.777   7.896  2.0219  1.7904  1.3839
   44MOL    H22 6128   0.353   5.896   7.771  0.9581 -1.3377  0.6055
   44MOL    C23 6129   0.323   5.920   0.230  0.0655 -0.4607 -0.9514
   44MOL    C24 6130   0.462   5.890   0.293 -0.3288  0.5019 -0.2205
   44MOL    O25 6131   0.248   6.007   0.312  0.5936  0.5158 -0.0849
   44MOL    H26 6132   0.277   5.823   0.208  0.2106 -0.4557 -1.2835
   44MOL    H27 6133   0.468   5.836   0.388 -2.2689  3.6031  1.7843
   44MOL    H28 6134   0.509   5.985   0.320 -0.0440  0.0515  0.9049
   44MOL    H29 6135   0.520   5.845   0.212  1.9721  1.9469  0.5582
   44MOL    C30 6136   0.197   5.945   0.430  0.0364 -0.1304  0.0667
   44MOL    C31 6137   0.134   6.053   0.519  0.1399  0.4231  0.7489
   44MOL    O32 6138   0.093   5.857   0.402 -0.3152 -0.3927  0.4707
   44MOL    H33 6139   0.280   5.901   0.484  1.2157  1.3583 -0.5198
   44MOL    H34 6140   0.121   5.996   0.611  1.3974 -0.3670  0.4504
   44MOL    H35 6141   0.042   6.090   0.473 -0.0566 -1.1075 -0.1412
   44MOL    H36 6142   0.214   6.122   0.544  0.4425 -0.1919  1.4728
   44MOL    C37 6143   0.101   5.737   0.476 -0.0959 -0.1450 -0.5274
   44MOL    C38 6144   7.888   5.655   0.454  0.0720  0.4354  0.2267
   44MOL    O39 6145   0.204   5.653   0.427  0.3832 -0.1205 -0.2609
   44MOL    H40 6146   0.111   5.766   0.580 -5.4338  1.0253 -0.1969
   44MOL    H41 6147   7.882   5.634   0.347 -1.2792  1.6731  0.0468
   44MOL    H42 6148   7.802   5.716   0.481 -0.1564 -0.2469  1.0547
   44MOL    H43 6149   7.905   5.567   0.517 -2.9884 -1.0822 -0.9410
   44MOL    C44 6150   0.280   5.587   0.528 -0.1965  0.7116 -0.4281
   44MOL    C45 6151   0.401   5.512   0.459  0.6386 -0.1380 -0.0130
   44MOL    O46 6152   0.329   5.682   0.627 -0.4649  0.4626 -0.1431
   44MOL    H47 6153   0.210   5.516   0.573  0.7528  1.1786  1.8386
   44MOL    H48 6154   0.361   5.421   0.414  2.1226 -1.1573  0.6865
   44MOL    H49 6155   0.473   5.490   0.537  0.1660 -2.0755 -0.0880
   44MOL    H50 6156   0.450   5.575   0.384  1.5708  2.2138  2.5145
   44MOL    C51 6157   0.307   5.630   0.752 -0.3638  0.3350  0.0387
   44MOL    C52 6158   0.339   5.740   0.849 -0.1267  0.2838  0.5324
   44MOL    O53 6159   0.171   5.594   0.773  0.6526 -0.4134 -0.9181
   44MOL    H54 6160   0.373   5.544   0.765  0.3433  1.0579  1.2708
   44MOL    H55 6161   0.439   5.782   0.837  0.2631 -0.6051  0.6215
   44MOL    H56 6162   0.342   5.697   0.949  0.6315  0.8335  0.7494
   44MOL    H57 6163   0.255   5.811   0.847 -0.8842 -0.6368 -1.3608
   44MOL    C58 6164   0.159   5.488   0.863  0.6462  0.3255 -0.2414
   44MOL    C59 6165   0.011   5.471   0.903  0.6002 -0.5724  0.6527
   44MOL    O60 6166   0.190   5.365   0.798 -0.1132 -0.6121  0.6009
   44MOL    H61 6167   0.220   5.507   0.951 -2.3843  0.7356  1.8675
   44MOL    H62 6168   7.872   5.421   0.821 -0.7454  4.1983 -1.5589
   44MOL    H63 6169   7.875   5.568   0.910 -0.7036 -0.9973 -2.0222
   44MOL    H64 6170   0.001   5.409   0.992 -2.3361  0.2555  0.9447
   44MOL    C65 6171   0.256   5.276   0.870  0.0339  0.6308 -0.6235
   44MOL    C66 6172   0.290   5.158   0.774 -0.6372  1.1412 -0.1288
   44MOL    O67 6173   0.376   5.319   0.921  0.2142 -0.5130 -0.5120
   44MOL    H68 6174   0.193   5.236   0.949  0.3970 -0.5017 -0.9036
   44MOL    H69 6175   0.198   5.102   0.759 -0.0441  0.2913 -0.5950
   44MOL    H70 6176   0.366   5.098   0.825 -0.3594  0.7244 -1.0275
   44MOL    H71 6177   0.331   5.192   0.679  1.3002 -0.6175  0.0332
   44MOL    C72 6178   0.407   5.277   1.052 -0.6811 -0.5648  0.2757
   44MOL    C73 6179   0.554   5.310   1.071  0.4270 -0.2227 -0.4885
   44MOL    O74 6180   0.330   5.356   1.149 -0.7365 -0.2248  0.7094
   44MOL    H75 6181   0.397   5.168   1.058  1.5890 -0.9888 -2.5771
   44MOL    H76 6182   0.611   5.248   1.002  0.0417 -0.0435 -0.9691
   44MOL    H77 6183   0.585   5.281   1.171  0.2917 -1.9961 -0.9368
   44MOL    H78 6184   0.571   5.417   1.065  1.5145 -0.2462  1.6429
   44MOL    C79 6185   0.272   5.270   1.239  0.1253  1.0689 -0.2663
   44MOL    C80 6186   0.233   5.358   1.357  0.3179  0.4565 -0.2468
   44MOL    O81 6187   0.148   5.221   1.190  0.4190 -0.3358  0.4404
   44MOL    H82 6188   0.331   5.184   1.271 -1.5530  0.8499  2.4635
   44MOL    H83 6189   0.161   5.429   1.314 -0.2019  0.6113  0.8676
   44MOL    H84 6190   0.326   5.395   1.399  2.2448 -4.6015  0.3607
   44MOL    H85 6191   0.183   5.310   1.441  0.2982  2.0774  0.6678
   44MOL    C86 6192   0.125   5.088   1.218 -0.0374 -0.0779 -0.2027
   44MOL    C87 6193   7.896   5.064   1.181 -0.3115  0.3525 -0.1000
   44MOL    O88 6194   0.206   5.006   1.141 -0.2874  0.3954 -0.2110
   44MOL    H89 6195   0.135   5.079   1.327  2.1456  1.6773 -0.2208
   44MOL    H90 6196   7.872   5.082   1.076 -0.8166 -0.7698 -0.1868
   44MOL    H91 6197   7.840   5.135   1.241 -0.2032  1.5921 -1.4324
   44MOL    H92 6198   7.866   4.965   1.216 -2.6913  0.0401 -2.8467
   44MOL    C93 6199   0.266   4.900   1.206 -0.5114  0.4149 -0.1775
   44MOL    C94 6200   0.316   4.795   1.110  0.6467 -0.3672 -0.2884
   44MOL    O95 6201   0.380   4.954   1.267  0.0595  0.2421  0.8846
   44MOL    H96 6202   0.194   4.860   1.277 -1.6155 -0.7326 -1.9027
   44MOL    H97 6203   0.376   4.823   1.023 -1.8182 -1.0606 -2.2799
   44MOL    H98 6204   0.228   4.745   1.069 -0.3219 -0.2432  1.6101
   44MOL    H99 6205   0.360   4.710   1.162 -2.5441 -1.8014  0.1535
   44MOL   C100 6206   0.393   4.910   1.399  0.1658  0.2142 -0.0880
   44MOL   C101 6207   0.534   4.954   1.439 -0.0730  0.1040 -0.8106
   44MOL   O102 6208   0.302   4.989   1.474 -0.3343 -0.0608  0.4371
   44MOL   H103 6209   0.386   4.802   1.407 -1.4450  0.2538 -0.7484
   44MOL   H104 6210   0.543   4.935   1.546  0.8396 -2.6025 -1.3060
   44MOL   H105 6211   0.543   5.061   1.425  0.7702  0.1630  0.1295
   44MOL   H106 6212   0.596   4.901   1.366 -1.2912 -2.2404 -0.2187
   44MOL   C107 6213   0.251   4.923   1.584 -0.5482  0.6151  0.1560
   44MOL   C108 6214   0.147   5.012   1.644 -0.0143  0.4873  0.1472
   44MOL   O109 6215   0.188   4.807   1.540 -0.2530  0.2301  0.3834
   44MOL   H110 6216   0.330   4.901   1.656 -1.0440  1.4428  0.9671
   44MOL   H111 6217   0.065   5.036   1.577  0.0584 -0.5267 -0.3141
   44MOL   H112 6218   0.187   5.108   1.677  1.9866 -0.2642 -0.0177
   44MOL   H113 6219   0.103   4.968   1.734  0.5389 -1.3306 -0.4424
   44MOL   C114 6220   0.197   4.698   1.629 -0.3954  0.2633 -0.2899
   44MOL   C115 6221   0.116   4.586   1.570  0.1351 -0.3846 -0.5098
   44MOL   O116 6222   0.324   4.641   1.629  0.4807  0.5289 -0.0798
   44MOL   H117 6223   0.159   4.725   1.728 -0.2511  0.6009 -0.3261
   44MOL   H118 6224   0.012   4.618   1.568  0.6016  1.5047  2.6608
   44MOL   H119 6225   0.129   4.490   1.619 -1.4159 -1.8630 -2.9222
   44MOL   H120 6226   0.156   4.566   1.471  1.5949 -1.0286  0.1933
   44MOL   C121 6227   0.386   4.617   1.751 -0.0689  1.5009 -0.1384
   44MOL   C122 6228   0.478   4.505   1.721 -0.5298  0.0003 -0.1874
   44MOL   O123 6229   0.461   4.732   1.782 -0.0369  0.1767  0.5294
   44MOL   H124 6230   0.324   4.587   1.835 -0.4199  0.1025 -0.8961
   44MOL   H125 6231   0.421   4.417   1.691  0.4410 -1.0126  0.8566
   44MOL   H126 6232   0.535   4.478   1.811 -0.7658  0.5305  0.1245
   44MOL   H127 6233   0.553   4.528   1.646 -1.4942  1.0729 -0.8348
   44MOL   C128 6234   0.441   4.795   1.904  0.1283  0.7327 -0.2385
   44MOL   C129 6235   0.546   4.902   1.918 -0.1029 -0.2095 -0.6011
   44MOL   O130 6236   0.318   4.852   1.918 -0.3315  0.1688  0.1902
   44MOL   H131 6237   0.462   4.713   1.972  1.1754 -0.8065 -2.3491
   44MOL   H132 6238   0.634   4.840   1.932 -1.5234 -2.1088  0.0961
   44MOL   H133 6239   0.531   4.962   2.009 -0.6537 -3.3698  1.4717
   44MOL   H134 6240   0.559   4.959   1.827 -2.3593  2.3020  0.5603
   44MOL   C135 6241   0.237   4.824   2.026 -0.0799 -0.3555  0.4245
   44MOL   C136 6242   0.103   4.886   2.006  0.4137 -0.0262 -0.2820
   44MOL   O137 6243   0.220   4.683   2.044  0.0235  0.1324  0.4585
   44MOL   H138 6244   0.283   4.854   2.120  0.5751 -1.1181  0.3473
   44MOL   H139 6245   0.039   4.875   2.094  0.2563 -2.4253 -0.6615
   44MOL   H140 6246   0.050   4.848   1.919 -0.4603  0.7606 -0.1059
   44MOL   H141 6247   0.099   4.995   2.001 -0.6121  0.0243  1.1545
   44MOL   H142 6248   0.257   4.659   2.128  0.4660 -1.5832 -0.2184
   45MOL     C1 6249   0.257   0.147   3.624 -0.6846 -0.3729  0.1253
   45MOL     C2 6250   0.311   0.185   3.490 -0.2199  0.5724  0.0514
   45MOL     O3 6251   0.364   0.136   3.719 -0.6407 -0.0283  0.0852
   45MOL     H4 6252   0.205   0.053   3.606 -2.8451  0.6006  1.0930
   45MOL     H5 6253   0.361   0.282   3.492  0.4291  0.2832 -1.6440
   45MOL     H6 6254   0.244   0.189   3.405 -0.3385  1.9892  0.2044
   45MOL     H7 6255   0.371   0.101   3.455 -0.8460 -0.2698  0.9713
   45MOL     H8 6256   0.183   0.220   3.656 -0.6353 -0.8412  1.3268
   45MOL     C9 6257   0.339   0.079   3.837  0.9636  0.0844 -0.6603
   45MOL    C10 6258   0.384   7.853   3.823 -0.1106 -0.1557  0.9082
   45MOL    O11 6259   0.415   0.128   3.943 -0.3521  0.1521 -0.1259
   45MOL    H12 6260   0.234   0.076   3.866  1.5555  2.1888  1.9419
   45MOL    H13 6261   0.327   7.801   3.745 -0.2985 -1.3881  1.8607
   45MOL    H14 6262   0.381   7.793   3.913 -0.5418 -0.3030  0.8000
   45MOL    H15 6263   0.488   7.861   3.793 -0.5301 -0.9990 -0.8466
   45MOL    C16 6264   0.370   0.260   3.975  0.5374  0.1532  0.2109
   45MOL    C17 6265   0.293   0.250   4.102  0.3639 -0.8168 -0.0965
   45MOL    O18 6266   0.480   0.337   4.004 -0.1312 -0.4254  0.3288
   45MOL    H19 6267   0.314   0.304   3.892  1.1141 -2.1917 -1.4599
   45MOL    H20 6268   0.261   0.352   4.125  1.8752  0.1424 -2.0417
   45MOL    H21 6269   0.354   0.207   4.182  0.1274 -0.8805  0.0489
   45MOL    H22 6270   0.200   0.194   4.089 -0.1370  0.0097 -0.1361
   45MOL    C23 6271   0.560   0.361   3.898  1.3482 -0.1789 -0.4839
   45MOL    C24 6272   0.509   0.493   3.828  0.2979  0.7039  0.1149
   45MOL    O25 6273   0.686   0.390   3.943  0.5068 -0.4660  0.1576
   45MOL    H26 6274   0.556   0.284   3.821 -2.8043  1.3429 -1.9594
   45MOL    H27 6275   0.541   0.569   3.899  0.5610  0.2436  0.4928
   45MOL    H28 6276   0.401   0.494   3.813  0.3785 -0.0235 -0.5478
   45MOL    H29 6277   0.563   0.501   3.734  2.2994 -0.4017  1.1152
   45MOL    C30 6278   0.757   0.271   3.981 -0.4530 -1.0587 -0.8251
   45MOL    C31 6279   0.865   0.252   3.871  0.0384  0.2146 -0.5488
   45MOL    O32 6280   0.826   0.296   4.100 -0.6541  0.0243  0.6606
   45MOL    H33 6281   0.699   0.179   3.992 -0.8036 -0.6541  0.7377
   45MOL    H34 6282   0.827   0.250   3.769 -1.2867 -0.6958 -0.0567
   45MOL    H35 6283   0.931   0.169   3.896 -0.9198 -0.1579  0.8276
   45MOL    H36 6284   0.922   0.344   3.881 -3.1789  2.3190 -0.7690
   45MOL    C37 6285   0.753   0.283   4.220 -0.0879  0.2057 -0.0373
   45MOL    C38 6286   0.822   0.173   4.312 -0.4315 -0.3515  0.4893
   45MOL    O39 6287   0.754   0.386   4.304  0.5746  0.4327 -0.2604
   45MOL    H40 6288   0.650   0.254   4.197 -0.8446  1.2380  1.8969
   45MOL    H41 6289   0.929   0.197   4.310 -0.4461 -0.3917 -2.0911
   45MOL    H42 6290   0.814   0.069   4.280 -0.5367 -0.7538  1.8013
   45MOL    H43 6291   0.777   0.181   4.411  0.1706  1.9332  0.6011
   45MOL    C44 6292   0.665   0.492   4.274  0.1270 -0.1241  0.4672
   45MOL    C45 6293   0.567   0.516   4.393  0.3310 -0.1694  0.6881
   45MOL    O46 6294   0.729   0.620   4.268 -0.0351  0.3383  0.6368
   45MOL    H47 6295   0.600   0.460   4.193 -2.8661  0.8363  2.3707
   45MOL    H48 6296   0.498   0.596   4.365 -2.2202 -3.1032 -1.9381
   45MOL    H49 6297   0.614   0.538   4.488  2.1912  1.4322 -0.5722
   45MOL    H50 6298   0.508   0.424   4.399 -3.1056  1.7783 -1.1469
   45MOL    C51 6299   0.814   0.641   4.155 -0.1173 -0.5223  0.2983
   45MOL    C52 6300   0.757   0.778   4.095 -0.0821 -0.2960  0.1323
   45MOL    O53 6301   0.944   0.669   4.191 -0.1900 -0.8254 -0.1253
   45MOL    H54 6302   0.828   0.559   4.084  1.6457 -0.2178  0.2511
   45MOL    H55 6303   0.812   0.803   4.004 -0.9715 -1.9995 -0.9123
   45MOL    H56 6304   0.781   0.864   4.156  2.3290 -0.7372 -0.1218
   45MOL    H57 6305   0.651   0.771   4.069 -0.4645  0.6514  1.4233
   45MOL    C58 6306   1.024   0.552   4.209 -0.2504  0.1825 -0.5402
   45MOL    C59 6307   1.115   0.527   4.085 -0.1954 -0.2810 -0.1157
   45MOL    O60 6308   1.108   0.561   4.313 -0.2600 -0.1346 -0.3156
   45MOL    H61 6309   0.960   0.466   4.229  0.5504 -0.0149  1.2576
   45MOL    H62 6310   1.182   0.610   4.061 -1.5396  1.0305  0.5588
   45MOL    H63 6311   1.056   0.500   3.998 -0.1826 -0.1025 -0.1794
   45MOL    H64 6312   1.185   0.444   4.097  1.4764  1.0243 -0.6490
   45MOL    C65 6313   1.041   0.560   4.434  0.3426  0.3164 -0.5685
   45MOL    C66 6314   1.085   0.434   4.517 -0.4193 -0.0876 -0.1028
   45MOL    O67 6315   1.086   0.661   4.516 -0.0809  0.4434  0.6316
   45MOL    H68 6316   0.932   0.567   4.427  0.2172 -2.0951 -1.5277
   45MOL    H69 6317   1.194   0.433   4.522 -0.2842  1.6596 -2.0790
   45MOL    H70 6318   1.050   0.349   4.457 -0.5275 -0.7857  0.9439
   45MOL    H71 6319   1.045   0.441   4.618  0.4735 -0.1974  0.2614
   45MOL    C72 6320   1.036   0.787   4.491 -0.0398 -0.7731 -0.1026
   45MOL    C73 6321   0.937   0.832   4.612  0.0089  0.1787 -0.3595
   45MOL    O74 6322   1.135   0.881   4.490 -0.3223  0.0279 -0.4819
   45MOL    H75 6323   0.984   0.797   4.395 -1.4224 -1.9764  0.4933
   45MOL    H76 6324   0.848   0.769   4.605 -0.5365  0.8726  0.2708
   45MOL    H77 6325   0.913   0.933   4.578  0.9767 -0.4106 -2.9242
   45MOL    H78 6326   0.987   0.822   4.708  2.2738  3.9705 -1.0444
   45MOL    C79 6327   1.227   0.876   4.383 -0.3476  0.7634  0.7409
   45MOL    C80 6328   1.173   0.963   4.265  0.8135  0.1373  0.1555
   45MOL    O81 6329   1.354   0.915   4.414 -0.0140 -0.2559  0.3039
   45MOL    H82 6330   1.237   0.775   4.345  0.6568  0.5884  1.4527
   45MOL    H83 6331   1.075   0.936   4.226 -0.4922  4.0196  0.4678
   45MOL    H84 6332   1.240   0.961   4.179 -2.2638 -0.6199 -2.3240
   45MOL    H85 6333   1.163   1.065   4.304  2.2812  0.4567 -0.2723
   45MOL    C86 6334   1.428   0.811   4.468 -0.6283  0.0678  0.0578
   45MOL    C87 6335   1.536   0.787   4.368 -0.6757 -0.1203 -0.4966
   45MOL    O88 6336   1.495   0.840   4.591 -0.6995 -0.4836 -0.2556
   45MOL    H89 6337   1.370   0.722   4.491 -2.0262  0.7958 -0.5771
   45MOL    H90 6338   1.614   0.861   4.391  0.4401 -1.1188 -1.0181
   45MOL    H91 6339   1.491   0.792   4.269  0.0356 -1.8457 -0.9261
   45MOL    H92 6340   1.579   0.688   4.384 -2.5959 -1.1226 -1.3814
   45MOL    C93 6341   1.399   0.861   4.701  0.0463  0.5079  0.5538
   45MOL    C94 6342   1.368   0.726   4.757 -0.9389 -0.2834  0.1056
   45MOL    O95 6343   1.447   0.944   4.796 -0.3254 -0.0691  0.0332
   45MOL    H96 6344   1.313   0.910   4.656 -0.3024 -0.5826  0.0074
   45MOL    H97 6345   1.324   0.739   4.856  2.2153  2.0415  1.2777
   45MOL    H98 6346   1.460   0.673   4.781 -0.6897 -0.5679 -1.4393
   45MOL    H99 6347   1.304   0.668   4.690  0.0592 -0.6892 -0.5105
   45MOL   C100 6348   1.460   1.078   4.759  0.5283 -0.5989  0.0833
   45MOL   C101 6349   1.345   1.159   4.828 -1.3226 -0.6993 -0.1807
   45MOL   O102 6350   1.586   1.132   4.807  0.3526  0.0179  0.4166
   45MOL   H103 6351   1.453   1.093   4.651 -0.2844  0.9533  0.3341
   45MOL   H104 6352   1.345   1.263   4.796  1.3672 -0.4659  0.3751
   45MOL   H105 6353   1.356   1.165   4.937 -0.5589 -2.0190 -0.1708
   45MOL   H106 6354   1.248   1.125   4.794 -1.3030 -2.2257  1.2256
   45MOL   C107 6355   1.697   1.066   4.753 -0.1726  0.3766  0.1718
   45MOL   C108 6356   1.754   1.154   4.636  0.6526 -0.5945 -0.0761
   45MOL   O109 6357   1.802   1.066   4.849  0.3533  0.0981 -0.0260
   45MOL   H110 6358   1.676   0.964   4.721  1.1514 -0.1348  0.8980
   45MOL   H111 6359   1.784   1.250   4.677  1.4585 -0.2982 -1.3142
   45MOL   H112 6360   1.669   1.178   4.572  1.3089  2.2429  0.0287
   45MOL   H113 6361   1.830   1.100   4.579  1.1790 -1.1142  1.1008
   45MOL   C114 6362   1.777   0.989   4.964 -0.4962 -0.2297 -0.0263
   45MOL   C115 6363   1.884   0.881   4.981 -0.1009  0.5111  0.5949
   45MOL   O116 6364   1.785   1.065   5.083 -0.2828  0.3384 -0.1719
   45MOL   H117 6365   1.679   0.942   4.970 -1.0830  0.8902 -0.6496
   45MOL   H118 6366   1.979   0.927   5.010 -0.0630 -0.4529  2.0438
   45MOL   H119 6367   1.894   0.816   4.894  1.6701  1.0834  0.3433
   45MOL   H120 6368   1.846   0.824   5.066  0.6729  1.5518  1.6619
   45MOL   C121 6369   1.665   1.132   5.119 -0.0265  0.2101 -0.5931
   45MOL   C122 6370   1.628   1.062   5.251  0.0227 -0.4042  0.1751
   45MOL   O123 6371   1.687   1.265   5.153  0.0631  0.4858 -0.0043
   45MOL   H124 6372   1.587   1.129   5.044 -0.6903  2.9647 -0.0549
   45MOL   H125 6373   1.615   0.954   5.241  1.1495 -0.3493 -2.3847
   45MOL   H126 6374   1.536   1.108   5.287  0.2701 -1.4887  2.2473
   45MOL   H127 6375   1.697   1.085   5.332 -0.8599  1.3214  0.4652
   45MOL   C128 6376   1.694   1.349   5.047 -0.1235  0.1287 -0.4747
   45MOL   C129 6377   1.569   1.434   5.066 -1.2308 -0.2924  0.2240
   45MOL   O130 6378   1.809   1.429   5.055  0.7390  0.6243  0.0289
   45MOL   H131 6379   1.685   1.298   4.951  0.2975  1.2056 -1.0852
   45MOL   H132 6380   1.480   1.374   5.046 -2.5637  2.2397 -1.6668
   45MOL   H133 6381   1.563   1.508   4.986 -0.0707 -2.1008 -1.5833
   45MOL   H134 6382   1.574   1.482   5.164 -0.9696  1.0192 -0.4181
   45MOL   C135 6383   1.930   1.363   5.009  0.4148  0.5646 -0.0062
   45MOL   C136 6384   2.039   1.462   4.990  0.5480  0.1279 -0.5891
   45MOL   O137 6385   1.977   1.265   5.102  0.3455 -0.3359 -0.2695
   45MOL   H138 6386   1.906   1.307   4.918  0.4400  1.5869 -0.6504
   45MOL   H139 6387   2.066   1.503   5.087  0.3080 -1.3746  0.1310
   45MOL   H140 6388   2.016   1.533   4.910 -0.9087 -1.1327 -1.3246
   45MOL   H141 6389   2.122   1.409   4.945  0.4215  0.1947 -0.9071
   45MOL   H142 6390   1.918   1.192   5.098  0.6106 -0.5171 -0.9578
   46MOL     C1 6391   0.967   6.773   2.319  0.0747  0.2704  0.5888
   46MOL     C2 6392   1.086   6.863   2.344 -0.0718  0.0674  0.3638
   46MOL     O3 6393   0.897   6.801   2.192 -0.3149  0.3002 -0.0474
   46MOL     H4 6394   0.896   6.766   2.400  0.1638 -2.3437  0.4801
   46MOL     H5 6395   1.147   6.843   2.432  2.1960  0.4700 -1.1028
   46MOL     H6 6396   1.056   6.967   2.334 -0.1517  0.0358  0.2720
   46MOL     H7 6397   1.150   6.848   2.257  0.2239 -0.4561  0.6702
   46MOL     H8 6398   1.004   6.670   2.316  0.6510  0.5213 -1.7357
   46MOL     C9 6399   0.790   6.718   2.167 -0.5087  0.2844  0.8038
   46MOL    C10 6400   0.715   6.767   2.045  0.1333  0.5861 -0.4652
   46MOL    O11 6401   0.842   6.593   2.136 -0.5220 -0.0846 -0.6661
   46MOL    H12 6402   0.733   6.707   2.259 -0.5006 -0.5976  0.7032
   46MOL    H13 6403   0.772   6.754   1.953  1.2884  0.5482  0.2387
   46MOL    H14 6404   0.696   6.873   2.059  0.6544  0.5748  0.3416
   46MOL    H15 6405   0.614   6.726   2.042  1.1901 -2.0987 -1.2914
   46MOL    C16 6406   0.751   6.481   2.141  0.3194 -0.1567 -0.3710
   46MOL    C17 6407   0.829   6.370   2.079 -0.7839 -0.0198  0.6511
   46MOL    O18 6408   0.723   6.442   2.274  0.7482  0.4604  0.1765
   46MOL    H19 6409   0.661   6.494   2.081 -1.2082  2.1450  2.3062
   46MOL    H20 6410   0.763   6.284   2.068  1.2395 -1.4277 -0.6440
   46MOL    H21 6411   0.916   6.345   2.139 -1.2312  0.1191  1.3739
   46MOL    H22 6412   0.879   6.385   1.984 -1.7912 -0.2470  0.0713
   46MOL    C23 6413   0.591   6.414   2.309  0.2786  0.6996  0.4962
   46MOL    C24 6414   0.593   6.352   2.451 -0.4435  0.7558 -0.0825
   46MOL    O25 6415   0.511   6.532   2.329  0.4068  1.0440 -0.3034
   46MOL    H26 6416   0.551   6.335   2.246 -0.8478  1.2431  0.5011
   46MOL    H27 6417   0.664   6.270   2.453 -0.2703  0.9176  0.6221
   46MOL    H28 6418   0.505   6.297   2.483  0.5193  0.0320  1.3549
   46MOL    H29 6419   0.621   6.429   2.523 -2.6696 -0.1070  1.7647
   46MOL    C30 6420   0.401   6.527   2.245 -0.4194 -0.5517 -0.6015
   46MOL    C31 6421   0.308   6.643   2.277 -1.0541 -0.8723 -0.4271
   46MOL    O32 6422   0.440   6.544   2.118  0.0856 -0.4748 -0.1221
   46MOL    H33 6423   0.348   6.433   2.262 -0.3226 -0.4721  0.1394
   46MOL    H34 6424   0.215   6.625   2.222 -1.0523  1.3788 -1.1970
   46MOL    H35 6425   0.355   6.730   2.232 -2.9012  0.2426 -0.2503
   46MOL    H36 6426   0.289   6.651   2.384 -1.9890  0.1937 -0.6676
   46MOL    C37 6427   0.369   6.471   2.019  0.5377 -1.0184 -0.5446
   46MOL    C38 6428   0.386   6.543   1.888  0.1395  0.7121 -0.2714
   46MOL    O39 6429   0.420   6.345   2.020  0.4976  0.1987 -0.4679
   46MOL    H40 6430   0.263   6.479   2.043  0.9188 -3.2564  2.1904
   46MOL    H41 6431   0.355   6.647   1.898 -0.5168  0.4821  0.1194
   46MOL    H42 6432   0.333   6.497   1.805 -0.1640 -0.2545  0.4350
   46MOL    H43 6433   0.489   6.539   1.854  0.1830 -2.4074  0.0363
   46MOL    C44 6434   0.324   6.246   2.019 -0.4629  0.3083 -0.4744
   46MOL    C45 6435   0.401   6.120   1.972 -0.1303  0.3612  0.5231
   46MOL    O46 6436   0.274   6.226   2.154 -0.5511  0.2138  0.0866
   46MOL    H47 6437   0.244   6.263   1.946 -0.5301 -0.9731 -0.7049
   46MOL    H48 6438   0.431   6.139   1.868 -0.1197  1.7799  0.7763
   46MOL    H49 6439   0.334   6.036   1.952 -0.8304  0.9992  0.1554
   46MOL    H50 6440   0.481   6.101   2.043  0.3072  1.3419  0.2991
   46MOL    C51 6441   0.136   6.229   2.170  0.5914  0.2450  0.4111
   46MOL    C52 6442   0.105   6.228   2.322 -0.1554 -0.3397  0.4014
   46MOL    O53 6443   0.083   6.344   2.122 -0.1353 -0.7357  0.6846
   46MOL    H54 6444   0.109   6.143   2.108  0.7938  0.6380 -0.2205
   46MOL    H55 6445   7.911   6.217   2.329 -0.2860  1.4341  1.5577
   46MOL    H56 6446   0.118   6.331   2.356 -1.6949  0.1134 -0.3477
   46MOL    H57 6447   0.158   6.148   2.375 -0.4997 -0.6587  0.2616
   46MOL    C58 6448   7.881   6.335   2.035 -0.1777 -0.1780 -0.3614
   46MOL    C59 6449   7.812   6.476   2.036  0.2634  0.2537  0.0713
   46MOL    O60 6450   7.903   6.304   1.898 -0.5804 -0.0332 -0.2856
   46MOL    H61 6451   7.819   6.259   2.084  0.0907 -1.7620 -2.3986
   46MOL    H62 6452   7.780   6.512   2.134 -1.8386 -0.4453 -0.3498
   46MOL    H63 6453   7.720   6.481   1.978  1.3620 -0.7488 -1.8034
   46MOL    H64 6454   7.886   6.553   2.014  0.8331 -1.1001 -3.0386
   46MOL    C65 6455   7.843   6.197   1.845 -0.4398  0.2224  0.1164
   46MOL    C66 6456   7.853   6.207   1.693  0.1958  0.0486 -0.1077
   46MOL    O67 6457   7.905   6.082   1.894 -0.3308  0.0758  0.0168
   46MOL    H68 6458   7.738   6.199   1.874  0.0351 -0.5437  1.9572
   46MOL    H69 6459   7.798   6.291   1.651  0.6777  1.4676  2.0355
   46MOL    H70 6460   7.807   6.120   1.645 -1.4663  1.5998 -1.3986
   46MOL    H71 6461   0.041   6.227   1.658  0.3847 -0.8958 -0.1125
   46MOL    C72 6462   7.831   5.957   1.905  0.5636  0.0975  0.4080
   46MOL    C73 6463   0.005   5.847   1.859 -0.3173 -0.1494 -0.1144
   46MOL    O74 6464   7.806   5.915   2.036  0.3320  0.4400  0.2514
   46MOL    H75 6465   7.747   5.959   1.836  1.7356  0.5346 -1.0486
   46MOL    H76 6466   0.040   5.872   1.759 -1.0592 -0.6543 -0.4994
   46MOL    H77 6467   7.881   5.745   1.867  1.6305 -0.9498 -0.6176
   46MOL    H78 6468   0.089   5.843   1.929  0.2599  0.7158 -0.7520
   46MOL    C79 6469   7.675   5.924   2.075 -0.2396 -0.1274  0.4413
   46MOL    C80 6470   7.666   5.863   2.211  0.3399 -0.2412 -0.2840
   46MOL    O81 6471   7.637   6.059   2.083  0.2326 -0.2045 -0.3398
   46MOL    H82 6472   7.625   5.869   1.995  1.1367 -0.2805 -0.3321
   46MOL    H83 6473   7.571   5.891   2.256  0.4188 -0.9114  0.3200
   46MOL    H84 6474   7.746   5.912   2.266 -0.2376  1.9185 -1.3452
   46MOL    H85 6475   7.684   5.755   2.217  2.3052  0.1972  2.4590
   46MOL    C86 6476   7.501   6.081   2.063 -0.3720 -0.5306 -0.0338
   46MOL    C87 6477   7.470   6.218   2.120 -0.1969  0.3555  0.0372
   46MOL    O88 6478   7.476   6.087   1.925  0.3049 -0.3642  0.7984
   46MOL    H89 6479   7.454   6.003   2.122  2.1461 -1.1663  1.2220
   46MOL    H90 6480   7.538   6.284   2.066  0.0746 -0.4283 -0.5976
   46MOL    H91 6481   7.486   6.223   2.228  0.1144 -3.2853  0.2322
   46MOL    H92 6482   7.369   6.249   2.093 -0.5265 -0.6960  0.0343
   46MOL    C93 6483   7.368   6.007   1.892  0.0922 -0.7982  0.7542
   46MOL    C94 6484   7.332   6.023   1.746 -0.3370  0.2942 -0.3727
   46MOL    O95 6485   7.397   5.870   1.912 -0.1828 -0.3506  0.0568
   46MOL    H96 6486   7.285   6.036   1.956  0.1269  0.9558  0.0205
   46MOL    H97 6487   7.308   6.129   1.731 -1.8339 -0.2381 -1.9168
   46MOL    H98 6488   7.250   5.964   1.704 -1.4979  1.9297 -0.4899
   46MOL    H99 6489   7.421   6.003   1.686 -0.0433  2.7556 -0.8131
   46MOL   C100 6490   7.302   5.781   1.965 -0.3069 -0.3704  0.3302
   46MOL   C101 6491   7.359   5.641   1.949 -0.6525  0.2919  0.7925
   46MOL   O102 6492   7.275   5.814   2.095 -0.2440 -0.0968 -0.2698
   46MOL   H103 6493   7.210   5.785   1.907 -1.7971  1.5082  2.7628
   46MOL   H104 6494   7.354   5.604   1.847 -1.2077 -1.1908  1.3560
   46MOL   H105 6495   7.313   5.570   2.017  2.3905 -3.6406 -1.0340
   46MOL   H106 6496   7.462   5.654   1.984 -0.6068  1.2962  0.3192
   46MOL   C107 6497   7.143   5.837   2.128 -0.4378 -1.0905  0.1559
   46MOL   C108 6498   7.140   5.836   2.278 -0.2310  0.0916  0.3482
   46MOL   O109 6499   7.099   5.960   2.086 -0.3032  0.3095  0.1902
   46MOL   H110 6500   7.078   5.757   2.095 -1.4050 -1.0408  1.8926
   46MOL   H111 6501   7.198   5.921   2.313  0.4590 -0.2559  0.0761
   46MOL   H112 6502   7.198   5.750   2.313 -1.2714 -0.2297  1.2887
   46MOL   H113 6503   7.041   5.855   2.318  0.2941 -0.8199  2.1445
   46MOL   C114 6504   6.986   5.964   2.006 -0.0167 -0.4463  0.6457
   46MOL   C115 6505   6.949   6.111   1.991  0.6265 -0.9856 -0.3748
   46MOL   O116 6506   7.008   5.906   1.875  0.0454 -0.3443 -0.0575
   46MOL   H117 6507   6.922   5.917   2.081  1.2167 -2.0726  0.6957
   46MOL   H118 6508   6.879   6.119   1.908  0.2970 -2.0816 -0.2102
   46MOL   H119 6509   7.038   6.157   1.948  0.1604  0.1933 -0.1094
   46MOL   H120 6510   6.908   6.161   2.079  1.0231  0.6938 -1.1265
   46MOL   C121 6511   6.918   5.802   1.842 -0.0232  0.0210  0.1681
   46MOL   C122 6512   6.950   5.760   1.703  0.5286  0.3214  0.3183
   46MOL   O123 6513   6.941   5.693   1.925 -0.7132  0.5252 -0.3956
   46MOL   H124 6514   6.818   5.845   1.846 -0.6471 -1.1607 -1.7480
   46MOL   H125 6515   6.958   5.843   1.633 -1.9987  2.1338  2.0710
   46MOL   H126 6516   6.876   5.686   1.672  2.0683 -0.8644 -0.6390
   46MOL   H127 6517   7.053   5.723   1.698  1.0958  2.1607 -2.2473
   46MOL   C128 6518   6.828   5.617   1.954 -0.1532 -0.0917  0.9480
   46MOL   C129 6519   6.862   5.500   2.048 -0.5457 -0.2277 -0.2310
   46MOL   O130 6520   6.719   5.689   2.014 -0.2750  0.2668  0.3586
   46MOL   H131 6521   6.790   5.572   1.862 -0.3045 -2.0459  1.9466
   46MOL   H132 6522   6.924   5.423   2.002 -3.1289 -3.1075  0.9527
   46MOL   H133 6523   6.774   5.443   2.078 -2.5859  2.3210 -1.2172
   46MOL   H134 6524   6.914   5.546   2.132  0.5194  2.0403 -2.1048
   46MOL   C135 6525   6.593   5.678   1.949 -0.0656  0.4234  0.1236
   46MOL   C136 6526   6.509   5.579   2.031  1.0313 -0.0889 -0.3888
   46MOL   O137 6527   6.518   5.793   1.961 -0.6886 -0.8159  0.2872
   46MOL   H138 6528   6.607   5.648   1.845 -0.4011 -1.1285  0.5166
   46MOL   H139 6529   6.483   5.602   2.135 -1.0616 -2.0426 -0.4605
   46MOL   H140 6530   6.562   5.484   2.041 -1.4948 -1.8956 -3.3363
   46MOL   H141 6531   6.422   5.552   1.972  0.1472  2.9156 -0.5304
   46MOL   H142 6532   6.549   5.848   1.892  1.4091  0.5896  2.2644
   47MOL     C1 6533   0.897   6.937   7.304 -0.3988  0.0172 -0.0253
   47MOL     C2 6534   1.018   6.881   7.371 -0.0877  0.0815 -0.6978
   47MOL     O3 6535   0.947   7.017   7.194 -0.3019 -0.3351 -0.5233
   47MOL     H4 6536   0.843   7.003   7.373 -1.4813 -1.7911  0.8897
   47MOL     H5 6537   1.062   6.821   7.291 -0.5795 -0.2897 -0.6904
   47MOL     H6 6538   0.979   6.833   7.460 -0.8573 -0.2954 -1.2379
   47MOL     H7 6539   1.086   6.963   7.395 -1.2158  0.8005  0.0994
   47MOL     H8 6540   0.832   6.860   7.264  0.0312 -0.4569  0.1933
   47MOL     C9 6541   0.843   7.057   7.103  0.4399 -0.0567 -0.1261
   47MOL    C10 6542   0.813   6.935   7.014 -0.4677  0.2909  0.0583
   47MOL    O11 6543   0.723   7.105   7.171 -0.7760 -0.3471 -0.5423
   47MOL    H12 6544   0.885   7.123   7.027 -0.1413 -0.8932 -1.1817
   47MOL    H13 6545   0.777   6.854   7.077 -2.1743  0.3970 -0.7622
   47MOL    H14 6546   0.900   6.902   6.957 -0.0818  0.5826  0.4703
   47MOL    H15 6547   0.740   6.966   6.939  0.3265  0.3163 -0.7119
   47MOL    C16 6548   0.739   7.234   7.227 -0.8025 -0.4413 -0.6377
   47MOL    C17 6549   0.769   7.333   7.117 -0.7374  0.3992  0.3155
   47MOL    O18 6550   0.612   7.268   7.281  0.6119 -0.7224 -0.1133
   47MOL    H19 6551   0.806   7.230   7.313  0.5058 -0.6590 -1.6630
   47MOL    H20 6552   0.782   7.436   7.149  0.9628 -0.3040  1.9999
   47MOL    H21 6553   0.698   7.326   7.034  1.5257  1.6250 -1.7776
   47MOL    H22 6554   0.871   7.309   7.086 -0.0631  0.6858  2.2666
   47MOL    C23 6555   0.574   7.185   7.376  0.2882 -0.1765  0.1193
   47MOL    C24 6556   0.580   7.263   7.505  0.7311 -0.0416  0.0104
   47MOL    O25 6557   0.436   7.152   7.369  0.5386  0.4202 -0.0683
   47MOL    H26 6558   0.630   7.092   7.385 -1.2347 -0.9681  1.6364
   47MOL    H27 6559   0.680   7.297   7.529  1.0617 -1.9917  1.5536
   47MOL    H28 6560   0.551   7.189   7.580  0.6290  0.7916  0.8002
   47MOL    H29 6561   0.515   7.351   7.506  0.8281  0.0281  0.2546
   47MOL    C30 6562   0.404   7.063   7.273 -0.4474  0.3749  0.2314
   47MOL    C31 6563   0.329   6.949   7.334 -0.6263 -0.0415 -0.3748
   47MOL    O32 6564   0.328   7.124   7.173  0.8381  0.9048 -0.2889
   47MOL    H33 6565   0.498   7.034   7.224  0.8410  2.3583  1.4654
   47MOL    H34 6566   0.385   6.894   7.409 -1.1433 -0.5876 -0.3837
   47MOL    H35 6567   0.314   6.879   7.252 -1.3333  0.2088 -0.4654
   47MOL    H36 6568   0.238   6.985   7.382  0.6515 -0.0194  2.1257
   47MOL    C37 6569   0.412   7.176   7.068 -0.2584 -0.3275 -0.3963
   47MOL    C38 6570   0.426   7.068   6.959  0.1704 -0.5566 -0.0161
   47MOL    O39 6571   0.342   7.278   7.003  0.7719 -0.5454 -0.2745
   47MOL    H40 6572   0.506   7.216   7.104  0.0845 -2.0739  0.6863
   47MOL    H41 6573   0.511   7.072   6.890  1.5957 -0.6376  1.6884
   47MOL    H42 6574   0.333   7.050   6.906 -0.1037  1.0812 -0.1245
   47MOL    H43 6575   0.454   6.975   7.008  0.4164 -2.3029 -3.3099
   47MOL    C44 6576   0.332   7.395   7.079 -0.2215 -0.0124 -0.9013
   47MOL    C45 6577   0.391   7.504   6.998  0.1412  0.3055 -0.2814
   47MOL    O46 6578   0.207   7.434   7.119  0.3095  0.2833  0.4503
   47MOL    H47 6579   0.389   7.385   7.172 -0.9969  2.9091 -0.0729
   47MOL    H48 6580   0.496   7.479   6.987  0.4280  0.7406  1.3692
   47MOL    H49 6581   0.372   7.601   7.044  3.2541  2.1200 -2.6985
   47MOL    H50 6582   0.350   7.495   6.898  0.5109  0.7513 -0.4716
   47MOL    C51 6583   0.153   7.368   7.224 -0.2859  0.2347  0.5158
   47MOL    C52 6584   0.139   7.469   7.332 -0.5068  0.0992  0.5773
   47MOL    O53 6585   0.030   7.317   7.195  0.4233 -0.1476  0.2902
   47MOL    H54 6586   0.206   7.279   7.259  0.6074  0.6469  0.1948
   47MOL    H55 6587   0.238   7.500   7.364 -0.7525  0.6601  0.7845
   47MOL    H56 6588   0.078   7.427   7.413 -0.7583 -1.0385 -0.1828
   47MOL    H57 6589   0.094   7.561   7.296 -0.5576 -0.9775 -2.2609
   47MOL    C58 6590   0.030   7.208   7.105 -0.1929  0.0612  0.6740
   47MOL    C59 6591   7.909   7.077   7.177  0.3721  0.5855  1.0410
   47MOL    O60 6592   7.843   7.212   7.008  0.3631  0.3941 -0.2009
   47MOL    H61 6593   0.131   7.196   7.065  0.0689  2.6955  0.4003
   47MOL    H62 6594   0.023   6.994   7.112  2.1388  1.2776  0.8922
   47MOL    H63 6595   7.804   7.072   7.207  0.4439 -1.2712  1.0499
   47MOL    H64 6596   0.048   7.070   7.272  1.9288 -0.5961  0.1072
   47MOL    C65 6597   7.869   7.297   6.900 -0.6750  0.7074 -0.1259
   47MOL    C66 6598   7.835   7.212   6.777  0.9231  0.1901  0.0600
   47MOL    O67 6599   7.781   7.403   6.900  0.0370  0.2240  0.0271
   47MOL    H68 6600   0.059   7.329   6.900  0.6215 -3.1597  0.7296
   47MOL    H69 6601   7.899   7.124   6.777  1.0583  0.2891  0.5064
   47MOL    H70 6602   7.858   7.273   6.690 -1.0906  0.4684 -0.3105
   47MOL    H71 6603   7.727   7.193   6.779  1.2588 -2.1092 -0.9264
   47MOL    C72 6604   7.807   7.506   6.991  0.6772  0.5844  0.0502
   47MOL    C73 6605   7.862   7.620   6.893  0.2272  0.3640  0.8999
   47MOL    O74 6606   7.690   7.549   7.057 -0.5894  0.0916 -0.2919
   47MOL    H75 6607   7.878   7.481   7.070 -0.0069 -0.1992  0.4306
   47MOL    H76 6608   7.861   7.715   6.948 -2.7232  2.2905 -2.3152
   47MOL    H77 6609   7.800   7.632   6.804  1.1082  2.2001  0.5064
   47MOL    H78 6610   0.048   7.587   6.868 -0.4604 -0.5526 -0.6750
   47MOL    C79 6611   7.650   7.470   7.161 -0.2314  0.6166  0.2671
   47MOL    C80 6612   7.659   7.558   7.291  0.2635 -0.0637 -0.3718
   47MOL    O81 6613   7.508   7.447   7.142  0.4958  0.6421 -0.2382
   47MOL    H82 6614   7.703   7.376   7.170 -1.0399 -0.0890 -2.1317
   47MOL    H83 6615   7.595   7.508   7.364  0.6444 -0.4736 -0.3135
   47MOL    H84 6616   7.622   7.655   7.260  0.0776 -0.7235 -2.2774
   47MOL    H85 6617   7.763   7.575   7.320 -0.3803  1.7588  0.9660
   47MOL    C86 6618   7.486   7.346   7.058  0.5803 -0.1688 -0.3525
   47MOL    C87 6619   7.475   7.210   7.137 -0.3332 -0.4758  0.4824
   47MOL    O88 6620   7.364   7.365   6.998  0.3557 -0.0584 -0.1802
   47MOL    H89 6621   7.557   7.333   6.976 -0.1404  0.5596 -1.1028
   47MOL    H90 6622   7.477   7.126   7.069 -0.4963 -1.1644  1.3191
   47MOL    H91 6623   7.388   7.212   7.203 -0.2889  0.7761  0.5214
   47MOL    H92 6624   7.560   7.197   7.204 -0.4432 -1.1692  0.4880
   47MOL    C93 6625   7.371   7.468   6.899 -0.1346  0.2091 -0.5387
   47MOL    C94 6626   7.402   7.398   6.763  0.9095 -0.6275  0.1092
   47MOL    O95 6627   7.247   7.532   6.880 -0.1661  0.3351 -0.6032
   47MOL    H96 6628   7.443   7.546   6.922 -0.1237 -0.3865  1.5135
   47MOL    H97 6629   7.503   7.358   6.771  1.7637  1.6091  0.8931
   47MOL    H98 6630   7.382   7.472   6.686 -1.8124 -0.1516  1.1949
   47MOL    H99 6631   7.325   7.321   6.751  0.5688 -0.2850  0.1109
   47MOL   C100 6632   7.214   7.597   6.999  0.8125  0.5494  0.2496
   47MOL   C101 6633   7.268   7.742   6.989  0.4582  0.4236 -1.1040
   47MOL   O102 6634   7.076   7.597   7.023  0.0774 -0.2779 -0.5033
   47MOL   H103 6635   7.257   7.552   7.089 -1.5407 -0.1269  1.0589
   47MOL   H104 6636   7.248   7.796   7.081  1.6452  0.3695 -0.8101
   47MOL   H105 6637   7.217   7.788   6.904  0.9834  0.5333 -1.3610
   47MOL   H106 6638   7.376   7.738   6.973  0.5951 -1.9731  0.1290
   47MOL   C107 6639   7.030   7.461   7.044 -0.0305  0.2189 -0.2421
   47MOL   C108 6640   6.996   7.447   7.192  0.4673 -0.1341 -0.2655
   47MOL   O109 6641   6.914   7.429   6.964  0.2686 -0.2548  0.0192
   47MOL   H110 6642   7.108   7.388   7.021  0.9685  2.0581 -2.9791
   47MOL   H111 6643   7.089   7.438   7.250 -0.2692 -0.1234  0.9349
   47MOL   H112 6644   6.937   7.358   7.213  1.9993 -0.4456  3.1549
   47MOL   H113 6645   6.951   7.542   7.222 -0.2611 -0.1100 -1.4172
   47MOL   C114 6646   6.948   7.372   6.840 -0.1670 -0.0664 -0.4353
   47MOL   C115 6647   6.928   7.222   6.861  0.1456 -0.6577 -0.4607
   47MOL   O116 6648   6.864   7.417   6.740  0.6061  0.7123 -0.1372
   47MOL   H117 6649   7.052   7.400   6.823  0.8771 -2.7764  1.2794
   47MOL   H118 6650   6.918   7.168   6.767 -0.3363 -1.9223  0.3088
   47MOL   H119 6651   6.831   7.198   6.904  0.1505  0.7041  0.3306
   47MOL   H120 6652   7.008   7.180   6.923  1.1230 -0.2588 -1.4232
   47MOL   C121 6653   6.883   7.546   6.697  0.2896  0.0203 -0.1241
   47MOL   C122 6654   6.935   7.550   6.550 -0.0497 -0.4018 -0.0292
   47MOL   O123 6655   6.760   7.614   6.703  0.3403  0.2508 -0.1866
   47MOL   H124 6656   6.956   7.600   6.757  1.3786 -0.0978 -1.3091
   47MOL   H125 6657   6.899   7.470   6.486  1.2739 -1.4140  0.4709
   47MOL   H126 6658   7.043   7.536   6.547  0.3738  2.5459  0.0394
   47MOL   H127 6659   6.918   7.650   6.509  1.6754 -0.8529 -1.9407
   47MOL   C128 6660   6.720   7.646   6.833  0.7986  0.4241  0.6840
   47MOL   C129 6661   6.732   7.805   6.833  0.0159 -0.1540 -0.9053
   47MOL   O130 6662   6.589   7.615   6.860 -0.4687  0.3181 -0.2622
   47MOL   H131 6663   6.781   7.611   6.917  2.2098  5.0290  1.6961
   47MOL   H132 6664   6.668   7.842   6.753 -0.2591 -0.6412 -0.9095
   47MOL   H133 6665   6.835   7.839   6.821 -0.4323  0.6662 -2.7279
   47MOL   H134 6666   6.690   7.850   6.923  1.4540  0.9448 -0.7673
   47MOL   C135 6667   6.550   7.484   6.892 -0.6142 -0.5402  0.2129
   47MOL   C136 6668   6.567   7.461   7.042 -0.2442 -0.3725  0.4881
   47MOL   O137 6669   6.421   7.459   6.847  0.2543  0.2270 -0.1962
   47MOL   H138 6670   6.614   7.414   6.839  0.4412  0.9123 -0.4526
   47MOL   H139 6671   6.514   7.372   7.077 -1.9476  0.0390 -0.9863
   47MOL   H140 6672   6.529   7.549   7.095 -3.1715 -0.8324 -0.7455
   47MOL   H141 6673   6.674   7.466   7.065 -0.2733  2.3368  0.1467
   47MOL   H142 6674   6.434   7.419   6.762 -0.9482  2.8390 -1.6582
   48MOL     C1 6675   1.477   7.710   1.646 -0.5810 -0.3819 -0.3677
   48MOL     C2 6676   1.517   7.797   1.525 -0.8633 -0.3433 -0.2564
   48MOL     O3 6677   1.359   7.763   1.703 -0.5196  0.7515  0.4163
   48MOL     H4 6678   1.562   7.699   1.713 -0.9755  1.0932  0.3949
   48MOL     H5 6679   1.430   7.807   1.460 -1.4531  1.8433  0.8223
   48MOL     H6 6680   1.600   7.765   1.463 -0.2073  1.4055 -0.2759
   48MOL     H7 6681   1.540   7.901   1.548  0.5249 -0.2863 -1.8051
   48MOL     H8 6682   1.452   7.609   1.611 -0.6895  0.4268 -2.7243
   48MOL     C9 6683   1.361   7.789   1.838  0.4115 -0.7355  0.1518
   48MOL    C10 6684   1.246   7.888   1.874  0.9231  0.0416  0.4482
   48MOL    O11 6685   1.333   7.681   1.914  0.2204 -0.0303  0.2326
   48MOL    H12 6686   1.453   7.837   1.873  0.4697 -1.2749  0.7395
   48MOL    H13 6687   1.271   0.076   1.844 -1.9389 -0.1249 -2.7078
   48MOL    H14 6688   1.233   7.886   1.982 -0.0406  0.1799  0.3413
   48MOL    H15 6689   1.149   7.860   1.834 -0.4994  1.9137  2.5120
   48MOL    C16 6690   1.443   7.629   1.991 -0.0447 -0.9948 -0.0348
   48MOL    C17 6691   1.451   7.705   2.120 -0.5789 -0.0138  0.0084
   48MOL    O18 6692   1.414   7.502   2.014 -0.4219 -0.0421  0.3594
   48MOL    H19 6693   1.539   7.644   1.943 -0.7974  2.0789 -0.6302
   48MOL    H20 6694   1.464   7.812   2.107  2.9449 -0.3091  0.7604
   48MOL    H21 6695   1.522   7.670   2.195  0.3911 -0.2924 -1.0237
   48MOL    H22 6696   1.361   7.683   2.178 -0.8799  1.1945 -0.0008
   48MOL    C23 6697   1.476   7.414   1.920  0.4079  0.1771  0.2108
   48MOL    C24 6698   1.615   7.377   1.967  0.5525 -0.3358 -0.0968
   48MOL    O25 6699   1.394   7.299   1.910  0.0600  0.4232  0.1453
   48MOL    H26 6700   1.482   7.460   1.821 -0.8658  0.0454  0.0605
   48MOL    H27 6701   1.602   7.323   2.061  2.1911  0.7739  0.8025
   48MOL    H28 6702   1.674   7.468   1.982 -0.4713  0.4674 -0.8605
   48MOL    H29 6703   1.668   7.314   1.896  0.1499  0.2125 -0.8963
   48MOL    C30 6704   1.410   7.219   1.791 -0.3787 -0.2301  0.5593
   48MOL    C31 6705   1.475   7.082   1.817  0.7825 -0.0881 -0.0671
   48MOL    O32 6706   1.281   7.207   1.726  0.3746 -0.0162  0.1864
   48MOL    H33 6707   1.474   7.270   1.718 -2.9577  1.3827 -0.6505
   48MOL    H34 6708   1.559   7.090   1.886  1.4173  2.2586 -1.0651
   48MOL    H35 6709   1.528   7.055   1.726 -1.3665  2.8294 -2.2841
   48MOL    H36 6710   1.397   7.008   1.834  0.4289  0.5391  1.0893
   48MOL    C37 6711   1.238   7.320   1.665 -0.3099  0.2812 -0.0160
   48MOL    C38 6712   1.200   7.288   1.516  0.0579 -0.7606  0.4242
   48MOL    O39 6713   1.115   7.358   1.721 -0.0267 -0.0602 -0.9253
   48MOL    H40 6714   1.308   7.404   1.669 -1.7084  1.5508 -1.3875
   48MOL    H41 6715   1.128   7.206   1.524 -1.4604  0.5191  0.2361
   48MOL    H42 6716   1.295   7.260   1.470 -0.3658 -0.9185 -0.3638
   48MOL    H43 6717   1.154   7.376   1.471  0.0643  0.0399  1.9770
   48MOL    C44 6718   1.108   7.478   1.793 -0.3020  0.3034  0.4579
   48MOL    C45 6719   1.074   7.590   1.701  0.3793 -1.0376 -0.2258
   48MOL    O46 6720   1.002   7.458   1.880  0.2495  0.4533  0.1086
   48MOL    H47 6721   1.199   7.491   1.851  1.1884 -1.8559 -1.3338
   48MOL    H48 6722   0.980   7.572   1.648 -0.1207 -1.8151  0.8935
   48MOL    H49 6723   1.153   7.588   1.627 -0.0027  1.3295 -0.7439
   48MOL    H50 6724   1.073   7.682   1.760 -0.1593 -0.1465 -1.6134
   48MOL    C51 6725   1.022   7.413   2.014 -0.7569  0.0917  0.1227
   48MOL    C52 6726   1.030   7.539   2.096  0.6262 -0.6832 -0.6745
   48MOL    O53 6727   0.920   7.335   2.068  0.0249  0.4454  0.1710
   48MOL    H54 6728   1.109   7.349   2.009  0.2056  1.4598 -0.9235
   48MOL    H55 6729   1.037   7.528   2.204 -4.8265  1.3722  0.0099
   48MOL    H56 6730   0.937   7.595   2.083 -0.1921 -1.5261  1.3896
   48MOL    H57 6731   1.123   7.590   2.069  3.4329 -2.7474  4.3426
   48MOL    C58 6732   0.894   7.216   1.998 -0.9100 -0.1493 -0.2455
   48MOL    C59 6733   0.899   7.104   2.098  0.3790  0.5700 -1.2886
   48MOL    O60 6734   0.758   7.206   1.958  0.7377 -0.0739  0.1859
   48MOL    H61 6735   0.950   7.200   1.906 -0.2143 -1.6475  0.4328
   48MOL    H62 6736   1.003   7.075   2.114  0.2979  0.3686 -1.1165
   48MOL    H63 6737   0.839   7.019   2.066 -1.4713  0.6906  1.6321
   48MOL    H64 6738   0.851   7.134   2.192  0.6982 -1.6098 -0.3998
   48MOL    C65 6739   0.724   7.264   1.835 -0.4458 -0.3060 -0.4389
   48MOL    C66 6740   0.746   7.153   1.727  0.7680 -0.3395  0.0066
   48MOL    O67 6741   0.589   7.304   1.838  0.3331  0.8815  0.1050
   48MOL    H68 6742   0.793   7.341   1.802  1.0495 -1.2799  0.3366
   48MOL    H69 6743   0.853   7.130   1.723  0.3018 -3.0078  1.6298
   48MOL    H70 6744   0.707   7.190   1.632  2.5128 -0.4244 -0.7803
   48MOL    H71 6745   0.697   7.064   1.766  1.5904  0.2261  2.4414
   48MOL    C72 6746   0.568   7.412   1.918 -0.3190 -0.5034  0.1092
   48MOL    C73 6747   0.528   7.523   1.822 -0.3294  0.1348 -0.1744
   48MOL    O74 6748   0.466   7.394   2.013 -0.2701  0.4225 -0.2948
   48MOL    H75 6749   0.653   7.446   1.978  0.6881 -0.3664 -1.3598
   48MOL    H76 6750   0.615   7.536   1.758 -0.0813 -1.5648 -0.1878
   48MOL    H77 6751   0.506   7.624   1.857 -1.0472  0.3801 -1.3080
   48MOL    H78 6752   0.453   7.489   1.751 -1.6985  1.4794  0.6037
   48MOL    C79 6753   0.478   7.288   2.103 -0.0183 -0.4794 -0.4755
   48MOL    C80 6754   0.495   7.354   2.233  0.4203 -0.5963 -0.0957
   48MOL    O81 6755   0.354   7.225   2.107 -0.3466  0.3945  0.3540
   48MOL    H82 6756   0.563   7.220   2.094  0.3088 -0.1049 -0.2315
   48MOL    H83 6757   0.598   7.391   2.237 -0.1278  0.9303  0.1705
   48MOL    H84 6758   0.478   7.279   2.310 -0.7428 -2.5399 -2.1924
   48MOL    H85 6759   0.420   7.429   2.255  1.0201 -0.9127  3.2743
   48MOL    C86 6760   0.348   7.133   2.005 -0.1842 -0.1968 -0.1393
   48MOL    C87 6761   0.360   6.999   2.078 -0.5161  0.1653  0.8275
   48MOL    O88 6762   0.224   7.130   1.936  0.3551 -0.3862 -0.0336
   48MOL    H89 6763   0.424   7.137   1.927  1.4393 -2.4439  1.2650
   48MOL    H90 6764   0.366   6.920   2.003  1.1512  2.3043 -1.3488
   48MOL    H91 6765   0.284   6.984   2.155 -0.3023 -1.4882  0.7346
   48MOL    H92 6766   0.455   7.002   2.130  1.4710 -0.5969 -2.6084
   48MOL    C93 6767   0.222   7.233   1.838 -0.8405  0.3556  0.6322
   48MOL    C94 6768   0.222   7.172   1.693 -1.0264 -0.3172 -1.6705
   48MOL    O95 6769   0.104   7.302   1.848  0.5913 -0.1396  0.7476
   48MOL    H96 6770   0.302   7.306   1.849  1.0998 -1.3964 -1.3540
   48MOL    H97 6771   0.244   7.248   1.618 -0.8056  1.4366  0.1123
   48MOL    H98 6772   0.131   7.113   1.679 -1.1984 -1.1611  2.3619
   48MOL    H99 6773   0.298   7.095   1.704 -0.4957  0.4796  0.6928
   48MOL   C100 6774   0.082   7.385   1.960 -0.1689  0.5057 -0.4537
   48MOL   C101 6775   0.044   7.519   1.903 -0.2522 -0.0906 -0.5039
   48MOL   O102 6776   7.883   7.346   2.033 -0.1620 -0.3085 -0.6727
   48MOL   H103 6777   0.164   7.406   2.028  0.9323  0.5764 -1.7874
   48MOL   H104 6778   0.020   7.587   1.985 -2.3253  0.1581 -1.2940
   48MOL   H105 6779   7.865   7.509   1.847  0.2714  3.5193 -2.1611
   48MOL   H106 6780   0.125   7.554   1.839 -1.0901  4.7931  0.9103
   48MOL   C107 6781   0.004   7.264   2.137  0.0944  0.0966  0.0290
   48MOL   C108 6782   0.005   7.352   2.260  0.4942  0.3995 -0.2054
   48MOL   O109 6783   7.824   7.156   2.159 -0.2111 -0.2030  0.3190
   48MOL   H110 6784   0.105   7.225   2.126  0.6824  1.6078  0.0558
   48MOL   H111 6785   0.046   7.292   2.341  1.3488 -1.4693 -1.9534
   48MOL   H112 6786   7.816   7.378   2.285  0.4545 -1.5729  1.8793
   48MOL   H113 6787   0.068   7.438   2.238 -0.0906  0.5512 -1.3530
   48MOL   C114 6788   7.813   7.061   2.056 -0.2734  0.2645  0.5289
   48MOL   C115 6789   7.864   6.934   2.116  0.0912  0.1110 -0.6630
   48MOL   O116 6790   7.682   7.044   2.023 -0.2694 -0.2552 -0.1412
   48MOL   H117 6791   7.868   7.086   1.965 -0.4943 -2.2213 -0.3223
   48MOL   H118 6792   0.050   6.950   2.156  0.2342  2.5870 -1.9563
   48MOL   H119 6793   7.879   6.862   2.035 -0.5179  1.9873 -2.4805
   48MOL   H120 6794   7.801   6.904   2.200  2.7742  1.7831  2.0370
   48MOL   C121 6795   7.643   7.135   1.925  0.7720  0.2661  0.1661
   48MOL   C122 6796   7.621   7.054   1.799 -0.0419  0.4567 -0.3983
   48MOL   O123 6797   7.521   7.203   1.954  0.5345  0.4475 -0.0301
   48MOL   H124 6798   7.727   7.200   1.901  0.3978  0.7628  0.2042
   48MOL   H125 6799   7.701   6.983   1.780  0.2828  0.7425 -0.1122
   48MOL   H126 6800   7.623   7.125   1.716  0.1596  0.5818 -0.2867
   48MOL   H127 6801   7.526   7.001   1.809  0.2921  0.0846  0.9395
   48MOL   C128 6802   7.534   7.317   2.038 -0.7261 -0.2925  0.3763
   48MOL   C129 6803   7.495   7.450   1.969  0.7361  0.2505  0.0646
   48MOL   O130 6804   7.451   7.309   2.153  0.0242 -0.5191  0.1641
   48MOL   H131 6805   7.636   7.328   2.073 -1.2217  0.0695  1.7508
   48MOL   H132 6806   7.388   7.453   1.947  0.4883 -0.8483  1.0282
   48MOL   H133 6807   7.559   7.458   1.882  0.2876  0.1107 -0.2776
   48MOL   H134 6808   7.534   7.529   2.034  2.0101 -0.7712  0.5762
   48MOL   C135 6809   7.505   7.231   2.259  0.2022 -0.1661  0.1552
   48MOL   C136 6810   7.416   7.260   2.381 -0.0818  0.4290  0.0318
   48MOL   O137 6811   7.507   7.091   2.236  0.4037 -0.2503 -0.6890
   48MOL   H138 6812   7.608   7.260   2.276  0.7192 -1.5121 -0.5253
   48MOL   H139 6813   7.460   7.243   2.479 -1.0953  2.3950  0.8678
   48MOL   H140 6814   7.319   7.211   2.372  0.3991 -0.2682 -1.7565
   48MOL   H141 6815   7.398   7.368   2.376  2.3073  0.8604  0.4341
   48MOL   H142 6816   7.569   7.072   2.167  3.3394  2.4719  1.0355
   49MOL     C1 6817   6.504   2.462   4.231  0.2205  0.0424  0.3449
   49MOL     C2 6818   6.377   2.390   4.242 -0.8003 -0.4834  0.0935
   49MOL     O3 6819   6.498   2.537   4.115 -0.8973  0.0773  0.8728
   49MOL     H4 6820   6.588   2.392   4.219  1.1433  0.9584  1.3065
   49MOL     H5 6821   6.399   2.316   4.318  0.8351 -0.2322 -0.1153
   49MOL     H6 6822   6.342   2.356   4.144 -3.5437  2.3308 -0.0265
   49MOL     H7 6823   6.301   2.462   4.275  0.1552  1.9852 -2.7954
   49MOL     H8 6824   6.529   2.525   4.316  0.2204 -0.0462  0.4099
   49MOL     C9 6825   6.615   2.612   4.103  0.2176  0.1481  0.1481
   49MOL    C10 6826   6.710   2.521   4.020  0.3430  0.1493 -0.3945
   49MOL    O11 6827   6.601   2.734   4.049 -0.4085  0.6471  0.6990
   49MOL    H12 6828   6.671   2.627   4.196  2.7350  1.5070 -1.5017
   49MOL    H13 6829   6.664   2.507   3.922 -1.7084 -0.1752  0.5810
   49MOL    H14 6830   6.725   2.423   4.065  2.4960  0.2075 -0.9600
   49MOL    H15 6831   6.811   2.561   4.016 -0.1312  1.3405 -0.4771
   49MOL    C16 6832   6.524   2.824   4.124 -0.4156  0.5531 -0.4950
   49MOL    C17 6833   6.607   2.892   4.233  0.3536 -0.0920  0.1608
   49MOL    O18 6834   6.466   2.929   4.048  0.5902  0.1012  0.9417
   49MOL    H19 6835   6.449   2.763   4.175  0.8034 -0.7863 -0.2690
   49MOL    H20 6836   6.680   2.964   4.194  0.7402 -0.0419  0.9642
   49MOL    H21 6837   6.645   2.826   4.310  2.7858  1.4859  0.3747
   49MOL    H22 6838   6.534   2.951   4.288  1.8218  1.3387  0.6437
   49MOL    C23 6839   6.387   2.888   3.941 -0.2116 -0.2384  0.5806
   49MOL    C24 6840   6.251   2.928   3.977  0.8080  0.1965 -0.5272
   49MOL    O25 6841   6.429   2.951   3.823 -0.3104 -0.4135 -0.7004
   49MOL    H26 6842   6.390   2.781   3.921 -0.4755 -0.1023 -0.2208
   49MOL    H27 6843   6.191   2.913   3.887  0.7597 -0.4419 -0.3926
   49MOL    H28 6844   6.242   3.033   4.006 -0.9656  0.0572 -0.4937
   49MOL    H29 6845   6.213   2.852   4.046  0.5405 -0.1606 -1.0632
   49MOL    C30 6846   6.564   2.946   3.785 -0.3394 -0.2803  0.1050
   49MOL    C31 6847   6.594   2.814   3.712  0.5120  0.1001  0.6784
   49MOL    O32 6848   6.610   3.053   3.706  0.1813  0.2410  0.2138
   49MOL    H33 6849   6.618   2.928   3.878 -2.5653  0.1954  1.5095
   49MOL    H34 6850   6.563   2.806   3.608 -1.9316 -0.9663  1.4503
   49MOL    H35 6851   6.554   2.735   3.775  3.2741  0.0985  2.5233
   49MOL    H36 6852   6.701   2.795   3.713  0.8488  1.6589 -2.4078
   49MOL    C37 6853   6.613   3.178   3.771  0.6941 -0.2227  0.2228
   49MOL    C38 6854   6.759   3.233   3.749 -0.0201 -0.6663  0.0688
   49MOL    O39 6855   6.528   3.264   3.706 -0.1875 -0.5002 -0.0242
   49MOL    H40 6856   6.591   3.176   3.878  1.5865 -4.7227  0.3919
   49MOL    H41 6857   6.780   3.318   3.813 -1.2713 -1.6484  1.8331
   49MOL    H42 6858   6.761   3.263   3.644  2.5030  1.8793  0.7891
   49MOL    H43 6859   6.830   3.153   3.772 -0.7918 -0.2559  4.2902
   49MOL    C44 6860   6.397   3.267   3.741 -0.3183  0.3897 -0.2694
   49MOL    C45 6861   6.373   3.406   3.804  0.2266  0.2001 -0.4704
   49MOL    O46 6862   6.324   3.265   3.626  0.3615 -1.0973  0.4148
   49MOL    H47 6863   6.353   3.196   3.811 -0.8548  0.4247 -0.5728
   49MOL    H48 6864   6.444   3.425   3.884  0.1884  1.2009 -0.6789
   49MOL    H49 6865   6.278   3.424   3.853  0.4076 -1.4360  0.5456
   49MOL    H50 6866   6.400   3.485   3.735  1.2137 -0.3100 -0.6779
   49MOL    C51 6867   6.311   3.137   3.565  0.2605  0.7282 -0.1717
   49MOL    C52 6868   6.162   3.095   3.592 -0.2714  0.3111 -0.2108
   49MOL    O53 6869   6.334   3.146   3.425  0.2115 -0.7417 -0.4006
   49MOL    H54 6870   6.387   3.071   3.605  2.4711  1.9054 -2.2483
   49MOL    H55 6871   6.097   3.177   3.562  0.3234  0.8635  0.0053
   49MOL    H56 6872   6.145   3.086   3.699 -1.4475 -0.4368 -0.4483
   49MOL    H57 6873   6.143   2.999   3.545 -1.3495 -0.5556  1.9186
   49MOL    C58 6874   6.470   3.156   3.395 -0.2772 -0.0655 -0.1829
   49MOL    C59 6875   6.512   3.024   3.318 -0.0636  0.2881  0.2119
   49MOL    O60 6876   6.499   3.264   3.311 -0.0549 -0.4252 -0.7370
   49MOL    H61 6877   6.531   3.161   3.486 -0.9651 -0.8978  0.3333
   49MOL    H62 6878   6.507   2.936   3.382  0.5496 -0.4180 -0.6983
   49MOL    H63 6879   6.615   3.028   3.282 -0.1769 -2.7770 -0.6355
   49MOL    H64 6880   6.447   3.018   3.230 -0.7631  1.6710  0.6253
   49MOL    C65 6881   6.532   3.383   3.374 -0.3697 -0.3211  0.9778
   49MOL    C66 6882   6.687   3.406   3.358  0.3868  0.7981  0.1823
   49MOL    O67 6883   6.467   3.492   3.313  0.3767  0.0462  0.4167
   49MOL    H68 6884   6.522   3.370   3.482  0.5514  2.8910  1.4980
   49MOL    H69 6885   6.722   3.305   3.381  1.1277  0.8078 -0.8549
   49MOL    H70 6886   6.723   3.487   3.420  2.6246  0.4538 -0.6377
   49MOL    H71 6887   6.701   3.422   3.251  0.3200  1.3233  0.2530
   49MOL    C72 6888   6.325   3.494   3.347  0.2880  0.3173 -0.4880
   49MOL    C73 6889   6.290   3.633   3.416 -0.3414 -0.1407 -0.0919
   49MOL    O74 6890   6.252   3.493   3.228  0.2520 -0.1763 -0.2988
   49MOL    H75 6891   6.293   3.406   3.402 -1.2760  0.4772 -1.1180
   49MOL    H76 6892   6.289   3.714   3.343  0.5925  0.6360  0.7515
   49MOL    H77 6893   6.362   3.653   3.495  0.9580  0.5310 -1.4315
   49MOL    H78 6894   6.194   3.628   3.468  0.7592  2.7777  2.3523
   49MOL    C79 6895   6.227   3.372   3.169  0.4094 -0.1090 -0.0299
   49MOL    C80 6896   6.088   3.325   3.184  0.3123 -0.2096 -0.2821
   49MOL    O81 6897   6.251   3.380   3.034 -0.5116  0.3632  0.4492
   49MOL    H82 6898   6.282   3.288   3.210 -1.5269 -1.4654 -0.1518
   49MOL    H83 6899   6.053   3.326   3.287  0.8901  0.1998 -0.0942
   49MOL    H84 6900   6.070   3.224   3.148 -0.3039  0.2261 -1.2174
   49MOL    H85 6901   6.016   3.383   3.125  0.8018  1.8850  1.1202
   49MOL    C86 6902   6.387   3.398   3.006 -0.3510  1.2354  0.1677
   49MOL    C87 6903   6.426   3.280   2.913  0.8086 -0.1204  0.4891
   49MOL    O88 6904   6.396   3.514   2.921  0.5558  0.1346 -0.2606
   49MOL    H89 6905   6.449   3.389   3.095 -1.1870  0.8607  0.7226
   49MOL    H90 6906   6.413   3.185   2.964  0.2325 -0.5466 -0.4393
   49MOL    H91 6907   6.529   3.290   2.878  1.1547 -1.4839  1.0966
   49MOL    H92 6908   6.367   3.278   2.822  1.1963 -1.5035  0.2605
   49MOL    C93 6909   6.444   3.622   2.994  0.1078  0.1221  1.0108
   49MOL    C94 6910   6.596   3.612   3.002  0.1364  0.1118  1.1043
   49MOL    O95 6911   6.409   3.741   2.939 -0.1152  0.0852  0.3607
   49MOL    H96 6912   6.412   3.619   3.098 -0.5895  2.4381  0.8922
   49MOL    H97 6913   6.625   3.533   3.072  0.8461 -1.6043 -1.0212
   49MOL    H98 6914   6.642   3.709   3.020 -0.6566  0.9858 -1.3561
   49MOL    H99 6915   6.640   3.574   2.909 -1.6546 -0.9291  0.6666
   49MOL   C100 6916   6.271   3.768   2.926  0.1154 -0.4838 -0.4270
   49MOL   C101 6917   6.219   3.809   3.061 -0.4228  0.0751  0.3266
   49MOL   O102 6918   6.257   3.879   2.846  0.0157 -0.1319 -0.0892
   49MOL   H103 6919   6.216   3.684   2.883  0.3156 -0.7393 -0.1887
   49MOL   H104 6920   6.124   3.864   3.063 -1.4288 -1.5607 -1.3529
   49MOL   H105 6921   6.296   3.863   3.117  0.3605 -0.8600  0.1573
   49MOL   H106 6922   6.199   3.720   3.121  0.6540 -0.8460 -0.6817
   49MOL   C107 6923   6.292   3.848   2.714  0.4756 -0.5813 -0.4361
   49MOL   C108 6924   6.167   3.865   2.632 -0.4144 -0.7044 -0.5590
   49MOL   O109 6925   6.378   3.939   2.652 -0.2381  0.1404 -0.2193
   49MOL   H110 6926   6.331   3.746   2.709  0.7995 -0.5131  0.6140
   49MOL   H111 6927   6.101   3.781   2.654 -2.2298  0.6692 -0.6427
   49MOL   H112 6928   6.200   3.855   2.528 -1.5760  0.9596 -1.1093
   49MOL   H113 6929   6.116   3.960   2.651 -1.9371 -1.8014  0.9129
   49MOL   C114 6930   6.508   3.931   2.707 -0.1834  0.4083  0.0875
   49MOL   C115 6931   6.606   3.944   2.590 -0.3537  0.0070  0.1147
   49MOL   O116 6932   6.532   4.044   2.780 -0.0059  0.2506  0.5998
   49MOL   H117 6933   6.514   3.839   2.764 -1.2600  0.0453 -0.3803
   49MOL   H118 6934   6.700   3.900   2.623 -1.1349  0.4391  3.0741
   49MOL   H119 6935   6.622   4.045   2.554  0.9810 -0.2695 -0.0723
   49MOL   H120 6936   6.571   3.883   2.507 -2.2816  1.6757 -0.3557
   49MOL   C121 6937   6.545   4.033   2.914 -0.7618 -0.4749  0.3446
   49MOL   C122 6938   6.694   4.020   2.940  0.1259  0.0452  0.6328
   49MOL   O123 6939   6.503   4.149   2.981  0.2786 -0.1547 -0.4436
   49MOL   H124 6940   6.493   3.954   2.967  0.4581 -0.9689  0.8334
   49MOL   H125 6941   6.713   4.014   3.047  0.9293 -0.0083  0.4905
   49MOL   H126 6942   6.753   4.099   2.893 -0.0556 -0.4458 -0.4340
   49MOL   H127 6943   6.732   3.923   2.907  0.3438  0.8463 -1.6212
   49MOL   C128 6944   6.363   4.161   2.984  1.0302 -0.4834 -0.2948
   49MOL   C129 6945   6.325   4.164   3.126  0.3863 -0.0387 -0.1843
   49MOL   O130 6946   6.323   4.286   2.933 -0.1671 -0.4652 -0.2080
   49MOL   H131 6947   6.320   4.076   2.931 -0.2104  0.8223 -1.4391
   49MOL   H132 6948   6.217   4.180   3.126  0.2692 -0.4567  2.8790
   49MOL   H133 6949   6.376   4.250   3.170  0.6440  0.0118 -0.5779
   49MOL   H134 6950   6.353   4.070   3.172  2.2092  0.5758  0.0375
   49MOL   C135 6951   6.314   4.285   2.803 -0.5670 -0.1459  0.2762
   49MOL   C136 6952   6.231   4.406   2.753 -0.4400  1.0562 -0.4094
   49MOL   O137 6953   6.442   4.278   2.742 -0.0021 -0.2719 -0.1225
   49MOL   H138 6954   6.269   4.193   2.767  1.1414 -0.5176 -0.9707
   49MOL   H139 6955   6.231   4.394   2.645  0.5904 -1.1914 -0.1876
   49MOL   H140 6956   6.283   4.501   2.764 -0.5921  1.3791 -2.3365
   49MOL   H141 6957   6.128   4.401   2.790 -0.5921 -0.0741 -0.9541
   49MOL   H142 6958   6.475   4.191   2.754 -0.1098 -0.3492 -0.3888
   50MOL     C1 6959   2.619   2.205   0.814  0.1048  0.3497 -0.3907
   50MOL     C2 6960   2.753   2.251   0.752 -0.2411 -0.1202 -0.2586
   50MOL     O3 6961   2.569   2.083   0.764  0.6114 -0.5252 -0.3891
   50MOL     H4 6962   2.549   2.287   0.798 -1.2932 -0.6594  0.4080
   50MOL     H5 6963   2.841   2.187   0.759 -0.9925 -1.1542 -0.1422
   50MOL     H6 6964   2.781   2.342   0.805 -2.3655  0.4032  0.0296
   50MOL     H7 6965   2.731   2.268   0.647 -0.1382  1.0302 -0.1047
   50MOL     H8 6966   2.627   2.179   0.920  0.2132 -0.8405 -0.6858
   50MOL     C9 6967   2.431   2.063   0.777 -0.0669 -0.1974  1.0297
   50MOL    C10 6968   2.391   1.936   0.709 -0.3296 -0.5688  0.8776
   50MOL    O11 6969   2.393   2.046   0.903  0.0785 -0.0728 -0.3017
   50MOL    H12 6970   2.382   2.146   0.727 -1.2205  0.1267  2.6451
   50MOL    H13 6971   2.442   1.855   0.761 -1.1751 -2.1513 -0.6994
   50MOL    H14 6972   2.436   1.931   0.610  0.1681 -0.1615  1.0775
   50MOL    H15 6973   2.284   1.914   0.712 -0.4044 -0.2651  0.4516
   50MOL    C16 6974   2.314   2.152   0.956  1.0148  0.6808  0.6882
   50MOL    C17 6975   2.174   2.122   0.924  0.3011  0.1898  0.6402
   50MOL    O18 6976   2.320   2.142   1.096 -0.8544 -0.3355 -0.1080
   50MOL    H19 6977   2.343   2.251   0.922  2.2564  1.7288  4.6060
   50MOL    H20 6978   2.109   2.199   0.965  1.2339 -0.4771  3.4503
   50MOL    H21 6979   2.127   2.035   0.972  0.3226  0.5007  1.2284
   50MOL    H22 6980   2.162   2.133   0.816  1.6828  0.3934  0.5046
   50MOL    C23 6981   2.433   2.203   1.153 -1.1024  0.0669  0.3566
   50MOL    C24 6982   2.370   2.314   1.237  0.1693 -0.1807 -0.1782
   50MOL    O25 6983   2.496   2.123   1.243  0.0111  0.1153  0.3392
   50MOL    H26 6984   2.515   2.236   1.089 -0.4587  0.0824  1.1880
   50MOL    H27 6985   2.446   2.379   1.280 -0.7201  1.3848 -0.9179
   50MOL    H28 6986   2.314   2.275   1.322 -0.4208  0.0923 -0.4364
   50MOL    H29 6987   2.303   2.370   1.171  1.0529  0.8374 -0.2203
   50MOL    C30 6988   2.568   2.024   1.183 -0.5517 -0.1590  0.2572
   50MOL    C31 6989   2.716   2.063   1.193  0.4121 -0.3805  0.0251
   50MOL    O32 6990   2.555   1.899   1.244  0.0867 -0.0314  0.1519
   50MOL    H33 6991   2.531   2.002   1.083 -0.1902  1.6600 -0.2987
   50MOL    H34 6992   2.743   2.089   1.295  1.5787  0.7467 -0.5567
   50MOL    H35 6993   2.742   2.139   1.120 -1.5311  1.6898  1.4410
   50MOL    H36 6994   2.779   1.979   1.163  0.5010 -0.4455  0.3974
   50MOL    C37 6995   2.429   1.851   1.254  0.2204 -0.0496  0.0347
   50MOL    C38 6996   2.432   1.712   1.191 -0.6242 -0.3664  0.4632
   50MOL    O39 6997   2.400   1.826   1.392 -0.3348  0.7503  0.5735
   50MOL    H40 6998   2.354   1.912   1.204  0.6235  0.9400  0.6125
   50MOL    H41 6999   2.489   1.640   1.250 -0.8329  0.4362  1.6361
   50MOL    H42 7000   2.479   1.715   1.092  1.3049  0.5444  1.3851
   50MOL    H43 7001   2.334   1.666   1.180 -2.0740  2.7457 -0.0688
   50MOL    C44 7002   2.415   1.937   1.476 -0.3882  0.4977 -1.0432
   50MOL    C45 7003   2.293   2.014   1.472  0.2644 -0.1355 -0.2586
   50MOL    O46 7004   2.415   1.898   1.613  0.3623 -0.8492 -0.0450
   50MOL    H47 7005   2.504   1.999   1.462  0.2805  0.0883  1.1656
   50MOL    H48 7006   2.298   2.111   1.523  1.0914  1.1948 -2.7955
   50MOL    H49 7007   2.197   1.962   1.479  0.3628 -0.6638 -2.5156
   50MOL    H50 7008   2.285   2.050   1.369  1.2658  1.1542  0.0922
   50MOL    C51 7009   2.540   1.861   1.657  0.1930 -0.2033  0.4559
   50MOL    C52 7010   2.592   1.975   1.747 -0.4087 -0.2833 -0.7986
   50MOL    O53 7011   2.532   1.743   1.735  0.8187 -0.5164  0.0287
   50MOL    H54 7012   2.608   1.848   1.573 -2.6107  3.7647 -2.6525
   50MOL    H55 7013   2.527   1.996   1.832  0.1897  0.5378 -0.5425
   50MOL    H56 7014   2.605   2.065   1.686 -1.5795 -0.5219 -1.4244
   50MOL    H57 7015   2.692   1.950   1.782 -0.0130  0.6935 -1.1990
   50MOL    C58 7016   2.496   1.635   1.661  0.1986  0.2975 -1.1835
   50MOL    C59 7017   2.616   1.532   1.653 -0.0565 -0.0187 -0.3245
   50MOL    O60 7018   2.393   1.564   1.719 -0.3945  0.3844 -0.5352
   50MOL    H61 7019   2.466   1.655   1.558 -4.4219  1.2572  0.2328
   50MOL    H62 7020   2.588   1.448   1.590  0.3623  0.7300 -1.5351
   50MOL    H63 7021   2.638   1.506   1.757  1.7849 -1.3865 -1.0416
   50MOL    H64 7022   2.707   1.572   1.609  0.3396 -2.0485 -1.3884
   50MOL    C65 7023   2.268   1.621   1.726  0.3042 -0.3348  0.1919
   50MOL    C66 7024   2.203   1.612   1.590  0.2195 -0.5015  0.1274
   50MOL    O67 7025   2.185   1.560   1.818 -0.0042  0.3909 -0.2702
   50MOL    H68 7026   2.273   1.727   1.751 -0.3138 -0.2514 -0.0171
   50MOL    H69 7027   2.199   1.511   1.548 -0.7652 -1.2445  1.9629
   50MOL    H70 7028   2.259   1.675   1.521  0.7292  0.9239  1.7987
   50MOL    H71 7029   2.099   1.644   1.591 -0.4265 -2.4909 -0.8690
   50MOL    C72 7030   2.241   1.553   1.950  0.6649  0.6325  0.1937
   50MOL    C73 7031   2.185   1.674   2.037 -0.2241  0.1366  0.7433
   50MOL    O74 7032   2.213   1.433   2.010 -0.1513 -0.2469 -0.3221
   50MOL    H75 7033   2.349   1.570   1.955  0.7272  0.1924  0.3884
   50MOL    H76 7034   2.238   1.765   2.009  1.0427 -0.4994  1.0383
   50MOL    H77 7035   2.206   1.657   2.142 -0.9964  1.3943  1.1063
   50MOL    H78 7036   2.078   1.684   2.019 -0.1419  0.0606  0.2055
   50MOL    C79 7037   2.294   1.328   1.965 -0.2810  0.2490  0.4884
   50MOL    C80 7038   2.349   1.266   2.089 -0.8078 -0.1198 -0.9897
   50MOL    O81 7039   2.220   1.230   1.901 -0.0280  0.3370 -0.1335
   50MOL    H82 7040   2.367   1.372   1.897 -2.3541  0.6705 -1.5524
   50MOL    H83 7041   2.270   1.210   2.138  0.6226 -0.3709  1.1027
   50MOL    H84 7042   2.377   1.352   2.150  2.0930 -2.2342  0.7896
   50MOL    H85 7043   2.441   1.215   2.061  2.0274  2.4778  2.9287
   50MOL    C86 7044   2.204   1.248   1.763  0.0112 -0.6074  0.0650
   50MOL    C87 7045   2.287   1.144   1.693  0.2359  0.3067 -0.2164
   50MOL    O88 7046   2.067   1.229   1.734 -0.8493  0.3908 -0.0453
   50MOL    H89 7047   2.223   1.346   1.719 -3.1593  2.0179  4.1531
   50MOL    H90 7048   2.392   1.155   1.717  0.5346 -0.4857 -1.1058
   50MOL    H91 7049   2.278   1.155   1.585 -1.2894  1.9575  0.0593
   50MOL    H92 7050   2.253   1.044   1.721 -1.5276  0.3732 -1.9750
   50MOL    C93 7051   1.974   1.319   1.786  0.0211 -0.5484  0.0042
   50MOL    C94 7052   1.907   1.376   1.662 -0.2704  0.0247  0.2607
   50MOL    O95 7053   1.878   1.255   1.860  0.1752  0.0270 -0.4383
   50MOL    H96 7054   2.015   1.402   1.845 -5.3135  2.2016  0.1385
   50MOL    H97 7055   1.883   1.303   1.585  0.0894  2.2897 -2.0665
   50MOL    H98 7056   1.963   1.450   1.605  0.7440  0.1498  1.4158
   50MOL    H99 7057   1.818   1.429   1.699 -0.7548 -0.5568 -0.0653
   50MOL   C100 7058   1.907   1.246   1.998  0.1196  1.0956 -0.8528
   50MOL   C101 7059   1.803   1.337   2.072  0.4971  0.4832 -0.4809
   50MOL   O102 7060   1.873   1.117   2.045  0.3986 -0.1341 -0.3572
   50MOL   H103 7061   2.005   1.282   2.030 -0.0898  0.8099  0.1495
   50MOL   H104 7062   1.774   1.284   2.162  2.5776 -1.0786 -0.7132
   50MOL   H105 7063   1.715   1.350   2.008 -0.4151 -1.3245  0.3876
   50MOL   H106 7064   1.853   1.429   2.103  1.6608 -0.2122 -0.2898
   50MOL   C107 7065   1.960   1.018   2.006  0.0565 -0.2482  0.9452
   50MOL   C108 7066   2.009   0.950   2.134  0.5486 -0.1194 -0.0286
   50MOL   O109 7067   1.895   0.910   1.935  0.4526 -0.2218 -0.7421
   50MOL   H110 7068   2.040   1.059   1.944 -0.5780 -0.5491 -0.0846
   50MOL   H111 7069   1.916   0.912   2.177  0.5971  0.3645  0.4951
   50MOL   H112 7070   2.045   1.021   2.208  0.6475  0.9902 -1.1275
   50MOL   H113 7071   2.085   0.872   2.126 -0.4953 -1.3116  1.3251
   50MOL   C114 7072   1.866   0.939   1.801 -0.0296 -0.8049 -0.1731
   50MOL   C115 7073   1.976   0.880   1.715  0.0081  0.2176 -0.4088
   50MOL   O116 7074   1.739   0.897   1.752 -0.4419  0.0064 -1.3861
   50MOL   H117 7075   1.880   1.045   1.780  2.8679 -0.6445  2.0908
   50MOL   H118 7076   1.942   0.777   1.703  1.3873 -0.1508 -1.2337
   50MOL   H119 7077   2.076   0.879   1.756 -0.2397 -0.1685  0.1824
   50MOL   H120 7078   1.979   0.926   1.616 -0.7992  2.2459  0.4930
   50MOL   C121 7079   1.651   0.982   1.808 -0.0096  0.2584 -0.6853
   50MOL   C122 7080   1.600   1.076   1.700 -0.5805  0.8965  0.3874
   50MOL   O123 7081   1.542   0.898   1.854 -0.1120  0.2968 -0.2432
   50MOL   H124 7082   1.682   1.039   1.896 -1.7638 -0.1678  0.2212
   50MOL   H125 7083   1.524   1.144   1.738  0.5103  1.1927  2.0775
   50MOL   H126 7084   1.561   1.025   1.612  2.4822  0.7331 -0.9419
   50MOL   H127 7085   1.678   1.143   1.664  0.6334 -0.9949 -0.6107
   50MOL   C128 7086   1.544   0.871   1.993  0.1397 -0.0141 -0.6641
   50MOL   C129 7087   1.426   0.949   2.053 -0.2774 -0.0080 -0.1529
   50MOL   O130 7088   1.523   0.734   2.006 -0.2410 -0.3917  0.0253
   50MOL   H131 7089   1.639   0.907   2.031  0.9568 -1.8058 -0.9645
   50MOL   H132 7090   1.438   0.946   2.161  0.2428 -0.3073 -0.2197
   50MOL   H133 7091   1.332   0.909   2.016 -1.7949  1.7892  1.6285
   50MOL   H134 7092   1.417   1.056   2.034  0.6361  0.2486  0.8101
   50MOL   C135 7093   1.641   0.651   1.981 -0.4849 -0.2259 -0.2024
   50MOL   C136 7094   1.626   0.522   2.046 -0.0690  0.2301  0.3336
   50MOL   O137 7095   1.668   0.634   1.842  0.3302 -0.2922  0.0231
   50MOL   H138 7096   1.730   0.706   2.015 -0.3375 -1.1457  0.9230
   50MOL   H139 7097   1.711   0.464   2.010  0.6959  0.4776  1.7065
   50MOL   H140 7098   1.538   0.466   2.013  0.1382 -0.4809  0.9866
   50MOL   H141 7099   1.631   0.542   2.153 -1.0374  0.4494  0.3474
   50MOL   H142 7100   1.667   0.726   1.820 -1.2090 -0.5469 -1.0634
   51MOL     C1 7101   4.420   3.550   5.697  0.2386  0.2228 -0.1708
   51MOL     C2 7102   4.460   3.653   5.580  0.4504  0.2637 -0.4791
   51MOL     O3 7103   4.514   3.567   5.797 -0.1309  0.1816 -0.0895
   51MOL     H4 7104   4.430   3.448   5.660  1.7959 -0.0360  0.9228
   51MOL     H5 7105   4.555   3.622   5.536  0.9073  0.2518  0.5000
   51MOL     H6 7106   4.480   3.757   5.607 -1.3937  0.1783  1.3199
   51MOL     H7 7107   4.389   3.643   5.497 -1.5750 -0.6371  1.3121
   51MOL     H8 7108   4.318   3.562   5.733 -0.4942 -0.1458 -2.0959
   51MOL     C9 7109   4.481   3.513   5.917  0.1236 -0.3355 -0.5644
   51MOL    C10 7110   4.608   3.516   6.009  0.5172  0.5022  0.2713
   51MOL    O11 7111   4.375   3.585   5.977  0.3649 -0.1552 -0.5179
   51MOL    H12 7112   4.465   3.408   5.893  2.1781 -0.0959 -3.2509
   51MOL    H13 7113   4.694   3.467   5.963  0.2829 -0.1378  0.5069
   51MOL    H14 7114   4.591   3.454   6.096 -2.2248 -0.1238 -0.6452
   51MOL    H15 7115   4.633   3.613   6.052 -0.4405  0.1801  1.5875
   51MOL    C16 7116   4.281   3.507   6.047  0.2571 -0.5190 -0.0659
   51MOL    C17 7117   4.234   3.596   6.161  0.2654  0.9463 -0.6005
   51MOL    O18 7118   4.174   3.486   5.968  0.2773  0.0069 -0.6950
   51MOL    H19 7119   4.327   3.414   6.079 -1.6642 -0.6622  2.4056
   51MOL    H20 7120   4.196   3.546   6.249  2.2595 -0.9765 -0.7822
   51MOL    H21 7121   4.155   3.664   6.131  1.2413  2.5175  0.3580
   51MOL    H22 7122   4.326   3.645   6.192 -0.0044  1.1172 -0.0745
   51MOL    C23 7123   4.140   3.352   5.970  0.2612 -0.8864  0.1921
   51MOL    C24 7124   3.992   3.355   5.932 -0.1990 -0.1918 -0.3803
   51MOL    O25 7125   4.220   3.278   5.876 -0.2026 -0.5266  0.2157
   51MOL    H26 7126   4.140   3.320   6.074  0.0307 -0.5150  0.3073
   51MOL    H27 7127   3.972   3.420   5.847  1.8373  0.3839 -0.4605
   51MOL    H28 7128   3.928   3.378   6.018  0.3762 -0.1949  0.0563
   51MOL    H29 7129   3.979   3.252   5.901  1.0036 -0.4140 -0.1810
   51MOL    C30 7130   4.266   3.154   5.920  0.2469 -0.0661  0.5847
   51MOL    C31 7131   4.307   3.093   5.786  0.4762 -0.3195 -0.3709
   51MOL    O32 7132   4.382   3.175   5.996  0.5467 -0.1479  0.2634
   51MOL    H33 7133   4.191   3.101   5.978  0.7470 -1.2922  0.1328
   51MOL    H34 7134   4.346   2.991   5.792 -0.9119 -0.9744 -2.0371
   51MOL    H35 7135   4.394   3.142   5.744  1.7025 -1.2399  1.0542
   51MOL    H36 7136   4.221   3.094   5.719  0.7258 -0.7818 -0.7065
   51MOL    C37 7137   4.383   3.124   6.129 -0.2186 -0.5114 -0.0781
   51MOL    C38 7138   4.533   3.118   6.173 -0.4516 -0.0407  0.3130
   51MOL    O39 7139   4.323   3.214   6.216  0.2626 -0.5873 -0.2554
   51MOL    H40 7140   4.352   3.019   6.130  0.3881 -0.7021  2.5342
   51MOL    H41 7141   4.568   3.221   6.185  0.2911 -0.5723  2.9069
   51MOL    H42 7142   4.605   3.062   6.114 -0.6637 -0.9763  0.9308
   51MOL    H43 7143   4.537   3.077   6.274 -2.1533  0.9957  0.8324
   51MOL    C44 7144   4.263   3.158   6.327 -0.4415 -0.6972 -0.4157
   51MOL    C45 7145   4.322   3.230   6.452  0.5049 -0.2914 -0.3564
   51MOL    O46 7146   4.124   3.190   6.315 -0.5392 -0.0522  0.2966
   51MOL    H47 7147   4.280   3.050   6.334  0.2016 -0.5290  0.7476
   51MOL    H48 7148   4.422   3.199   6.482  1.6789  2.3701 -1.4055
   51MOL    H49 7149   4.254   3.216   6.536  1.6354 -0.0239  0.6078
   51MOL    H50 7150   4.318   3.339   6.447  1.9714 -0.0441  2.7693
   51MOL    C51 7151   4.036   3.079   6.294  0.2763  1.0201  0.0943
   51MOL    C52 7152   3.904   3.133   6.250  0.1714 -0.2360 -0.0290
   51MOL    O53 7153   4.082   2.992   6.196 -0.5227  0.0311  0.0921
   51MOL    H54 7154   4.037   3.040   6.396  1.7375  0.9071  0.0528
   51MOL    H55 7155   3.883   3.226   6.303 -0.3526 -0.7840  0.7319
   51MOL    H56 7156   3.826   3.060   6.271 -1.6149  1.7293  0.2285
   51MOL    H57 7157   3.906   3.148   6.142 -0.5464 -0.9446 -0.1480
   51MOL    C58 7158   4.060   2.858   6.219 -0.3468  0.4527 -0.6478
   51MOL    C59 7159   4.107   2.780   6.096  0.4994 -0.2513  0.0916
   51MOL    O60 7160   4.132   2.803   6.325 -0.3281  0.4260  0.2938
   51MOL    H61 7161   3.954   2.839   6.239 -0.2595  1.5746  0.9700
   51MOL    H62 7162   4.209   2.806   6.069  0.8072  1.2815  2.6141
   51MOL    H63 7163   4.039   2.808   6.015 -0.7435 -2.2237  0.4247
   51MOL    H64 7164   4.108   2.673   6.115  0.5667 -0.0606  1.2098
   51MOL    C65 7165   4.083   2.683   6.389  0.4047  0.0162  0.1379
   51MOL    C66 7166   4.201   2.606   6.452  0.5103 -0.4691 -0.3386
   51MOL    O67 7167   3.989   2.711   6.480 -0.2499  0.1842 -0.4419
   51MOL    H68 7168   4.038   2.628   6.307  2.3429 -0.9447 -0.2831
   51MOL    H69 7169   4.172   2.515   6.504 -0.9620 -0.2561 -0.7817
   51MOL    H70 7170   4.252   2.672   6.522 -0.7539 -1.7837  1.8816
   51MOL    H71 7171   4.268   2.571   6.372 -1.6349 -2.7627 -1.2138
   51MOL    C72 7172   3.877   2.635   6.475  0.1761 -0.6376  0.0842
   51MOL    C73 7173   3.801   2.662   6.605  0.1827 -0.4907 -0.3145
   51MOL    O74 7174   3.787   2.673   6.372 -0.0587  0.3112  0.5776
   51MOL    H75 7175   3.901   2.529   6.465 -0.3773 -0.7057 -0.6039
   51MOL    H76 7176   3.706   2.609   6.614 -1.2298  2.2958  1.8285
   51MOL    H77 7177   3.777   2.768   6.604  0.4047 -0.4439 -0.7931
   51MOL    H78 7178   3.870   2.654   6.689 -0.1725  0.3766  0.0618
   51MOL    C79 7179   3.736   2.563   6.292 -1.3322  0.4539 -0.3685
   51MOL    C80 7180   3.603   2.623   6.217 -0.0275  0.2912  0.3456
   51MOL    O81 7181   3.826   2.522   6.195 -0.0823 -0.6951 -0.2858
   51MOL    H82 7182   3.706   2.488   6.365 -0.2908  1.1545  0.7981
   51MOL    H83 7183   3.633   2.709   6.157 -0.3538 -0.2342 -0.5892
   51MOL    H84 7184   3.530   2.654   6.292  0.5316  4.3910 -0.6979
   51MOL    H85 7185   3.555   2.547   6.155  1.3798 -0.6056  0.3534
   51MOL    C86 7186   3.854   2.389   6.197 -0.2810  0.1813  0.3611
   51MOL    C87 7187   3.925   2.354   6.066  0.7443 -0.0348 -0.0797
   51MOL    O88 7188   3.931   2.354   6.308 -0.5883 -0.2093  0.6466
   51MOL    H89 7189   3.759   2.336   6.198 -0.0063 -0.3216  3.8744
   51MOL    H90 7190   4.000   2.428   6.038  1.5137 -0.9357 -0.4082
   51MOL    H91 7191   3.856   2.345   5.982  1.1852 -1.2297 -0.3175
   51MOL    H92 7192   3.968   2.254   6.068 -2.8554 -1.6469  1.8074
   51MOL    C93 7193   3.895   2.231   6.358 -0.1160 -0.2152 -0.1590
   51MOL    C94 7194   3.998   2.198   6.468  0.0822  0.1520  0.0712
   51MOL    O95 7195   3.767   2.233   6.415  0.2389  0.3358  0.1031
   51MOL    H96 7196   3.902   2.154   6.281 -0.7230  0.5985 -1.0303
   51MOL    H97 7197   3.966   2.112   6.527 -0.0967  0.3263  0.2312
   51MOL    H98 7198   4.023   2.283   6.531 -2.9326  0.7180  0.5696
   51MOL    H99 7199   4.094   2.178   6.421  0.9826 -0.4419  2.0912
   51MOL   C100 7200   3.681   2.124   6.388 -0.3207  0.1181  0.4116
   51MOL   C101 7201   3.615   2.071   6.523  0.6944 -0.2261  0.1447
   51MOL   O102 7202   3.575   2.175   6.309  0.0458  0.1339 -0.3480
   51MOL   H103 7203   3.734   2.043   6.338 -0.1062 -0.3791  1.4302
   51MOL   H104 7204   3.700   2.039   6.583  0.7936 -0.2446 -0.0059
   51MOL   H105 7205   3.540   1.993   6.508  2.7095 -1.9722 -1.0832
   51MOL   H106 7206   3.580   2.161   6.573 -0.9649 -0.7913  0.0498
   51MOL   C107 7207   3.551   2.091   6.195 -0.7384 -0.0110  0.1853
   51MOL   C108 7208   3.419   2.144   6.124 -0.0208 -0.0690 -0.2143
   51MOL   O109 7209   3.656   2.102   6.101 -0.0976  0.3161  0.5925
   51MOL   H110 7210   3.536   1.989   6.229  0.4758 -1.0687 -2.3200
   51MOL   H111 7211   3.326   2.104   6.164  0.6567 -1.3855  0.0652
   51MOL   H112 7212   3.428   2.131   6.016 -0.5342  1.6885 -0.4735
   51MOL   H113 7213   3.423   2.252   6.116  0.5508 -0.2024 -2.1381
   51MOL   C114 7214   3.679   1.990   6.026 -0.1190  0.0287  0.7754
   51MOL   C115 7215   3.808   2.015   5.948 -0.7950 -0.0794  0.0636
   51MOL   O116 7216   3.695   1.883   6.112  0.1095 -0.5771  0.3762
   51MOL   H117 7217   3.592   1.967   5.964 -1.1765  0.0662  2.2206
   51MOL   H118 7218   3.818   2.113   5.903  0.2851 -0.5131 -0.6701
   51MOL   H119 7219   3.806   1.950   5.860  1.8419  3.9366 -3.1748
   51MOL   H120 7220   3.897   1.981   6.002 -0.7920 -0.5839 -0.2512
   51MOL   C121 7221   3.671   1.754   6.064 -0.1631 -0.1132  0.3898
   51MOL   C122 7222   3.680   1.670   6.196 -0.2671  0.0554  0.2751
   51MOL   O123 7223   3.540   1.740   6.020 -0.0033  0.2726  0.0693
   51MOL   H124 7224   3.749   1.740   5.989 -0.6188  0.1974 -0.1442
   51MOL   H125 7225   3.677   1.567   6.161  1.3897 -0.1796  0.7803
   51MOL   H126 7226   3.601   1.681   6.269  1.6043  1.0834  2.1843
   51MOL   H127 7227   3.772   1.688   6.252  0.3507 -1.8571 -0.0724
   51MOL   C128 7228   3.534   1.678   5.894  0.4968 -0.0619 -0.6062
   51MOL   C129 7229   3.382   1.678   5.848 -0.7116  0.0364 -0.3087
   51MOL   O130 7230   3.603   1.751   5.797  0.1579  0.5241  0.6763
   51MOL   H131 7231   3.561   1.573   5.906 -0.3229 -0.2770 -0.5519
   51MOL   H132 7232   3.381   1.651   5.743  1.0569 -1.2431 -0.0184
   51MOL   H133 7233   3.341   1.778   5.857 -0.6838 -0.0558  0.9575
   51MOL   H134 7234   3.325   1.608   5.909  0.5311  0.5700  1.5273
   51MOL   C135 7235   3.669   1.674   5.699 -0.1887  0.4478 -0.4738
   51MOL   C136 7236   3.738   1.764   5.594  0.1401 -0.1835 -0.6446
   51MOL   O137 7237   3.766   1.586   5.750 -0.2277 -0.0922 -0.9963
   51MOL   H138 7238   3.590   1.609   5.661  0.0742 -1.6200  2.3290
   51MOL   H139 7239   3.812   1.818   5.654 -1.4409  1.5668 -0.2207
   51MOL   H140 7240   3.669   1.832   5.544 -2.3539 -1.2308  1.2522
   51MOL   H141 7241   3.795   1.713   5.517  0.1446 -0.9753 -0.1237
   51MOL   H142 7242   3.743   1.498   5.723 -0.3649 -0.2867 -0.2688
   52MOL     C1 7243   1.141   3.947   0.173 -0.0544  0.0088  0.0876
   52MOL     C2 7244   1.108   4.067   0.089 -0.3918 -0.5611  0.0274
   52MOL     O3 7245   1.037   3.857   0.153 -0.0349  0.1336  0.1212
   52MOL     H4 7246   1.140   3.993   0.272 -0.1966  1.4735 -0.5716
   52MOL     H5 7247   1.137   4.042   7.901 -1.0517 -1.1228 -0.0293
   52MOL     H6 7248   1.167   4.157   0.107  0.8171 -1.0918 -1.2245
   52MOL     H7 7249   1.000   4.085   0.092 -0.1608  0.7076  0.6556
   52MOL     H8 7250   1.236   3.902   0.144  0.4435  1.1279 -0.0699
   52MOL     C9 7251   1.016   3.763   0.254 -0.2368  0.0566  0.3149
   52MOL    C10 7252   0.899   3.814   0.336 -0.3436  1.0168 -0.0543
   52MOL    O11 7253   0.975   3.631   0.204 -0.5940  0.5234  0.0609
   52MOL    H12 7254   1.102   3.757   0.321  0.3241  0.7818 -0.3210
   52MOL    H13 7255   0.875   3.733   0.404 -0.2607  0.6355 -0.4759
   52MOL    H14 7256   0.818   3.820   0.264  0.7559 -0.2911 -1.4330
   52MOL    H15 7257   0.905   3.914   0.378 -0.2365  0.0539  2.2755
   52MOL    C16 7258   1.075   3.575   0.130 -0.2038 -0.1866  0.4954
   52MOL    C17 7259   1.158   3.489   0.223 -0.4013  0.4764 -0.2192
   52MOL    O18 7260   1.029   3.497   0.026 -0.4590  0.5746 -0.0861
   52MOL    H19 7261   1.139   3.651   0.085 -0.4289 -0.3614 -0.1326
   52MOL    H20 7262   1.236   3.439   0.165 -0.5570 -1.2141  1.0027
   52MOL    H21 7263   1.104   3.410   0.275 -1.4087  1.5104  0.3310
   52MOL    H22 7264   1.208   3.554   0.295 -2.4754  2.4034 -0.4660
   52MOL    C23 7265   1.005   3.564   7.821  0.3035 -0.6902  0.3118
   52MOL    C24 7266   1.125   3.531   7.728  0.1307  0.3570 -0.5471
   52MOL    O25 7267   0.882   3.527   7.758 -0.4956  0.0801  1.0374
   52MOL    H26 7268   1.008   3.673   7.826  0.4357 -0.6409 -0.8189
   52MOL    H27 7269   1.120   3.593   7.638 -0.4653 -1.8963 -2.0886
   52MOL    H28 7270   1.119   3.425   7.705  3.2231 -0.2312  1.0301
   52MOL    H29 7271   1.222   3.552   7.774 -0.4972 -0.0269  0.9776
   52MOL    C30 7272   0.767   3.573   7.826  0.2596  0.1661 -0.1971
   52MOL    C31 7273   0.729   3.714   7.777  0.5823  0.5020  0.3346
   52MOL    O32 7274   0.665   3.487   7.801 -0.2660  0.0490  0.2509
   52MOL    H33 7275   0.786   3.580   0.019 -3.1548  0.9447  0.4316
   52MOL    H34 7276   0.793   3.783   7.832 -0.6256  0.9758  1.1711
   52MOL    H35 7277   0.627   3.739   7.807 -0.8443 -2.0625 -2.1040
   52MOL    H36 7278   0.730   3.737   7.670  1.0251 -0.5524  0.1004
   52MOL    C37 7279   0.678   3.363   7.860 -0.4084 -0.7353 -0.3168
   52MOL    C38 7280   0.576   3.357   0.065  1.0627 -0.4633 -0.1354
   52MOL    O39 7281   0.645   3.264   7.774 -0.2313 -0.2217  0.2093
   52MOL    H40 7282   0.780   3.343   7.892  0.5720  0.5835 -2.4980
   52MOL    H41 7283   0.582   3.441   0.133  1.3542 -1.3193  0.9121
   52MOL    H42 7284   0.599   3.265   0.119 -0.8321 -2.0579 -1.9724
   52MOL    H43 7285   0.471   3.355   0.035  1.4667 -1.1780 -1.5502
   52MOL    C44 7286   0.744   3.217   7.687  0.3943  0.4070  0.2612
   52MOL    C45 7287   0.762   3.066   7.716 -0.3239  0.7084  0.0954
   52MOL    O46 7288   0.699   3.227   7.556 -0.1695 -0.0182  0.6563
   52MOL    H47 7289   0.839   3.268   7.702 -0.4906  2.4259 -0.8511
   52MOL    H48 7290   0.740   3.009   7.626  1.6582  0.5176 -0.3089
   52MOL    H49 7291   0.716   3.035   7.809 -1.6973  2.0524 -0.1015
   52MOL    H50 7292   0.868   3.063   7.743  0.2547 -0.4504 -2.1615
   52MOL    C51 7293   0.709   3.351   7.496 -0.4841 -0.0631  1.2313
   52MOL    C52 7294   0.807   3.318   7.380  0.1848 -0.3862 -0.3102
   52MOL    O53 7295   0.591   3.390   7.429  0.2857  0.1489  0.7595
   52MOL    H54 7296   0.755   3.425   7.561  1.2694 -0.9178  0.9785
   52MOL    H55 7297   0.763   3.237   7.323 -2.1830  0.5374  0.1456
   52MOL    H56 7298   0.899   3.291   7.433 -1.2021 -0.9246  1.8848
   52MOL    H57 7299   0.826   3.403   7.314 -1.6213  1.3441  1.3175
   52MOL    C58 7300   0.498   3.448   7.521  0.0987 -0.6322  0.3223
   52MOL    C59 7301   0.494   3.597   7.484 -0.2652  0.3790  0.2624
   52MOL    O60 7302   0.364   3.402   7.503 -0.0708 -0.2473 -0.1372
   52MOL    H61 7303   0.528   3.424   7.623  0.6581 -0.2403  0.2488
   52MOL    H62 7304   0.459   3.612   7.382 -1.6490 -2.8559  0.1969
   52MOL    H63 7305   0.593   3.640   7.502 -0.1341 -0.6392  2.0909
   52MOL    H64 7306   0.425   3.638   7.558  0.0403 -0.9015  1.2791
   52MOL    C65 7307   0.350   3.262   7.508 -0.1461 -0.6990  0.7148
   52MOL    C66 7308   0.278   3.231   7.639  0.3166  0.2780 -0.0410
   52MOL    O67 7309   0.265   3.222   7.403  0.4123  0.1692  0.2735
   52MOL    H68 7310   0.448   3.216   7.518  0.6135  0.7615  0.1911
   52MOL    H69 7311   0.181   3.279   7.650  0.6373  0.3316  3.1614
   52MOL    H70 7312   0.346   3.256   7.721  2.3766  1.0122 -1.9094
   52MOL    H71 7313   0.280   3.122   7.650  0.0781  0.0678 -1.9716
   52MOL    C72 7314   0.334   3.242   7.283 -0.6579 -0.0954  0.3492
   52MOL    C73 7315   0.416   3.123   7.243 -0.3378 -0.6557 -0.5842
   52MOL    O74 7316   0.237   3.276   7.186 -0.0862  0.1173 -0.0090
   52MOL    H75 7317   0.398   3.331   7.288 -1.5162  0.5178  0.6754
   52MOL    H76 7318   0.501   3.099   7.307 -2.4801 -0.1087  2.5276
   52MOL    H77 7319   0.444   3.139   7.139 -0.3173 -0.3989 -0.5412
   52MOL    H78 7320   0.359   3.031   7.237  0.6315 -1.3705  1.0113
   52MOL    C79 7321   0.181   3.408   7.199 -0.4003 -0.6442 -0.4594
   52MOL    C80 7322   0.278   3.511   7.130  0.4649  0.1446 -0.0406
   52MOL    O81 7323   0.058   3.410   7.137  0.4812  0.1906 -0.1920
   52MOL    H82 7324   0.180   3.427   7.306  2.3569  2.1539 -0.8531
   52MOL    H83 7325   0.305   3.474   7.031  0.9853 -1.7719  0.7881
   52MOL    H84 7326   0.369   3.534   7.184 -0.6764  0.3302  1.8682
   52MOL    H85 7327   0.222   3.603   7.111 -1.5383 -0.5849  2.1055
   52MOL    C86 7328   7.887   3.316   7.194  0.2445 -0.7043  0.1125
   52MOL    C87 7329   7.833   3.362   7.329 -0.4229 -0.3765 -0.2452
   52MOL    O88 7330   7.778   3.318   7.108 -0.1216  0.0453 -0.3323
   52MOL    H89 7331   0.017   3.217   7.201  0.6982 -0.5056  0.0811
   52MOL    H90 7332   7.768   3.449   7.323  1.6440  1.1742 -1.0866
   52MOL    H91 7333   0.001   3.369   7.401 -0.2559 -0.3640 -0.4387
   52MOL    H92 7334   7.771   3.283   7.371 -0.7981 -0.7284 -1.4639
   52MOL    C93 7335   7.802   3.249   6.989 -0.2439 -0.0739 -0.2736
   52MOL    C94 7336   7.734   3.112   6.987 -0.0878 -0.2492 -0.4286
   52MOL    O95 7337   7.742   3.313   6.876 -0.3887  0.2529  0.0060
   52MOL    H96 7338   7.909   3.237   6.972 -0.9495 -3.9971 -2.3411
   52MOL    H97 7339   7.764   3.059   6.897  1.0951  0.5068 -0.4964
   52MOL    H98 7340   7.626   3.113   7.002 -0.1014  3.0873 -0.3970
   52MOL    H99 7341   7.771   3.054   7.072  1.6451  4.4212  2.2155
   52MOL   C100 7342   7.774   3.444   6.859  0.0540 -0.2665 -0.0616
   52MOL   C101 7343   7.842   3.453   6.728 -0.8183 -0.1775 -0.3620
   52MOL   O102 7344   7.667   3.531   6.854  0.4009 -0.0617 -0.3573
   52MOL   H103 7345   7.847   3.476   6.933  0.1795 -1.1002  0.1747
   52MOL   H104 7346   7.782   3.407   6.649 -2.1179 -1.3634  1.2857
   52MOL   H105 7347   0.028   3.414   6.748 -1.6176 -0.7553  2.6909
   52MOL   H106 7348   7.868   3.557   6.711 -0.8023 -0.1133  0.0689
   52MOL   C107 7349   7.644   3.594   6.982  0.0861  0.2531  0.0371
   52MOL   C108 7350   7.700   3.736   6.966  0.4267  1.1755 -1.1566
   52MOL   O109 7351   7.508   3.603   7.011  0.5997  0.0230  0.3744
   52MOL   H110 7352   7.696   3.545   7.064  1.0107  0.7984 -0.2126
   52MOL   H111 7353   7.713   3.781   7.064  0.5950 -0.0443 -0.6086
   52MOL   H112 7354   7.642   3.797   6.896  0.0245  1.2047 -0.7918
   52MOL   H113 7355   7.798   3.720   6.919  0.2729  0.9578 -1.4044
   52MOL   C114 7356   7.457   3.485   7.061  0.2329 -0.9517 -0.5181
   52MOL   C115 7357   7.405   3.520   7.204 -0.3502  0.1348  0.1988
   52MOL   O116 7358   7.348   3.430   6.988 -0.2292 -0.7360 -0.6145
   52MOL   H117 7359   7.528   3.404   7.069 -1.0033 -1.9568  0.4428
   52MOL   H118 7360   7.350   3.440   7.254  0.0060  0.2454  0.7671
   52MOL   H119 7361   7.337   3.605   7.209 -0.1909  0.2644  0.1649
   52MOL   H120 7362   7.485   3.558   7.267 -2.1999  1.5813  1.7296
   52MOL   C121 7363   7.374   3.382   6.857  0.8972  0.2047 -0.4692
   52MOL   C122 7364   7.381   3.232   6.852  0.4182 -0.3626 -0.6309
   52MOL   O123 7365   7.275   3.430   6.762 -0.5414 -0.0650  0.0071
   52MOL   H124 7366   7.470   3.413   6.816  0.2248 -0.2310 -2.4391
   52MOL   H125 7367   7.286   3.178   6.860 -1.2731  2.3020 -1.8852
   52MOL   H126 7368   7.454   3.193   6.922 -0.0110  1.6363  0.9607
   52MOL   H127 7369   7.419   3.223   6.750 -1.1954 -2.4636 -1.0934
   52MOL   C128 7370   7.305   3.556   6.716  0.3326 -0.1069 -0.1204
   52MOL   C129 7371   7.319   3.536   6.568 -0.4052 -0.8278 -0.5419
   52MOL   O130 7372   7.190   3.629   6.742  0.1554 -0.6098 -0.3185
   52MOL   H131 7373   7.387   3.616   6.755  0.2247 -0.4848  0.6945
   52MOL   H132 7374   7.325   3.632   6.519  1.2575 -0.9674 -0.6346
   52MOL   H133 7375   7.229   3.495   6.523 -0.9221  0.1301 -0.3794
   52MOL   H134 7376   7.402   3.471   6.540 -0.4386  0.1051 -2.8986
   52MOL   C135 7377   7.177   3.665   6.873  0.7246  0.0114 -1.5681
   52MOL   C136 7378   7.099   3.799   6.870 -0.0072 -0.2950 -0.5888
   52MOL   O137 7379   7.101   3.573   6.948 -0.2980 -0.1287 -0.2579
   52MOL   H138 7380   7.267   3.686   6.932  0.2466 -1.5580 -0.2238
   52MOL   H139 7381   7.143   3.885   6.818  1.3203 -0.6357 -0.0436
   52MOL   H140 7382   7.094   3.834   6.973 -0.5980 -1.4901 -0.2015
   52MOL   H141 7383   6.999   3.793   6.827 -0.0821 -0.2655 -0.4171
   52MOL   H142 7384   7.172   3.516   6.972 -0.7833 -1.1566 -1.2205
   53MOL     C1 7385   5.807   5.859   6.307 -0.1017  0.3521 -0.0053
   53MOL     C2 7386   5.899   5.782   6.410  0.4096  0.4654 -0.0910
   53MOL     O3 7387   5.692   5.888   6.383 -0.4239  0.4843  0.0341
   53MOL     H4 7388   5.782   5.794   6.223 -0.5303  2.3691 -1.4530
   53MOL     H5 7389   5.856   5.691   6.453 -0.8979  0.4450 -1.3889
   53MOL     H6 7390   5.911   5.839   6.502 -0.7598  0.8231 -0.1522
   53MOL     H7 7391   5.996   5.755   6.369 -0.0026  1.3040 -1.6507
   53MOL     H8 7392   5.848   5.953   6.272 -0.1454  0.3902  0.0471
   53MOL     C9 7393   5.611   5.974   6.308 -0.1320  0.4546  0.8627
   53MOL    C10 7394   5.480   5.995   6.393  0.2093 -0.0081  0.1372
   53MOL    O11 7395   5.669   6.102   6.310 -0.2325 -0.5168 -0.3741
   53MOL    H12 7396   5.589   5.937   6.208 -0.3568  2.7793  0.0285
   53MOL    H13 7397   5.401   6.038   6.331 -0.7267 -0.8595  0.7174
   53MOL    H14 7398   5.491   6.052   6.485  3.4013  0.1152 -0.2763
   53MOL    H15 7399   5.440   5.895   6.413  1.5059 -0.3482  1.0951
   53MOL    C16 7400   5.643   6.182   6.202 -0.3590  0.2655 -0.4561
   53MOL    C17 7401   5.731   6.308   6.227 -0.3296 -0.6848 -0.0069
   53MOL    O18 7402   5.683   6.131   6.073  0.5267  0.1597 -0.4844
   53MOL    H19 7403   5.542   6.219   6.221 -1.0379 -1.1590 -1.2623
   53MOL    H20 7404   5.835   6.283   6.246  0.3333  2.7813  1.4103
   53MOL    H21 7405   5.697   6.356   6.319  0.5449 -2.1678  1.0962
   53MOL    H22 7406   5.726   6.378   6.144  1.9681 -1.6802 -1.0271
   53MOL    C23 7407   5.576   6.129   5.982  0.1024  0.1544  0.4054
   53MOL    C24 7408   5.628   6.100   5.838 -0.1682 -0.0728 -0.6800
   53MOL    O25 7409   5.463   6.054   6.023 -0.2359  0.0089 -0.0564
   53MOL    H26 7410   5.540   6.232   5.989  0.1384  0.0930  1.4997
   53MOL    H27 7411   5.668   5.999   5.830  0.1231 -0.3019  2.8291
   53MOL    H28 7412   5.710   6.170   5.826 -0.1150  0.4845  2.4310
   53MOL    H29 7413   5.543   6.117   5.772 -0.3636 -1.4081 -0.7870
   53MOL    C30 7414   5.339   6.084   5.959  0.3585 -0.6011  0.0612
   53MOL    C31 7415   5.237   5.985   6.024 -0.0159 -0.4105  0.1284
   53MOL    O32 7416   5.300   6.211   5.999  0.2243  0.2873 -0.0404
   53MOL    H33 7417   5.350   6.077   5.851 -1.0469  0.4004 -0.1708
   53MOL    H34 7418   5.279   5.887   6.001  2.3204  0.4200  0.6691
   53MOL    H35 7419   5.142   5.988   5.972 -0.5925  0.0933  1.1926
   53MOL    H36 7420   5.223   6.001   6.131 -0.9252 -0.1302 -0.0370
   53MOL    C37 7421   5.195   6.268   5.930 -0.0634 -0.4711 -1.1441
   53MOL    C38 7422   5.128   6.374   6.009  0.0120 -0.1269 -0.5189
   53MOL    O39 7423   5.244   6.333   5.817  0.4556  0.3810  0.5189
   53MOL    H40 7424   5.130   6.186   5.901 -0.5667  0.4131 -2.6346
   53MOL    H41 7425   5.064   6.335   6.088  1.0695 -0.9063 -0.0527
   53MOL    H42 7426   5.059   6.432   5.947  1.3438  2.4328  0.3189
   53MOL    H43 7427   5.199   6.440   6.060 -1.3961  1.0845 -0.0587
   53MOL    C44 7428   5.183   6.287   5.703 -0.2007  0.2278 -0.8579
   53MOL    C45 7429   5.208   6.385   5.581 -0.0576 -0.4947  0.1642
   53MOL    O46 7430   5.235   6.166   5.667 -0.3639  0.5605 -0.0406
   53MOL    H47 7431   5.077   6.277   5.725 -0.3516  0.6933 -1.3570
   53MOL    H48 7432   5.160   6.481   5.599  0.9391  0.0756 -0.1971
   53MOL    H49 7433   5.172   6.342   5.487  0.5973 -2.2192  0.6901
   53MOL    H50 7434   5.310   6.394   5.543  0.0956  0.6562  0.8284
   53MOL    C51 7435   5.151   6.075   5.615 -0.2354  0.4793 -0.4350
   53MOL    C52 7436   5.235   5.965   5.555  0.3073  0.4672 -0.4452
   53MOL    O53 7437   5.073   6.023   5.714  0.0178  0.0519 -0.1883
   53MOL    H54 7438   5.093   6.126   5.538 -1.6707 -0.5613 -0.0617
   53MOL    H55 7439   5.174   5.875   5.549  2.6533 -1.0695 -1.7324
   53MOL    H56 7440   5.297   5.923   5.634  0.8783  1.4971 -0.3315
   53MOL    H57 7441   5.305   5.984   5.473 -0.5922 -3.8400 -2.3022
   53MOL    C58 7442   4.950   5.976   5.673  0.1904  0.3282  0.2168
   53MOL    C59 7443   4.890   5.913   5.803 -0.2239 -0.0786 -0.1358
   53MOL    O60 7444   4.862   6.086   5.641 -0.4637 -0.2274 -0.1916
   53MOL    H61 7445   4.957   5.906   5.590  1.9599 -1.3800  1.7496
   53MOL    H62 7446   4.909   5.978   5.888 -2.5098 -2.4243  2.2718
   53MOL    H63 7447   4.911   5.807   5.809 -2.9170 -0.5857  1.2339
   53MOL    H64 7448   4.781   5.918   5.795 -0.2081 -1.1626 -1.1987
   53MOL    C65 7449   4.759   6.048   5.548 -0.6306 -0.2909  0.4657
   53MOL    C66 7450   4.667   6.172   5.521  0.3789 -0.3877  0.4424
   53MOL    O67 7451   4.817   6.002   5.431  0.2338  0.4536 -0.0285
   53MOL    H68 7452   4.690   5.971   5.584 -0.2942 -1.2814 -0.9745
   53MOL    H69 7453   4.587   6.149   5.452 -1.0214  3.1634  0.7640
   53MOL    H70 7454   4.726   6.260   5.496  0.2173 -0.7087 -1.1204
   53MOL    H71 7455   4.606   6.193   5.609  1.7595 -0.0579  1.3520
   53MOL    C72 7456   4.751   5.896   5.365 -0.4822 -0.2058  0.2149
   53MOL    C73 7457   4.794   5.874   5.223 -0.3105  0.4101  0.2218
   53MOL    O74 7458   4.779   5.780   5.439 -0.2778  0.5167  0.0079
   53MOL    H75 7459   4.645   5.923   5.368 -0.4899 -0.3040  1.0943
   53MOL    H76 7460   4.903   5.877   5.217 -0.1691 -1.3006  1.5128
   53MOL    H77 7461   4.752   5.950   5.157 -0.7259  1.5235  1.7608
   53MOL    H78 7462   4.769   5.776   5.183 -1.3492  0.8111 -0.1127
   53MOL    C79 7463   4.672   5.688   5.452  0.6437  0.5443  0.2981
   53MOL    C80 7464   4.738   5.546   5.468  0.0435 -0.7312 -0.0185
   53MOL    O81 7465   4.600   5.713   5.571 -0.2553  0.0713  0.2832
   53MOL    H82 7466   4.613   5.696   5.361  0.7410 -1.5105  0.0335
   53MOL    H83 7467   4.790   5.516   5.377  2.6370  3.7571 -0.1700
   53MOL    H84 7468   4.669   5.467   5.497 -0.8847 -0.3576 -1.1955
   53MOL    H85 7469   4.824   5.544   5.536  0.9956 -3.0107 -1.2602
   53MOL    C86 7470   4.464   5.719   5.546  0.1733 -0.1676 -0.5281
   53MOL    C87 7471   4.393   5.728   5.684 -0.2835 -0.8271  0.3502
   53MOL    O88 7472   4.422   5.821   5.459 -0.0183 -0.6945 -0.1610
   53MOL    H89 7473   4.431   5.623   5.506 -1.8702  0.5133 -0.5818
   53MOL    H90 7474   4.428   5.656   5.757 -0.1954  0.9262  2.0891
   53MOL    H91 7475   4.287   5.717   5.662 -0.1986  0.3748 -0.8122
   53MOL    H92 7476   4.416   5.826   5.726 -2.5554  0.8155 -2.0267
   53MOL    C93 7477   4.323   5.778   5.363 -0.0112  0.8767  0.5725
   53MOL    C94 7478   4.276   5.898   5.285  0.4608  0.4743  0.0673
   53MOL    O95 7479   4.365   5.683   5.269 -0.2539  0.3258 -0.0937
   53MOL    H96 7480   4.240   5.740   5.422 -0.0163 -0.2407 -0.1592
   53MOL    H97 7481   4.230   5.874   5.189 -0.0712 -0.3295  0.5303
   53MOL    H98 7482   4.366   5.951   5.251  0.0823 -0.1177 -1.9150
   53MOL    H99 7483   4.209   5.956   5.347  0.6217 -0.5044  1.1682
   53MOL   C100 7484   4.283   5.568   5.250  0.3580 -0.0003  0.0973
   53MOL   C101 7485   4.351   5.467   5.157 -0.1630  0.0911  0.1898
   53MOL   O102 7486   4.258   5.502   5.369 -0.1281 -0.3722 -0.6708
   53MOL   H103 7487   4.201   5.614   5.194  0.2508  0.8150  0.9239
   53MOL   H104 7488   4.291   5.376   5.156  0.0366 -0.0428  0.3908
   53MOL   H105 7489   4.448   5.445   5.201 -1.0371  0.0028  2.1539
   53MOL   H106 7490   4.351   5.515   5.059  1.0732  0.9075  0.5776
   53MOL   C107 7491   4.122   5.474   5.390 -0.2952  0.0554  0.0455
   53MOL   C108 7492   4.117   5.436   5.542  0.6014  0.1583  0.4859
   53MOL   O109 7493   4.047   5.585   5.375  0.4604  0.2415 -0.1376
   53MOL   H110 7494   4.101   5.390   5.324  1.5193 -0.5509  0.2236
   53MOL   H111 7495   4.024   5.388   5.569 -0.5246  2.5713  1.0056
   53MOL   H112 7496   4.119   5.524   5.606  0.3078  0.6336 -0.1547
   53MOL   H113 7497   4.203   5.370   5.555  1.1927  1.0101  0.9681
   53MOL   C114 7498   3.925   5.577   5.307 -0.2657  0.2000 -0.6434
   53MOL   C115 7499   3.840   5.685   5.372 -0.2919 -0.2042  1.1236
   53MOL   O116 7500   3.925   5.604   5.165  0.2334  0.0983  0.0500
   53MOL   H117 7501   3.886   5.481   5.340  0.2611  0.4008  0.5946
   53MOL   H118 7502   3.743   5.686   5.324  1.1613 -0.1690 -1.9204
   53MOL   H119 7503   3.881   5.785   5.359 -2.1194  0.3891 -0.1575
   53MOL   H120 7504   3.831   5.676   5.481 -0.3460 -0.1325  1.1251
   53MOL   C121 7505   3.888   5.493   5.091  0.5275  0.0344 -0.8838
   53MOL   C122 7506   3.890   5.525   4.948  0.5644  0.5529 -0.4283
   53MOL   O123 7507   3.980   5.395   5.125  0.1384 -0.3643  0.5863
   53MOL   H124 7508   3.789   5.459   5.121  0.9483 -0.8533 -0.4942
   53MOL   H125 7509   3.868   5.437   4.887 -0.4284  0.7552 -0.3687
   53MOL   H126 7510   3.992   5.537   4.910 -0.1277 -2.5647 -3.4829
   53MOL   H127 7511   3.828   5.613   4.931  0.8945  0.8739  0.0237
   53MOL   C128 7512   3.965   5.270   5.069 -0.0235 -0.3396 -0.0877
   53MOL   C129 7513   4.054   5.175   5.145  0.2526  0.0388 -0.0256
   53MOL   O130 7514   3.835   5.222   5.073  0.8488 -0.2476 -0.2446
   53MOL   H131 7515   3.994   5.277   4.964  0.2010  1.5616  0.0925
   53MOL   H132 7516   4.048   5.075   5.102 -1.8836  1.2163 -2.5824
   53MOL   H133 7517   4.032   5.172   5.252  3.7313 -1.9318  0.7181
   53MOL   H134 7518   4.158   5.202   5.124 -1.0240  3.3024 -2.5516
   53MOL   C135 7519   3.800   5.118   4.977 -0.3311 -0.1614  0.2821
   53MOL   C136 7520   3.660   5.079   5.014 -0.2871  0.1810 -0.2642
   53MOL   O137 7521   3.794   5.171   4.843 -0.2904 -0.5376  0.1598
   53MOL   H138 7522   3.867   5.032   4.975  2.0564  1.6796 -2.7220
   53MOL   H139 7523   3.665   5.041   5.116 -0.3168 -1.6919 -0.9317
   53MOL   H140 7524   3.631   4.991   4.957 -2.9611 -0.1200  1.4972
   53MOL   H141 7525   3.595   5.165   5.001 -0.4376  0.1355  0.1929
   53MOL   H142 7526   3.734   5.244   4.844  1.9999  1.4066  0.5578
   54MOL     C1 7527   1.410   0.291   2.428 -0.0087 -0.4918  0.0498
   54MOL     C2 7528   1.386   0.325   2.282 -0.4350  0.1126 -0.4198
   54MOL     O3 7529   1.534   0.360   2.458  0.2714  0.3229 -0.0593
   54MOL     H4 7530   1.429   0.184   2.436  1.2241 -0.2555  0.5395
   54MOL     H5 7531   1.320   0.258   2.226  0.6923 -1.3973  0.0325
   54MOL     H6 7532   1.480   0.310   2.229 -0.4648  0.6607 -0.6271
   54MOL     H7 7533   1.359   0.427   2.256  1.2545  0.9919  1.1453
   54MOL     H8 7534   1.329   0.309   2.498  1.3052 -0.9729  1.7171
   54MOL     C9 7535   1.600   0.325   2.567  0.1793 -0.0320 -0.5835
   54MOL    C10 7536   1.684   0.201   2.531  0.1056 -0.0683 -0.4734
   54MOL    O11 7537   1.681   0.429   2.616  0.0390  0.0361 -0.2639
   54MOL    H12 7538   1.533   0.288   2.645  1.6832 -2.3283 -0.3597
   54MOL    H13 7539   1.622   0.114   2.510 -1.7981  1.2187 -0.2765
   54MOL    H14 7540   1.763   0.177   2.601 -0.6918  0.0986  0.4877
   54MOL    H15 7541   1.739   0.230   2.441  1.8953 -1.4848  0.1431
   54MOL    C16 7542   1.606   0.550   2.637  0.7954  0.0562  0.0148
   54MOL    C17 7543   1.603   0.574   2.786 -0.2101  0.5395  0.1046
   54MOL    O18 7544   1.665   0.657   2.576 -0.1458  0.0155  0.2356
   54MOL    H19 7545   1.504   0.535   2.603  0.8581 -1.1264  0.3185
   54MOL    H20 7546   1.540   0.497   2.830  0.6125 -0.3103 -0.2053
   54MOL    H21 7547   1.577   0.678   2.808 -1.0808  0.7909 -2.0338
   54MOL    H22 7548   1.705   0.562   2.822  0.1670  1.5884 -0.5817
   54MOL    C23 7549   1.674   0.653   2.431  0.3311 -0.2230  0.1371
   54MOL    C24 7550   1.551   0.720   2.368  0.2704  0.3628  0.0631
   54MOL    O25 7551   1.787   0.733   2.398 -0.0552 -0.0790  0.5295
   54MOL    H26 7552   1.695   0.550   2.403  0.8673 -0.1556  0.2822
   54MOL    H27 7553   1.589   0.787   2.291  0.2963 -0.3302 -0.5320
   54MOL    H28 7554   1.499   0.769   2.450 -0.1272  0.6090 -0.3346
   54MOL    H29 7555   1.480   0.645   2.333 -1.7776  2.8501 -1.2605
   54MOL    C30 7556   1.911   0.679   2.431  0.5086 -0.7891 -0.2188
   54MOL    C31 7557   1.974   0.618   2.309 -0.2216 -0.2237 -0.2769
   54MOL    O32 7558   2.000   0.780   2.479  0.0824 -0.2210 -0.1162
   54MOL    H33 7559   1.896   0.595   2.498 -1.4792 -2.2100 -2.3375
   54MOL    H34 7560   2.017   0.693   2.243 -0.9489 -0.3326 -0.8842
   54MOL    H35 7561   1.911   0.549   2.253  0.0314 -0.6741 -0.0124
   54MOL    H36 7562   2.065   0.567   2.340  0.9787  1.1120 -1.5459
   54MOL    C37 7563   1.993   0.830   2.610  0.2762  0.0686  0.1797
   54MOL    C38 7564   2.133   0.823   2.672  0.1648 -0.0682  0.0924
   54MOL    O39 7565   1.954   0.964   2.612 -0.6015 -0.0858 -0.5443
   54MOL    H40 7566   1.927   0.765   2.667  0.7644  1.1962  2.0915
   54MOL    H41 7567   2.134   0.854   2.776 -1.3063 -4.4030  1.4858
   54MOL    H42 7568   2.200   0.893   2.623 -0.4859  2.8064  3.1506
   54MOL    H43 7569   2.173   0.721   2.675  2.5740  0.8623  1.3805
   54MOL    C44 7570   1.819   0.987   2.597  0.0576  0.2493  0.1491
   54MOL    C45 7571   1.761   0.982   2.741 -0.1302 -0.2465 -0.3318
   54MOL    O46 7572   1.788   1.108   2.547 -0.4755 -0.3390  0.6204
   54MOL    H47 7573   1.776   0.899   2.550  1.5202  0.3323 -1.4124
   54MOL    H48 7574   1.821   1.047   2.805  0.2426 -1.7379  0.8714
   54MOL    H49 7575   1.775   0.884   2.789  0.4923 -0.8093 -1.6401
   54MOL    H50 7576   1.659   1.018   2.753 -0.8648 -1.8019 -1.6663
   54MOL    C51 7577   1.831   1.121   2.415 -0.3720  0.0374  0.2517
   54MOL    C52 7578   1.707   1.106   2.337  0.0855  0.8984  1.6415
   54MOL    O53 7579   1.879   1.249   2.391 -0.6665  0.4916 -0.3284
   54MOL    H54 7580   1.909   1.051   2.388 -1.0321 -0.5753 -0.0841
   54MOL    H55 7581   1.643   1.025   2.371 -1.6380  0.9516 -1.2353
   54MOL    H56 7582   1.727   1.083   2.232 -0.5047 -0.4020  1.8083
   54MOL    H57 7583   1.642   1.190   2.364 -0.9840 -0.1364  2.3232
   54MOL    C58 7584   1.987   1.277   2.472 -0.2289  0.2113  0.5519
   54MOL    C59 7585   2.088   1.343   2.379  0.1620  0.0725  0.7878
   54MOL    O60 7586   1.963   1.386   2.561  0.1661  0.0730 -0.3600
   54MOL    H61 7587   2.028   1.195   2.531  0.2755 -0.7343 -1.0875
   54MOL    H62 7588   2.115   1.265   2.307 -0.7724 -0.9443  1.5206
   54MOL    H63 7589   2.172   1.375   2.440  1.6960 -0.6061 -0.9294
   54MOL    H64 7590   2.044   1.430   2.329  0.6291  0.2975  0.7724
   54MOL    C65 7591   1.909   1.352   2.687  0.5506 -0.2041 -0.1785
   54MOL    C66 7592   2.012   1.377   2.794 -0.0391  0.4214  0.2502
   54MOL    O67 7593   1.801   1.432   2.728 -0.5402 -0.0837 -0.2858
   54MOL    H68 7594   1.878   1.248   2.696 -1.6906  0.1718 -2.8777
   54MOL    H69 7595   1.977   1.346   2.893 -0.2090 -0.3177 -0.0414
   54MOL    H70 7596   2.043   1.482   2.796  0.9594  0.1254  0.9766
   54MOL    H71 7597   2.101   1.321   2.763 -0.8583 -0.8159  0.1264
   54MOL    C72 7598   1.693   1.419   2.643 -0.1593  0.8375  0.2416
   54MOL    C73 7599   1.571   1.367   2.723  0.1123 -0.1420 -0.4818
   54MOL    O74 7600   1.663   1.545   2.590 -0.0011  0.2926  0.1179
   54MOL    H75 7601   1.718   1.355   2.558  3.8697  1.1488  1.1154
   54MOL    H76 7602   1.582   1.266   2.763 -0.3086  0.0280  0.0713
   54MOL    H77 7603   1.476   1.375   2.670 -0.4116 -1.8372  0.1486
   54MOL    H78 7604   1.564   1.428   2.813  0.3708 -0.4600 -0.2439
   54MOL    C79 7605   1.739   1.583   2.475 -0.0436  0.4448 -0.0631
   54MOL    C80 7606   1.646   1.583   2.361 -0.1700 -1.0408  1.0633
   54MOL    O81 7607   1.788   1.712   2.483 -0.0532  0.3991 -0.5418
   54MOL    H82 7608   1.823   1.517   2.453 -0.6650  0.0793 -1.4423
   54MOL    H83 7609   1.559   1.646   2.378 -1.1528 -2.1408  0.2279
   54MOL    H84 7610   1.619   1.479   2.343 -2.6860 -0.0044 -1.5718
   54MOL    H85 7611   1.708   1.612   2.276  0.4645 -1.7446  1.2739
   54MOL    C86 7612   1.901   1.729   2.574 -0.1470 -0.4243  0.0900
   54MOL    C87 7613   2.026   1.739   2.483  0.5531  0.1156 -0.1861
   54MOL    O88 7614   1.892   1.837   2.655 -0.4172 -0.5895  0.1254
   54MOL    H89 7615   1.912   1.640   2.636 -1.8106 -0.6656  0.0778
   54MOL    H90 7616   2.036   1.841   2.446  0.6504  1.2928  2.8778
   54MOL    H91 7617   2.015   1.666   2.403  0.6952 -0.1228  0.0114
   54MOL    H92 7618   2.121   1.713   2.530 -0.0536 -0.7624  0.5873
   54MOL    C93 7619   1.794   1.833   2.759  1.0090 -0.0136 -0.0754
   54MOL    C94 7620   1.870   1.870   2.890 -0.4992 -0.1343  0.0284
   54MOL    O95 7621   1.697   1.931   2.732 -0.3186  0.3385  0.0980
   54MOL    H96 7622   1.744   1.737   2.771 -2.8159  1.8695 -0.2257
   54MOL    H97 7623   1.918   1.965   2.868  0.3751 -0.3850  0.8609
   54MOL    H98 7624   1.944   1.794   2.914  1.2180  2.0654  1.8893
   54MOL    H99 7625   1.790   1.869   2.964  1.5975  2.1846  2.4221
   54MOL   C100 7626   1.579   1.876   2.679  0.1008 -0.2287  0.6153
   54MOL   C101 7627   1.488   1.836   2.797 -0.2984 -0.0846 -0.5192
   54MOL   O102 7628   1.502   1.968   2.601  0.0227 -0.3430  0.4836
   54MOL   H103 7629   1.584   1.789   2.614  1.6978  1.9652 -2.2827
   54MOL   H104 7630   1.490   1.911   2.875  0.5638 -1.4737  0.8085
   54MOL   H105 7631   1.517   1.738   2.835 -2.1589 -0.8301 -0.9829
   54MOL   H106 7632   1.384   1.832   2.766 -0.1749  2.5569 -1.4587
   54MOL   C107 7633   1.568   2.004   2.483 -0.2483  0.1064 -0.4305
   54MOL   C108 7634   1.477   1.958   2.365 -0.0420  0.4255  0.2089
   54MOL   O109 7635   1.575   2.144   2.474 -0.4796 -0.7692  0.1377
   54MOL   H110 7636   1.665   1.954   2.489 -1.0026 -1.3033  0.2856
   54MOL   H111 7637   1.455   1.852   2.372 -2.0615  0.8074  0.0535
   54MOL   H112 7638   1.514   1.977   2.264  3.0980 -1.4103  0.9489
   54MOL   H113 7639   1.376   1.999   2.375 -0.9618 -1.1804 -2.1366
   54MOL   C114 7640   1.667   2.210   2.549  0.3945  0.6388  0.0368
   54MOL   C115 7641   1.747   2.283   2.442 -0.5835 -0.0504  0.1045
   54MOL   O116 7642   1.602   2.305   2.627 -0.3068 -0.2039  0.0912
   54MOL   H117 7643   1.732   2.141   2.603  2.2132 -0.2373 -3.1579
   54MOL   H118 7644   1.809   2.206   2.397 -2.2398 -1.2866 -0.1132
   54MOL   H119 7645   1.808   2.359   2.491 -2.4068  0.7922  1.1377
   54MOL   H120 7646   1.683   2.327   2.366  0.5455  1.1737 -0.1579
   54MOL   C121 7647   1.563   2.266   2.753 -0.1803  0.4361  0.0015
   54MOL   C122 7648   1.676   2.304   2.848  0.1778  0.4848  0.7885
   54MOL   O123 7649   1.450   2.334   2.793  0.5189 -0.2946  0.5970
   54MOL   H124 7650   1.546   2.159   2.765 -0.1537  0.5330  1.0178
   54MOL   H125 7651   1.688   2.412   2.838 -0.8850  0.3651 -2.2179
   54MOL   H126 7652   1.772   2.259   2.820  1.3323  1.3780  3.1985
   54MOL   H127 7653   1.651   2.275   2.950  1.2252 -1.6966  0.4556
   54MOL   C128 7654   1.333   2.271   2.738  0.1909 -0.7046 -0.2339
   54MOL   C129 7655   1.283   2.167   2.837  0.1057 -0.5857  0.2830
   54MOL   O130 7656   1.228   2.362   2.713 -0.0658  0.1824 -0.7227
   54MOL   H131 7657   1.361   2.218   2.647  0.4669 -0.8350 -0.0730
   54MOL   H132 7658   1.239   2.207   2.928  0.2263  1.5205 -0.5435
   54MOL   H133 7659   1.369   2.109   2.870  0.9726  0.8605  0.5849
   54MOL   H134 7660   1.207   2.114   2.779  0.0446  1.2656 -1.3829
   54MOL   C135 7661   1.254   2.441   2.604  0.0818 -0.1533  0.6349
   54MOL   C136 7662   1.158   2.552   2.595 -0.3841 -0.6510 -0.1484
   54MOL   O137 7663   1.385   2.500   2.587  0.2291 -0.2521  0.0940
   54MOL   H138 7664   1.245   2.384   2.511  1.0251  0.8098 -0.0500
   54MOL   H139 7665   1.174   2.613   2.684  0.0596 -0.5294 -0.3101
   54MOL   H140 7666   1.053   2.523   2.589  0.3025 -3.8287  2.1265
   54MOL   H141 7667   1.182   2.610   2.506 -0.0138  1.2154  1.1356
   54MOL   H142 7668   1.442   2.428   2.611  0.0293 -0.6099 -0.4762
   55MOL     C1 7669   5.248   1.409   6.240  0.6654  0.5016  0.1400
   55MOL     C2 7670   5.297   1.338   6.364 -0.0105 -0.3988 -0.0793
   55MOL     O3 7671   5.199   1.536   6.287 -0.5406  0.8502 -0.1590
   55MOL     H4 7672   5.168   1.350   6.195 -0.8004  1.4146  1.4812
   55MOL     H5 7673   5.285   1.231   6.352 -0.9504 -0.2202 -0.7854
   55MOL     H6 7674   5.226   1.368   6.441  0.4309  1.1878 -0.2650
   55MOL     H7 7675   5.400   1.362   6.390 -0.3631 -0.9825  1.9316
   55MOL     H8 7676   5.332   1.428   6.173  1.2837 -0.8247  0.5284
   55MOL     C9 7677   5.151   1.625   6.193 -0.3085  0.7169 -0.0586
   55MOL    C10 7678   5.252   1.661   6.089  0.4527 -0.1913 -0.0184
   55MOL    O11 7679   5.027   1.576   6.136 -0.3355  0.2461  0.1707
   55MOL    H12 7680   5.131   1.717   6.248 -1.5175  0.9225 -0.8152
   55MOL    H13 7681   5.335   1.703   6.144  0.7352 -0.5553 -0.1671
   55MOL    H14 7682   5.199   1.735   6.029  2.4578  0.2990 -1.2275
   55MOL    H15 7683   5.270   1.574   6.026  0.4805 -0.7242  0.7173
   55MOL    C16 7684   4.915   1.568   6.228  0.3614 -0.0370  0.3115
   55MOL    C17 7685   4.837   1.689   6.245 -0.5008 -0.5041  0.1073
   55MOL    O18 7686   4.826   1.475   6.197 -0.0840  0.0128  0.3270
   55MOL    H19 7687   4.954   1.554   6.329  0.5157  0.5080  0.3264
   55MOL    H20 7688   4.905   1.763   6.288 -2.2097 -1.0378  3.9588
   55MOL    H21 7689   4.753   1.681   6.314  1.3406  0.4949  2.5349
   55MOL    H22 7690   4.796   1.715   6.147 -0.3628  0.4724  0.3051
   55MOL    C23 7691   4.860   1.348   6.246 -0.1793 -0.2824  0.1458
   55MOL    C24 7692   4.766   1.312   6.360  0.2300  0.3292  0.4108
   55MOL    O25 7693   4.830   1.251   6.147  0.0180 -0.1451 -0.7179
   55MOL    H26 7694   4.966   1.341   6.272 -0.0097 -1.7024 -0.8593
   55MOL    H27 7695   4.767   1.374   6.449 -0.3134  0.9569 -0.0128
   55MOL    H28 7696   4.790   1.211   6.392 -0.3100  0.2213  0.4883
   55MOL    H29 7697   4.665   1.310   6.319 -0.7068 -1.7343  2.7041
   55MOL    C30 7698   4.924   1.244   6.045 -0.5318 -0.4809  0.0704
   55MOL    C31 7699   5.016   1.126   6.080  0.7436 -0.8425  0.0119
   55MOL    O32 7700   4.852   1.238   5.921  0.0410  0.6693 -0.2790
   55MOL    H33 7701   4.988   1.332   6.044 -1.2249  0.0706  1.9349
   55MOL    H34 7702   4.964   1.033   6.055  0.0154 -0.5331  0.3650
   55MOL    H35 7703   5.046   1.129   6.185  0.2257 -1.3013  0.1757
   55MOL    H36 7704   5.103   1.132   6.015 -0.1497  2.0078 -0.9870
   55MOL    C37 7705   4.768   1.350   5.894  0.3720  0.2865  0.4790
   55MOL    C38 7706   4.825   1.398   5.760 -0.1375  0.1730  0.0744
   55MOL    O39 7707   4.637   1.309   5.862  0.3585  0.0719  0.6036
   55MOL    H40 7708   4.777   1.436   5.961 -0.5997 -1.5165  2.9718
   55MOL    H41 7709   4.828   1.324   5.680 -0.5976 -0.7048  0.8472
   55MOL    H42 7710   4.926   1.434   5.779  0.9980 -2.2391 -1.0603
   55MOL    H43 7711   4.769   1.487   5.734 -1.4084 -0.1637  1.5243
   55MOL    C44 7712   4.576   1.236   5.961 -0.0116 -0.5648  0.1071
   55MOL    C45 7713   4.487   1.322   6.044  0.3204  0.4556 -0.5088
   55MOL    O46 7714   4.491   1.138   5.903 -0.1534  0.2433 -0.0026
   55MOL    H47 7715   4.647   1.187   6.027 -1.3893  0.0275  2.0712
   55MOL    H48 7716   4.414   1.365   5.975  0.8010 -0.2614 -1.4721
   55MOL    H49 7717   4.535   1.412   6.084 -0.0397  0.3253  0.2261
   55MOL    H50 7718   4.449   1.258   6.123 -0.6512  0.7285 -0.7508
   55MOL    C51 7719   4.562   1.040   5.845 -0.4971  0.2216  0.5377
   55MOL    C52 7720   4.556   0.916   5.936 -0.4842 -0.2318 -0.3675
   55MOL    O53 7721   4.492   1.005   5.728 -0.2480 -0.7030 -0.0834
   55MOL    H54 7722   4.667   1.059   5.827 -0.1908 -0.4395  1.6050
   55MOL    H55 7723   4.581   0.940   6.039  0.4241 -2.8066  0.0584
   55MOL    H56 7724   4.628   0.837   5.915  0.3960  0.8333 -1.3905
   55MOL    H57 7725   4.458   0.869   5.948 -1.0989  1.6073  2.2382
   55MOL    C58 7726   4.497   1.116   5.633  0.3789 -0.1126 -0.0634
   55MOL    C59 7727   4.620   1.104   5.546  0.2467 -0.6750  0.0699
   55MOL    O60 7728   4.390   1.099   5.544  0.3901  0.9939 -0.5774
   55MOL    H61 7729   4.489   1.212   5.684 -0.2754  0.1693 -0.6827
   55MOL    H62 7730   4.609   1.164   5.456  2.1942  2.1181  1.6172
   55MOL    H63 7731   4.624   0.998   5.521  1.0134 -0.5000 -0.5661
   55MOL    H64 7732   4.698   1.140   5.613 -2.3227  0.7283  2.3852
   55MOL    C65 7733   4.264   1.118   5.612 -0.2197 -0.0047 -0.3098
   55MOL    C66 7734   4.190   1.241   5.565  0.0182 -0.9884  0.1341
   55MOL    O67 7735   4.183   1.007   5.588  0.3663  0.6581  0.1177
   55MOL    H68 7736   4.273   1.131   5.720 -0.7330  2.9436 -0.5762
   55MOL    H69 7737   4.163   1.217   5.462 -4.2259  1.3044  0.6164
   55MOL    H70 7738   4.249   1.332   5.554 -2.7524  1.1304  2.2189
   55MOL    H71 7739   4.104   1.271   5.624 -0.0326 -2.5146  0.8575
   55MOL    C72 7740   4.196   0.906   5.683  0.3176  0.0019 -0.4832
   55MOL    C73 7741   4.059   0.894   5.750 -0.5360 -0.6867 -1.0242
   55MOL    O74 7742   4.218   0.786   5.626 -0.0699 -0.1745 -0.3451
   55MOL    H75 7743   4.280   0.917   5.752  0.9472 -1.5215 -0.9959
   55MOL    H76 7744   3.976   0.884   5.679 -1.9415  0.3314  0.4551
   55MOL    H77 7745   4.044   0.992   5.794 -2.0274  0.0268 -3.0037
   55MOL    H78 7746   4.060   0.824   5.833  1.9684 -1.0020 -1.2678
   55MOL    C79 7747   4.347   0.764   5.583 -0.0268 -0.1322  0.8612
   55MOL    C80 7748   4.422   0.678   5.672  0.0288  0.4228  0.2072
   55MOL    O81 7749   4.332   0.698   5.456  0.5854 -0.0262  0.2174
   55MOL    H82 7750   4.397   0.858   5.560  0.4653 -0.6459 -0.2184
   55MOL    H83 7751   4.522   0.668   5.631 -0.0796 -1.6128  0.3907
   55MOL    H84 7752   4.378   0.581   5.695 -2.1525  1.8056  2.0889
   55MOL    H85 7753   4.424   0.732   5.767 -0.3925 -1.4128  1.3039
   55MOL    C86 7754   4.293   0.782   5.344 -0.2554 -0.0361 -0.0140
   55MOL    C87 7755   4.394   0.762   5.228 -0.1271 -0.6977 -0.3802
   55MOL    O88 7756   4.168   0.737   5.290 -0.3122  0.0502  0.2965
   55MOL    H89 7757   4.292   0.890   5.361 -1.2353  0.0181 -0.3711
   55MOL    H90 7758   4.496   0.788   5.258 -1.2667  1.0147  2.2578
   55MOL    H91 7759   4.365   0.833   5.151  0.5808 -1.1825 -1.0888
   55MOL    H92 7760   4.391   0.657   5.198  1.0767 -1.4575  2.0110
   55MOL    C93 7761   4.057   0.801   5.343 -0.0452 -0.3933 -0.5340
   55MOL    C94 7762   4.022   0.920   5.257  0.7026  0.0533 -0.3669
   55MOL    O95 7763   3.947   0.717   5.329  0.0591 -0.5416  0.2401
   55MOL    H96 7764   4.073   0.821   5.449 -0.5020 -1.3884 -0.2658
   55MOL    H97 7765   3.930   0.958   5.302  0.9425 -1.9350  1.9182
   55MOL    H98 7766   3.991   0.889   5.158 -0.5374 -0.5369  0.1927
   55MOL    H99 7767   4.105   0.990   5.260  0.9723 -0.2925  0.2478
   55MOL   C100 7768   3.960   0.611   5.423 -0.7015 -0.9650 -0.6690
   55MOL   C101 7769   3.863   0.642   5.539 -0.2558 -0.3117  0.1786
   55MOL   O102 7770   3.904   0.494   5.370  0.0841  0.4058  0.1628
   55MOL   H103 7771   4.061   0.580   5.451 -1.5320 -2.3078  0.9145
   55MOL   H104 7772   3.765   0.599   5.514 -0.2265  0.4831 -1.4035
   55MOL   H105 7773   3.854   0.749   5.554 -0.6699 -0.1065 -1.3715
   55MOL   H106 7774   3.902   0.607   5.635 -0.9011  1.4758  1.1048
   55MOL   C107 7775   3.998   0.412   5.299 -0.4084 -0.7299 -0.0482
   55MOL   C108 7776   4.024   0.274   5.374  0.4165 -0.1194 -0.7781
   55MOL   O109 7777   3.951   0.372   5.177 -0.4166 -0.4570  0.2213
   55MOL   H110 7778   4.097   0.453   5.279 -0.1417 -1.2364  0.2322
   55MOL   H111 7779   3.928   0.236   5.412  0.7426  0.6174  0.8418
   55MOL   H112 7780   4.091   0.297   5.457 -0.2138  1.8337 -0.7814
   55MOL   H113 7781   4.065   0.207   5.299 -0.9668 -0.3654 -1.3466
   55MOL   C114 7782   3.964   0.464   5.082 -0.1944  0.1263 -0.1109
   55MOL   C115 7783   4.069   0.423   4.984  0.8556 -0.3001 -0.1577
   55MOL   O116 7784   3.850   0.484   5.003 -0.0154  1.1330 -0.0397
   55MOL   H117 7785   3.982   0.566   5.117 -0.8064  0.0777  0.3485
   55MOL   H118 7786   4.027   0.335   4.935 -0.2486 -1.1077  2.1790
   55MOL   H119 7787   4.163   0.385   5.026  2.0451 -0.2812 -2.7245
   55MOL   H120 7788   4.088   0.506   4.916 -1.1345 -0.2479 -0.6557
   55MOL   C121 7789   3.738   0.532   5.067  0.5670  0.7173  0.5385
   55MOL   C122 7790   3.711   0.665   4.986 -0.3892  0.4260 -0.3536
   55MOL   O123 7791   3.632   0.441   5.048  0.7161  0.5249  0.2977
   55MOL   H124 7792   3.758   0.556   5.172 -0.4780  0.0969  0.8910
   55MOL   H125 7793   3.627   0.713   5.036 -1.6944  0.6698 -2.6956
   55MOL   H126 7794   3.663   0.645   4.890  0.6257 -1.4271 -0.4990
   55MOL   H127 7795   3.798   0.731   4.985  0.6140 -0.8682 -0.3300
   55MOL   C128 7796   3.627   0.325   5.132  0.1392 -0.2213  0.1353
   55MOL   C129 7797   3.498   0.325   5.221  0.6595  0.1149 -0.4912
   55MOL   O130 7798   3.629   0.207   5.059 -0.0362  0.1111  0.2358
   55MOL   H131 7799   3.710   0.325   5.204 -0.9719  1.1540  1.4526
   55MOL   H132 7800   3.519   0.408   5.289 -0.8545  0.2034 -0.1281
   55MOL   H133 7801   3.496   0.239   5.288 -2.1958  0.9605  0.5940
   55MOL   H134 7802   3.405   0.347   5.169  1.1776  0.2989 -1.3630
   55MOL   C135 7803   3.753   0.168   5.009  0.5810  0.1937  0.0557
   55MOL   C136 7804   3.744   0.016   4.988 -0.2356 -0.5921  0.3606
   55MOL   O137 7805   3.788   0.239   4.893  0.1544 -0.1189 -0.1314
   55MOL   H138 7806   3.833   0.190   5.080  3.2198 -0.9899 -2.4876
   55MOL   H139 7807   3.676   0.003   4.904  2.1131 -0.9705 -1.5655
   55MOL   H140 7808   3.717   7.870   5.074  1.5235  2.1453  2.9117
   55MOL   H141 7809   3.842   7.894   4.954 -0.2097 -0.5549  0.3944
   55MOL   H142 7810   3.830   0.320   4.919  1.4872 -1.3367  1.6065
   56MOL     C1 7811   3.080   1.910   6.800 -1.3842 -0.4931 -0.4556
   56MOL     C2 7812   2.940   1.860   6.832 -0.8189  0.1246 -0.0986
   56MOL     O3 7813   3.158   1.909   6.921 -0.2421 -0.1128  0.4329
   56MOL     H4 7814   3.074   2.013   6.766 -0.6495 -0.0709  0.6771
   56MOL     H5 7815   2.886   1.927   6.899 -0.0183  0.6072  0.0698
   56MOL     H6 7816   2.929   1.761   6.877 -1.3795 -1.5430 -3.7728
   56MOL     H7 7817   2.882   1.862   6.740  0.0643  0.9185 -0.6391
   56MOL     H8 7818   3.133   1.854   6.722  0.0171 -2.0970  1.5801
   56MOL     C9 7819   3.270   1.826   6.921 -0.0502  0.1559 -0.1144
   56MOL    C10 7820   3.343   1.847   7.052  0.0743 -0.6702 -0.1431
   56MOL    O11 7821   3.228   1.696   6.915  0.1059 -0.4870 -0.1274
   56MOL    H12 7822   3.326   1.851   6.830  0.5388  0.8369  0.4383
   56MOL    H13 7823   3.440   1.798   7.063  1.1332  1.7282  1.7042
   56MOL    H14 7824   3.279   1.805   7.130  0.8075 -0.2507  0.6938
   56MOL    H15 7825   3.350   1.951   7.085  0.7255 -0.3686 -1.1923
   56MOL    C16 7826   3.328   1.616   6.857  0.2362 -0.3823 -1.0660
   56MOL    C17 7827   3.286   1.471   6.886  0.4111 -0.3003  0.3403
   56MOL    O18 7828   3.321   1.645   6.721 -0.0597  0.0894 -0.2940
   56MOL    H19 7829   3.425   1.637   6.903  0.0299  1.0576 -1.2504
   56MOL    H20 7830   3.362   1.413   6.834 -1.3353 -1.7519 -0.6497
   56MOL    H21 7831   3.191   1.447   6.838 -0.4722 -0.0226  1.9310
   56MOL    H22 7832   3.295   1.447   6.992 -1.0856 -1.3041  0.2406
   56MOL    C23 7833   3.433   1.596   6.649  0.3981  0.2044 -0.0038
   56MOL    C24 7834   3.408   1.625   6.501 -0.2557  0.2419 -0.6760
   56MOL    O25 7835   3.543   1.675   6.684 -0.0788 -0.0103 -0.1778
   56MOL    H26 7836   3.450   1.489   6.655 -1.0110 -0.0379 -0.2414
   56MOL    H27 7837   3.400   1.732   6.484 -1.7909  0.9242  3.6922
   56MOL    H28 7838   3.323   1.566   6.466 -0.3112  0.4521 -0.8992
   56MOL    H29 7839   3.488   1.578   6.444  0.8132 -1.6411  2.2567
   56MOL    C30 7840   3.663   1.605   6.670  0.0358 -0.0262  0.2835
   56MOL    C31 7841   3.767   1.716   6.678 -0.1996  0.0042  0.4985
   56MOL    O32 7842   3.680   1.527   6.785 -0.1521 -0.4573 -0.1044
   56MOL    H33 7843   3.676   1.550   6.577 -1.6874  0.8762 -0.5274
   56MOL    H34 7844   3.868   1.676   6.675 -0.3685 -0.3393 -1.0463
   56MOL    H35 7845   3.756   1.776   6.768  2.6124  2.2078 -0.5500
   56MOL    H36 7846   3.760   1.787   6.596  0.7673 -0.1198  0.3017
   56MOL    C37 7847   3.731   1.406   6.751  0.2618 -0.6725  0.1029
   56MOL    C38 7848   3.807   1.348   6.873 -0.4700 -0.0655  0.2083
   56MOL    O39 7849   3.629   1.313   6.729  0.3584 -0.1805 -0.2242
   56MOL    H40 7850   3.796   1.412   6.664 -0.3983  1.0487 -0.2906
   56MOL    H41 7851   3.852   1.431   6.927  1.9824 -2.0820  1.3729
   56MOL    H42 7852   3.881   1.276   6.837  1.6022  1.2105  1.7481
   56MOL    H43 7853   3.746   1.302   6.950  1.0343 -0.0904  1.4013
   56MOL    C44 7854   3.654   1.233   6.620 -0.4020 -0.0233  0.2202
   56MOL    C45 7855   3.588   1.096   6.640  0.9241  0.6031 -0.7399
   56MOL    O46 7856   3.602   1.289   6.505  0.0938  0.4883  0.1976
   56MOL    H47 7857   3.758   1.204   6.611 -0.4293  0.0088 -0.2074
   56MOL    H48 7858   3.601   1.050   6.738  0.6006  1.4466 -0.2889
   56MOL    H49 7859   3.625   1.035   6.558  2.2033  1.8393 -1.1091
   56MOL    H50 7860   3.481   1.109   6.621  0.8154 -0.0881 -0.6233
   56MOL    C51 7861   3.691   1.285   6.398 -0.0062 -0.1399 -0.3453
   56MOL    C52 7862   3.601   1.294   6.274 -0.0737  0.3930 -0.4853
   56MOL    O53 7863   3.774   1.390   6.401 -0.2848  0.0573  0.4090
   56MOL    H54 7864   3.745   1.191   6.395  1.8974  0.9426 -0.7407
   56MOL    H55 7865   3.663   1.313   6.186 -2.1353 -0.5284 -2.2030
   56MOL    H56 7866   3.521   1.368   6.281  0.8280  1.2402  0.9721
   56MOL    H57 7867   3.556   1.197   6.253  0.2892 -0.4248  2.3491
   56MOL    C58 7868   3.907   1.362   6.385  1.4051 -0.4951  0.3662
   56MOL    C59 7869   3.979   1.484   6.330  0.0617 -0.1172  0.1001
   56MOL    O60 7870   3.962   1.336   6.502  0.3750 -1.1005  0.0717
   56MOL    H61 7871   3.911   1.290   6.303 -0.5851  0.1076 -0.2771
   56MOL    H62 7872   3.962   1.577   6.383  0.5266  3.1875 -5.1672
   56MOL    H63 7873   3.935   1.510   6.234 -2.5750  0.2692  1.3648
   56MOL    H64 7874   4.086   1.465   6.323 -0.1095 -0.4464 -1.7461
   56MOL    C65 7875   4.035   1.220   6.503 -0.2430 -0.3249  0.9888
   56MOL    C66 7876   4.092   1.184   6.643 -0.2183  0.0755 -0.0376
   56MOL    O67 7877   3.961   1.110   6.458  0.1951 -0.3442 -0.8818
   56MOL    H68 7878   4.119   1.241   6.436 -0.3412 -0.2715  0.8830
   56MOL    H69 7879   4.125   1.283   6.675 -0.8624 -0.2342  1.6334
   56MOL    H70 7880   4.180   1.121   6.633  0.9944  1.7495 -0.0969
   56MOL    H71 7881   4.022   1.153   6.721  1.0754  0.9557  1.4912
   56MOL    C72 7882   4.033   1.026   6.369  0.0515 -0.3741  0.1609
   56MOL    C73 7883   3.945   0.911   6.318  0.3342  0.6937 -0.7658
   56MOL    O74 7884   4.068   1.100   6.260  0.6998 -0.0204 -0.7050
   56MOL    H75 7885   4.120   0.991   6.425  0.4584 -1.5598 -1.1823
   56MOL    H76 7886   4.002   0.843   6.255  0.0608  0.7776 -1.1037
   56MOL    H77 7887   3.853   0.943   6.270 -0.9505 -0.8286  0.6526
   56MOL    H78 7888   3.920   0.847   6.403  1.1557  2.8532  1.1648
   56MOL    C79 7889   4.186   1.063   6.198  0.1311 -0.1305  0.1662
   56MOL    C80 7890   4.186   1.117   6.059 -0.6247  1.0170 -0.5891
   56MOL    O81 7891   4.297   1.115   6.258 -0.3171 -0.3606  0.4483
   56MOL    H82 7892   4.200   0.955   6.193  1.3980  0.0551 -0.6829
   56MOL    H83 7893   4.095   1.083   6.010 -0.0607 -0.5100 -0.6075
   56MOL    H84 7894   4.271   1.074   6.007 -0.9011  0.0374 -0.2434
   56MOL    H85 7895   4.190   1.226   6.062 -0.4131  0.9734  1.2542
   56MOL    C86 7896   4.396   1.013   6.291  1.2816  0.4308 -0.7659
   56MOL    C87 7897   4.493   1.075   6.385 -0.1153 -0.3150 -0.0748
   56MOL    O88 7898   4.340   0.907   6.368  0.0370  0.4465  1.0074
   56MOL    H89 7899   4.437   0.977   6.197  1.6137 -0.1447 -0.4010
   56MOL    H90 7900   4.579   1.010   6.404 -1.0027 -1.5961 -0.3932
   56MOL    H91 7901   4.437   1.088   6.477  2.4600  1.0724  1.3573
   56MOL    H92 7902   4.528   1.167   6.338  0.5923 -0.2665  0.5518
   56MOL    C93 7903   4.410   0.786   6.359 -0.4247  0.1343 -0.0316
   56MOL    C94 7904   4.330   0.671   6.434 -1.1719 -0.0833  0.4555
   56MOL    O95 7905   4.426   0.744   6.222  0.0459 -0.0101  0.5416
   56MOL    H96 7906   4.509   0.797   6.404  0.0979  1.0582 -1.3981
   56MOL    H97 7907   4.239   0.659   6.376  0.1443 -0.2482 -1.6341
   56MOL    H98 7908   4.312   0.702   6.537  2.2432  3.4511  0.1374
   56MOL    H99 7909   4.374   0.572   6.430 -0.9622  0.0544 -0.7721
   56MOL   C100 7910   4.544   0.673   6.209 -0.0841  0.7133  0.7811
   56MOL   C101 7911   4.542   0.587   6.080  0.3039 -0.4208  0.3761
   56MOL   O102 7912   4.647   0.760   6.192 -0.2690 -0.4330 -0.1705
   56MOL   H103 7913   4.555   0.603   6.292  0.7093 -0.7213 -0.5132
   56MOL   H104 7914   4.646   0.562   6.060  0.3515 -1.9141  2.3181
   56MOL   H105 7915   4.492   0.644   6.002  0.3811 -0.4491  0.3068
   56MOL   H106 7916   4.495   0.490   6.092 -2.4329  0.7344 -0.4848
   56MOL   C107 7917   4.765   0.718   6.255 -0.0202 -0.2607 -0.3987
   56MOL   C108 7918   4.876   0.814   6.204  0.4515 -0.7605 -0.7211
   56MOL   O109 7919   4.750   0.733   6.391  0.1197  0.3286  0.2726
   56MOL   H110 7920   4.798   0.618   6.227  2.7039  0.9257 -1.5950
   56MOL   H111 7921   4.903   0.806   6.099  0.5463 -1.6048 -0.6316
   56MOL   H112 7922   4.963   0.778   6.258 -0.1631 -0.8048  0.2594
   56MOL   H113 7923   4.847   0.912   6.242 -0.7474 -1.1618 -0.5755
   56MOL   C114 7924   4.795   0.620   6.466  0.5933 -0.0828 -0.4223
   56MOL   C115 7925   4.840   0.666   6.606  0.3894  0.0144  0.0400
   56MOL   O116 7926   4.688   0.526   6.489 -0.1882  0.6476 -0.3022
   56MOL   H117 7927   4.880   0.570   6.417 -1.0264 -0.6089 -2.7941
   56MOL   H118 7928   4.846   0.574   6.663  1.8072 -0.1849 -0.4051
   56MOL   H119 7929   4.776   0.743   6.650  1.2105 -0.1135  1.5289
   56MOL   H120 7930   4.942   0.706   6.605  0.3892 -0.0024 -0.6078
   56MOL   C121 7931   4.718   0.393   6.454  0.6254  0.3030 -0.0585
   56MOL   C122 7932   4.597   0.304   6.483  0.2952 -0.8855 -0.0910
   56MOL   O123 7933   4.738   0.398   6.320 -0.1659 -0.2445 -0.5626
   56MOL   H124 7934   4.802   0.357   6.513 -0.3687 -2.8317 -0.4883
   56MOL   H125 7935   4.593   0.270   6.586  0.6421  1.1750  0.6361
   56MOL   H126 7936   4.587   0.219   6.415  0.2329 -0.6774 -0.3458
   56MOL   H127 7937   4.509   0.365   6.462  0.6893 -0.1972  0.2470
   56MOL   C128 7938   4.802   0.287   6.257 -0.6701 -0.2551  0.3244
   56MOL   C129 7939   4.808   0.319   6.115  0.4872 -0.0955  0.4949
   56MOL   O130 7940   4.937   0.280   6.304 -0.0070  0.1308 -0.9671
   56MOL   H131 7941   4.750   0.195   6.281 -2.3750  0.6600  0.2561
   56MOL   H132 7942   4.853   0.227   6.078  1.3102 -0.7146  2.9565
   56MOL   H133 7943   4.880   0.397   6.090  1.0707 -1.0982 -1.0667
   56MOL   H134 7944   4.711   0.326   6.066 -0.1166 -0.5148  1.6203
   56MOL   C135 7945   4.968   0.149   6.347  0.0365  0.0758  0.0532
   56MOL   C136 7946   5.118   0.149   6.357 -1.3348  0.1686  0.0303
   56MOL   O137 7947   4.914   0.110   6.475 -0.7639  0.1137 -0.1309
   56MOL   H138 7948   4.926   0.076   6.277 -1.0754 -0.2529  1.0360
   56MOL   H139 7949   5.134   0.241   6.413 -2.3768 -0.0354  0.6766
   56MOL   H140 7950   5.163   0.156   6.258 -2.4191  0.3324 -0.4649
   56MOL   H141 7951   5.147   0.059   6.411  0.4238  0.0305 -1.0980
   56MOL   H142 7952   4.866   0.029   6.471 -1.1230  0.2199  1.6728
   57MOL     C1 7953   4.508   4.588   1.093 -0.5799  0.1054  0.4100
   57MOL     C2 7954   4.428   4.645   0.973  0.1617 -0.4746 -0.2209
   57MOL     O3 7955   4.445   4.625   1.210 -0.1602 -0.3070  0.1725
   57MOL     H4 7956   4.609   4.624   1.076 -0.4758 -0.5967 -0.4570
   57MOL     H5 7957   4.484   4.634   0.881  1.4881 -2.4892  0.7916
   57MOL     H6 7958   4.418   4.753   0.980  1.4246 -0.4111  0.6527
   57MOL     H7 7959   4.325   4.611   0.961 -0.1571  0.6442 -0.7790
   57MOL     H8 7960   4.522   4.480   1.097 -1.0531 -0.0492 -1.6537
   57MOL     C9 7961   4.513   4.601   1.328  0.0988  0.1314  0.1421
   57MOL    C10 7962   4.426   4.633   1.452  0.2212  0.5427 -0.1189
   57MOL    O11 7963   4.558   4.467   1.339 -0.1229 -0.9555 -0.1679
   57MOL    H12 7964   4.594   4.674   1.327 -0.5762  0.8695 -0.2057
   57MOL    H13 7965   4.333   4.577   1.461 -0.4063  1.5714 -0.0743
   57MOL    H14 7966   4.415   4.741   1.450  1.1077  0.6266 -1.0462
   57MOL    H15 7967   4.491   4.616   1.537 -0.9949 -0.1348  0.6822
   57MOL    C16 7968   4.698   4.454   1.352 -0.1040 -0.2571  0.3687
   57MOL    C17 7969   4.721   4.309   1.369  0.3939 -0.4026  0.4937
   57MOL    O18 7970   4.762   4.484   1.234  0.0309 -0.2117 -0.2170
   57MOL    H19 7971   4.729   4.516   1.437  1.7632  0.3704 -0.7177
   57MOL    H20 7972   4.822   4.295   1.407  1.2955  0.3625 -1.5481
   57MOL    H21 7973   4.695   4.258   1.276 -1.3935 -0.0459  0.7925
   57MOL    H22 7974   4.655   4.277   1.450  1.1035 -0.4791  1.0489
   57MOL    C23 7975   4.897   4.514   1.244  0.7697  0.2351  0.0208
   57MOL    C24 7976   4.947   4.555   1.106 -0.1845  0.1066  0.4623
   57MOL    O25 7977   4.920   4.624   1.316  0.2199  0.1949  0.2606
   57MOL    H26 7978   4.945   4.425   1.286  3.1763  1.3192 -0.3961
   57MOL    H27 7979   4.909   4.653   1.077 -0.1877 -0.9298 -3.3007
   57MOL    H28 7980   4.922   4.490   1.022  0.2252 -1.3444  1.4485
   57MOL    H29 7981   5.056   4.559   1.107 -0.0442 -2.5593  0.6842
   57MOL    C30 7982   5.018   4.609   1.413  0.5685  0.8410 -0.7101
   57MOL    C31 7983   5.086   4.746   1.449  0.3400  0.7713 -0.2230
   57MOL    O32 7984   4.955   4.565   1.533 -0.1744  0.2924  0.1442
   57MOL    H33 7985   5.096   4.537   1.387 -1.8993 -2.4681  0.7546
   57MOL    H34 7986   5.141   4.789   1.365 -0.0721 -0.7967 -1.3023
   57MOL    H35 7987   5.163   4.732   1.525  2.7513 -2.5445 -3.1052
   57MOL    H36 7988   5.025   4.830   1.481 -1.0240  1.2668 -3.8514
   57MOL    C37 7989   5.034   4.482   1.614 -0.3647 -0.1961  0.2095
   57MOL    C38 7990   4.931   4.430   1.717  0.4655  0.3638  0.2418
   57MOL    O39 7991   5.088   4.371   1.545 -0.2801  0.4483  0.1658
   57MOL    H40 7992   5.111   4.536   1.671  0.0536  0.0016 -0.5323
   57MOL    H41 7993   4.980   4.355   1.779  3.1809  1.3759 -0.5996
   57MOL    H42 7994   4.847   4.382   1.666 -0.6258  0.0337  2.3052
   57MOL    H43 7995   4.888   4.513   1.773 -0.2679 -0.7089  1.2808
   57MOL    C44 7996   5.214   4.339   1.586  0.1458 -1.0035 -0.2969
   57MOL    C45 7997   5.236   4.196   1.548 -0.3005  0.3980  0.2141
   57MOL    O46 7998   5.308   4.423   1.526  0.2727  0.1481 -0.2925
   57MOL    H47 7999   5.214   4.349   1.694  1.2194 -0.4702 -0.3393
   57MOL    H48 8000   5.241   4.196   1.439 -0.1864 -0.8571  0.2157
   57MOL    H49 8001   5.154   4.146   1.601  0.1121  0.8812  1.3267
   57MOL    H50 8002   5.330   4.163   1.591 -1.3039  1.1934  3.1399
   57MOL    C51 8003   5.405   4.466   1.613 -0.0162 -0.1326  0.8162
   57MOL    C52 8004   5.513   4.545   1.537  0.8286 -0.3602 -0.0724
   57MOL    O53 8005   5.353   4.548   1.712 -0.0148 -0.1831 -0.1084
   57MOL    H54 8006   5.456   4.375   1.643 -1.8956 -0.8528  1.9170
   57MOL    H55 8007   5.602   4.578   1.591  1.1971 -2.5790  0.7367
   57MOL    H56 8008   5.466   4.632   1.492  0.2461  0.7161  2.5443
   57MOL    H57 8009   5.540   4.474   1.459  2.5476  1.1865 -0.9175
   57MOL    C58 8010   5.442   4.555   1.820  0.6923  0.0128 -0.2097
   57MOL    C59 8011   5.494   4.698   1.830 -0.1485  0.2969  0.1057
   57MOL    O60 8012   5.382   4.516   1.940 -0.1771  0.3993  0.5475
   57MOL    H61 8013   5.531   4.495   1.801  0.7050 -0.5805  1.6493
   57MOL    H62 8014   5.569   4.699   1.910 -0.8219 -0.1509  0.7461
   57MOL    H63 8015   5.413   4.764   1.861 -1.0200 -0.6417 -0.1506
   57MOL    H64 8016   5.535   4.745   1.741 -0.7521 -0.8277 -0.7694
   57MOL    C65 8017   5.407   4.380   1.976  0.2091  0.3269 -0.1009
   57MOL    C66 8018   5.353   4.361   2.114  1.1730  0.9200 -0.5238
   57MOL    O67 8019   5.348   4.286   1.885  0.1516  0.2720  0.5067
   57MOL    H68 8020   5.515   4.366   1.976  0.0412 -1.0211 -0.4304
   57MOL    H69 8021   5.250   4.397   2.111  0.7402 -0.3021 -0.8774
   57MOL    H70 8022   5.405   4.411   2.196  2.2161  0.4022 -0.8566
   57MOL    H71 8023   5.345   4.256   2.140 -2.4452  1.6089  1.3800
   57MOL    C72 8024   5.408   4.160   1.899 -0.2156  1.0214  0.1555
   57MOL    C73 8025   5.288   4.059   1.898 -0.3321 -0.0890  0.5309
   57MOL    O74 8026   5.488   4.129   1.788 -0.5906  0.3017 -0.9066
   57MOL    H75 8027   5.467   4.149   1.990  4.9477 -0.6479 -3.1798
   57MOL    H76 8028   5.250   4.061   1.796 -0.9892 -3.5628  0.6538
   57MOL    H77 8029   5.215   4.085   1.974 -0.4154  0.2065  0.3511
   57MOL    H78 8030   5.327   3.958   1.911  0.5353 -0.0654 -1.7008
   57MOL    C79 8031   5.625   4.126   1.818 -0.0598  0.2294 -0.5465
   57MOL    C80 8032   5.692   4.050   1.702 -0.0341 -0.1503  0.2154
   57MOL    O81 8033   5.675   4.254   1.812  0.2373  0.8188  0.5444
   57MOL    H82 8034   5.652   4.071   1.908  0.7088  0.0306 -0.8878
   57MOL    H83 8035   5.665   4.097   1.607 -1.2362 -1.7789 -0.2723
   57MOL    H84 8036   5.659   3.946   1.700 -1.2648  0.1714  2.3566
   57MOL    H85 8037   5.800   4.052   1.711 -0.0299 -0.9874  0.4149
   57MOL    C86 8038   5.790   4.279   1.884 -0.2475  0.3709 -0.4936
   57MOL    C87 8039   5.867   4.378   1.793 -0.5128  0.5307 -1.1527
   57MOL    O88 8040   5.750   4.340   2.002  0.5039 -0.3708  0.1920
   57MOL    H89 8041   5.856   4.192   1.895  3.1022  2.3130 -3.9293
   57MOL    H90 8042   5.937   4.439   1.850 -0.3232 -2.0779  1.4682
   57MOL    H91 8043   5.788   4.429   1.737 -0.1219  1.4358 -0.8904
   57MOL    H92 8044   5.928   4.321   1.724 -0.8413 -1.3111  0.0342
   57MOL    C93 8045   5.814   4.290   2.116  0.5616 -0.0717 -0.1974
   57MOL    C94 8046   5.773   4.382   2.235 -0.3386  0.3318  0.0226
   57MOL    O95 8047   5.749   4.172   2.150 -0.4009  0.4044 -0.3760
   57MOL    H96 8048   5.921   4.279   2.099  0.4791  0.1147 -0.8537
   57MOL    H97 8049   5.844   4.464   2.231 -0.5170  0.6730  2.8687
   57MOL    H98 8050   5.783   4.334   2.333  2.9819  0.1877 -0.3468
   57MOL    H99 8051   5.667   4.408   2.226 -0.1895  0.8289 -0.2906
   57MOL   C100 8052   5.829   4.061   2.181 -0.5303 -0.4326  0.4960
   57MOL   C101 8053   5.747   3.971   2.274  0.4242  0.5830 -0.6845
   57MOL   O102 8054   5.855   3.978   2.061 -0.2840  0.1979 -0.4395
   57MOL   H103 8055   5.917   4.092   2.236  0.8877 -0.0049 -1.9601
   57MOL   H104 8056   5.777   3.866   2.265  0.1878  0.5667 -1.2724
   57MOL   H105 8057   5.644   3.976   2.241  0.5354 -0.4068 -1.2172
   57MOL   H106 8058   5.764   4.000   2.378 -2.2383 -0.2741  0.0103
   57MOL   C107 8059   5.994   3.955   2.034 -0.2627 -0.0777 -0.8268
   57MOL   C108 8060   6.003   3.849   1.922  0.0275  0.3007  0.3963
   57MOL   O109 8061   6.055   4.073   1.995 -0.8001 -0.1547  0.0682
   57MOL   H110 8062   6.026   3.908   2.127 -4.0904 -0.5513  0.3461
   57MOL   H111 8063   6.106   3.817   1.906 -0.7056 -4.2296  3.8823
   57MOL   H112 8064   5.961   3.892   1.831  2.2656  2.2534  0.2156
   57MOL   H113 8065   5.946   3.761   1.951  1.4617 -0.7032  0.1958
   57MOL   C114 8066   6.177   4.097   2.053  0.3163 -0.3171 -0.3621
   57MOL   C115 8067   6.240   4.215   1.988  0.8996 -0.4172  0.2242
   57MOL   O116 8068   6.155   4.137   2.187 -0.2932  0.6380  0.0484
   57MOL   H117 8069   6.238   4.008   2.037  0.0618 -0.6434  0.4310
   57MOL   H118 8070   6.324   4.260   2.041  0.6967  0.7148 -0.3780
   57MOL   H119 8071   6.163   4.291   1.972 -0.5832 -2.5285 -3.3445
   57MOL   H120 8072   6.277   4.184   1.890  0.5125  0.4594 -0.2051
   57MOL   C121 8073   6.268   4.100   2.264 -0.2436  0.5754 -0.1025
   57MOL   C122 8074   6.243   4.155   2.399 -0.9553 -0.3452 -0.1920
   57MOL   O123 8075   6.281   3.965   2.271 -0.1474 -0.3947 -0.8181
   57MOL   H124 8076   6.352   4.148   2.214 -0.1850 -0.4094 -0.9748
   57MOL   H125 8077   6.203   4.256   2.391 -0.6303 -0.2415 -0.5246
   57MOL   H126 8078   6.334   4.140   2.457 -2.3661 -0.1946  2.1443
   57MOL   H127 8079   6.166   4.088   2.437  0.8752 -2.3924  0.0154
   57MOL   C128 8080   6.406   3.915   2.249  0.4960 -0.0957 -0.0767
   57MOL   C129 8081   6.396   3.761   2.248  0.2043 -1.0004  0.1623
   57MOL   O130 8082   6.457   3.949   2.119 -0.2372  0.3561  0.0594
   57MOL   H131 8083   6.464   3.962   2.329 -0.8503 -0.2214  0.9942
   57MOL   H132 8084   6.333   3.727   2.330  0.6835  0.5942  1.2209
   57MOL   H133 8085   6.490   3.706   2.257  0.2395 -0.9219  0.2567
   57MOL   H134 8086   6.356   3.732   2.150 -0.1237 -0.9493  0.2804
   57MOL   C135 8087   6.599   3.940   2.110 -0.0885 -0.0170  0.2023
   57MOL   C136 8088   6.632   3.942   1.961 -0.3810 -0.2208 -0.2275
   57MOL   O137 8089   6.661   4.054   2.165 -0.4483 -0.0358 -0.1767
   57MOL   H138 8090   6.652   3.853   2.148  3.2762  1.8129 -0.1211
   57MOL   H139 8091   6.738   3.929   1.940 -0.3089 -3.2167  1.6689
   57MOL   H140 8092   6.588   4.029   1.911 -1.5750 -1.1326 -0.7943
   57MOL   H141 8093   6.584   3.855   1.917 -1.3966 -0.1734  0.7641
   57MOL   H142 8094   6.750   4.028   2.184 -0.4016  1.3405  1.6347
   58MOL     C1 8095   6.479   7.115   4.593  0.6365 -0.7937 -0.1793
   58MOL     C2 8096   6.609   7.068   4.536  0.7299 -0.3049  0.3538
   58MOL     O3 8097   6.452   7.012   4.689 -0.6420  0.1604  0.2900
   58MOL     H4 8098   6.414   7.143   4.510 -0.0408  0.4739  0.7643
   58MOL     H5 8099   6.650   7.157   4.487  0.3200 -0.1660  0.2587
   58MOL     H6 8100   6.613   6.985   4.466  0.9563 -0.7385  0.8760
   58MOL     H7 8101   6.680   7.057   4.618  0.4133 -0.4260  0.6115
   58MOL     H8 8102   6.492   7.211   4.642  0.0508 -0.9304  0.2535
   58MOL     C9 8103   6.315   6.995   4.721 -0.3531 -0.5458  0.4468
   58MOL    C10 8104   6.271   6.847   4.698 -0.0684 -0.9675  0.2371
   58MOL    O11 8105   6.271   7.028   4.847 -0.1778 -0.3132  0.1529
   58MOL    H12 8106   6.254   7.056   4.655  1.0480  0.2124 -0.1774
   58MOL    H13 8107   6.166   6.841   4.726 -1.1891 -1.0761 -3.7508
   58MOL    H14 8108   6.333   6.778   4.755  0.1826 -1.2121 -0.3247
   58MOL    H15 8109   6.267   6.820   4.593 -0.1505 -0.7114  0.1747
   58MOL    C16 8110   6.257   7.167   4.864  0.0802  0.6363  0.2398
   58MOL    C17 8111   6.104   7.188   4.866 -0.0892  0.1796  0.1923
   58MOL    O18 8112   6.304   7.210   4.982  0.3280 -0.4658  0.2949
   58MOL    H19 8113   6.303   7.229   4.788 -3.7957  2.3279 -0.8666
   58MOL    H20 8114   6.082   7.294   4.864 -0.2271  0.1316 -0.8419
   58MOL    H21 8115   6.066   7.149   4.961  1.7816 -0.7041  0.5893
   58MOL    H22 8116   6.042   7.153   4.783 -0.2857 -0.4373  0.5929
   58MOL    C23 8117   6.445   7.185   4.988 -0.3959 -0.2567  0.7066
   58MOL    C24 8118   6.516   7.308   4.948 -0.2787 -0.5301  0.2443
   58MOL    O25 8119   6.477   7.161   5.121 -0.2280  0.2112 -0.1228
   58MOL    H26 8120   6.474   7.093   4.938  0.8424 -0.0333  0.9996
   58MOL    H27 8121   6.504   7.316   4.839 -1.8466 -0.6639  0.3888
   58MOL    H28 8122   6.624   7.312   4.961 -0.1697  0.3885 -0.7604
   58MOL    H29 8123   6.474   7.390   5.007 -1.4852 -0.1550 -1.0888
   58MOL    C30 8124   6.417   7.044   5.181 -0.1477  0.5908 -0.1654
   58MOL    C31 8125   6.527   6.937   5.184  1.0244 -0.4208  0.1776
   58MOL    O32 8126   6.374   7.058   5.313 -0.2012 -0.6946  0.4200
   58MOL    H33 8127   6.335   7.008   5.118  0.4109 -0.0747 -0.5180
   58MOL    H34 8128   6.608   6.981   5.242 -0.3784 -2.2336  3.6927
   58MOL    H35 8129   6.567   6.921   5.084  0.0990  1.0201 -0.4307
   58MOL    H36 8130   6.481   6.845   5.222 -0.8928 -0.6124 -2.5023
   58MOL    C37 8131   6.267   7.149   5.318  0.0927  0.2480  0.0486
   58MOL    C38 8132   6.144   7.056   5.358  0.3146  0.1441 -0.0423
   58MOL    O39 8133   6.284   7.229   5.430  0.4535  0.2247  0.1069
   58MOL    H40 8134   6.246   7.208   5.229 -0.8635 -1.8081 -1.1140
   58MOL    H41 8135   6.122   6.992   5.273  0.0595  1.5947 -1.0764
   58MOL    H42 8136   6.064   7.123   5.388  0.2527 -0.1842  0.5376
   58MOL    H43 8137   6.162   6.993   5.445  1.0721  1.3593  0.6991
   58MOL    C44 8138   6.390   7.325   5.416  0.5463  0.0322  0.2492
   58MOL    C45 8139   6.325   7.460   5.432  0.4493 -0.5901  0.9507
   58MOL    O46 8140   6.480   7.309   5.523 -0.3939 -0.0671 -0.1434
   58MOL    H47 8141   6.447   7.320   5.323  0.2937  2.4842 -0.0783
   58MOL    H48 8142   6.393   7.544   5.421 -1.9372  1.3155  0.4125
   58MOL    H49 8143   6.273   7.452   5.528 -0.7296  0.2820  0.3940
   58MOL    H50 8144   6.252   7.471   5.351  0.8069  1.3530  0.8712
   58MOL    C51 8145   6.567   7.207   5.514  0.0571  1.0474 -0.4994
   58MOL    C52 8146   6.702   7.278   5.494 -0.3027  0.3125  0.6464
   58MOL    O53 8147   6.567   7.138   5.635  0.3963  0.1260 -0.5241
   58MOL    H54 8148   6.555   7.145   5.425  1.8843  0.9480 -0.6865
   58MOL    H55 8149   6.709   7.321   5.394 -2.5558  0.5504  0.5578
   58MOL    H56 8150   6.781   7.204   5.503  1.3739  1.9678 -0.2307
   58MOL    H57 8151   6.708   7.359   5.566 -0.4341  1.3566 -0.5029
   58MOL    C58 8152   6.466   7.041   5.640 -0.0070 -0.2285  0.3051
   58MOL    C59 8153   6.520   6.899   5.644  0.2564  0.2730 -0.7306
   58MOL    O60 8154   6.399   7.045   5.767 -0.5851  0.3744  0.2316
   58MOL    H61 8155   6.391   7.061   5.563  0.1229  2.3550  0.8063
   58MOL    H62 8156   6.578   6.879   5.553 -1.2688 -0.9062 -1.4531
   58MOL    H63 8157   6.438   6.829   5.658 -0.8557  1.1668 -2.5696
   58MOL    H64 8158   6.574   6.897   5.738 -0.5649  0.6460 -0.2467
   58MOL    C65 8159   6.312   7.150   5.774  0.6134  0.0171 -0.5970
   58MOL    C66 8160   6.174   7.101   5.758  0.2356  0.5209  0.1819
   58MOL    O67 8161   6.322   7.221   5.894  0.0566 -0.1037 -0.3928
   58MOL    H68 8162   6.331   7.228   5.700 -0.0408 -0.3442 -1.1544
   58MOL    H69 8163   6.145   7.033   5.838  0.1952  0.1269 -0.1682
   58MOL    H70 8164   6.166   7.050   5.662 -0.5588 -0.6534  0.8645
   58MOL    H71 8165   6.106   7.186   5.755 -2.1069 -1.2155  2.0237
   58MOL    C72 8166   6.443   7.290   5.909  0.4796  0.5155  0.3289
   58MOL    C73 8167   6.406   7.435   5.862 -1.0158  0.2358  0.4084
   58MOL    O74 8168   6.479   7.293   6.044  0.3819  0.0656  0.0123
   58MOL    H75 8169   6.522   7.255   5.842  0.3326 -2.5454  1.6799
   58MOL    H76 8170   6.387   7.435   5.754  1.3547  0.7400 -0.0434
   58MOL    H77 8171   6.495   7.494   5.881  0.9460 -2.3354 -0.4822
   58MOL    H78 8172   6.328   7.484   5.919 -2.8643  0.9219 -2.5661
   58MOL    C79 8173   6.538   7.174   6.084 -0.5483  0.9203  0.5388
   58MOL    C80 8174   6.690   7.202   6.089 -0.8562 -0.2535 -0.4912
   58MOL    O81 8175   6.495   7.136   6.217 -0.4213 -0.7947  0.5081
   58MOL    H82 8176   6.512   7.088   6.022 -1.5402  2.6130 -1.4653
   58MOL    H83 8177   6.712   7.285   6.156 -1.4386 -1.7263  1.5716
   58MOL    H84 8178   6.734   7.221   5.991 -0.3026  2.9776  0.3245
   58MOL    H85 8179   6.749   7.114   6.116 -0.0041  0.4782  0.0607
   58MOL    C86 8180   6.361   7.105   6.228  0.1682  0.2449  0.2774
   58MOL    C87 8181   6.357   6.955   6.250 -0.1179  0.4138  0.2686
   58MOL    O88 8182   6.299   7.165   6.341 -0.2464  0.4156 -0.3655
   58MOL    H89 8183   6.290   7.120   6.146 -1.2023  1.3876  1.6416
   58MOL    H90 8184   6.415   6.902   6.175  1.4012  2.3322  0.0522
   58MOL    H91 8185   6.257   6.916   6.233  0.1785  0.2913 -1.2726
   58MOL    H92 8186   6.392   6.926   6.349 -0.9423  0.4515  0.5733
   58MOL    C93 8187   6.285   7.299   6.331 -0.0100  0.0639  0.4017
   58MOL    C94 8188   6.143   7.318   6.290  0.5540 -0.6561 -0.5619
   58MOL    O95 8189   6.310   7.361   6.452 -0.9450  0.4726  0.4204
   58MOL    H96 8190   6.354   7.332   6.253 -1.1012  0.3507 -0.4628
   58MOL    H97 8191   6.124   7.424   6.274  3.4424  0.0231  0.2022
   58MOL    H98 8192   6.078   7.278   6.368 -0.5910  1.5504 -0.3549
   58MOL    H99 8193   6.117   7.270   6.195  0.7315 -0.9603 -0.4590
   58MOL   C100 8194   6.452   7.349   6.481  0.0851  0.3934  0.3929
   58MOL   C101 8195   6.508   7.494   6.476 -0.3599  0.6904 -0.7837
   58MOL   O102 8196   6.460   7.303   6.614 -0.5002  0.2580  0.5475
   58MOL   H103 8197   6.511   7.281   6.420 -0.9599 -1.1413  1.0721
   58MOL   H104 8198   6.505   7.518   6.370 -0.3763  0.0033 -0.9434
   58MOL   H105 8199   6.594   7.517   6.539 -0.2210 -0.0906 -0.6794
   58MOL   H106 8200   6.443   7.558   6.535  1.2622  0.5606  1.1952
   58MOL   C107 8201   6.447   7.164   6.626 -0.0480  0.1644 -0.1309
   58MOL   C108 8202   6.574   7.112   6.695  0.4415  0.0174 -0.1408
   58MOL   O109 8203   6.336   7.128   6.710 -0.0021 -0.2948 -0.0280
   58MOL   H110 8204   6.446   7.112   6.530 -2.5916 -0.1871  0.0576
   58MOL   H111 8205   6.665   7.153   6.651  1.5250 -0.8578  1.2317
   58MOL   H112 8206   6.576   7.005   6.716 -1.1344 -0.0613 -0.3527
   58MOL   H113 8207   6.581   7.165   6.790 -2.1944  1.1581 -0.5186
   58MOL   C114 8208   6.210   7.132   6.645 -0.3897 -0.0218 -0.0460
   58MOL   C115 8209   6.177   6.991   6.592 -0.1219  0.0895  0.5923
   58MOL   O116 8210   6.113   7.145   6.737  0.5187  0.8776  0.0950
   58MOL   H117 8211   6.201   7.209   6.568 -1.5764  1.9420  2.0175
   58MOL   H118 8212   6.078   6.971   6.552  0.6661 -2.2754 -0.2672
   58MOL   H119 8213   6.176   6.913   6.668  1.3080 -0.2312  0.2943
   58MOL   H120 8214   6.248   6.958   6.516  0.9772 -0.1432  1.7014
   58MOL   C121 8215   6.109   7.276   6.781 -0.0885 -1.0391  0.0783
   58MOL   C122 8216   5.993   7.336   6.710  0.8615 -0.3714  0.3774
   58MOL   O123 8217   6.074   7.273   6.922  0.1158  0.1689 -0.0925
   58MOL   H124 8218   6.203   7.329   6.767  0.5579 -2.3614 -0.7681
   58MOL   H125 8219   6.005   7.355   6.603 -1.6419  0.6758  0.2542
   58MOL   H126 8220   5.968   7.436   6.743  0.8457 -0.3790  0.3860
   58MOL   H127 8221   5.914   7.262   6.724  0.3588  0.1251  0.1526
   58MOL   C128 8222   6.172   7.210   7.006 -0.2411 -0.0004  0.8972
   58MOL   C129 8223   6.213   7.323   7.106 -0.8386  0.0183  0.5162
   58MOL   O130 8224   6.123   7.101   7.077  0.3829  0.1205  0.0639
   58MOL   H131 8225   6.257   7.189   6.941 -1.2102 -0.5862 -0.2099
   58MOL   H132 8226   6.246   7.400   7.036  0.4652 -0.9701  0.0283
   58MOL   H133 8227   6.287   7.286   7.177  0.5378 -1.2462 -1.5278
   58MOL   H134 8228   6.121   7.353   7.156 -0.6274  0.2351  0.7765
   58MOL   C135 8229   6.114   6.988   7.000 -0.0011 -0.1416  0.0311
   58MOL   C136 8230   6.114   6.873   7.095 -0.0797  0.3947  0.2412
   58MOL   O137 8231   5.998   6.986   6.913 -0.1695  0.0116 -0.0635
   58MOL   H138 8232   6.203   6.978   6.937 -1.0113  1.8099 -1.7792
   58MOL   H139 8233   6.044   6.899   7.175  0.0175  0.4926  0.2943
   58MOL   H140 8234   6.203   6.873   7.157  0.3488  2.4676 -0.3271
   58MOL   H141 8235   6.099   6.774   7.051  3.3524  0.6640 -1.6902
   58MOL   H142 8236   6.004   7.058   6.852 -3.9002  0.3768 -0.0918
   59MOL     C1 8237   1.444   4.393   3.658  0.3734 -0.3388  0.0786
   59MOL     C2 8238   1.455   4.282   3.759  0.6622  0.4875 -0.2981
   59MOL     O3 8239   1.368   4.504   3.711  0.5450  0.7619 -0.0423
   59MOL     H4 8240   1.404   4.349   3.567  2.9032 -1.9838 -0.2865
   59MOL     H5 8241   1.362   4.224   3.761  0.3988  0.8479 -1.5993
   59MOL     H6 8242   1.484   4.312   3.860  0.8883  0.0814 -0.2434
   59MOL     H7 8243   1.535   4.213   3.733  0.3279  1.3561 -3.9130
   59MOL     H8 8244   1.541   4.435   3.632 -0.6791  2.1649  0.0495
   59MOL     C9 8245   1.366   4.617   3.625  0.0479  0.0797  0.2126
   59MOL    C10 8246   1.273   4.594   3.507 -0.1050  0.0788  0.5293
   59MOL    O11 8247   1.297   4.720   3.696 -0.2048 -0.3853 -0.0698
   59MOL    H12 8248   1.467   4.638   3.590  0.7782  0.5043  2.4938
   59MOL    H13 8249   1.280   4.675   3.435 -0.9260  0.8924  1.3528
   59MOL    H14 8250   1.169   4.584   3.538 -0.0512  3.2086  1.9459
   59MOL    H15 8251   1.299   4.507   3.447  0.2023  1.4233 -1.3457
   59MOL    C16 8252   1.375   4.769   3.802  0.8260 -0.7028 -0.6667
   59MOL    C17 8253   1.446   4.891   3.751 -0.1808 -0.5002 -0.9531
   59MOL    O18 8254   1.289   4.810   3.903  0.5277  0.1062 -0.2528
   59MOL    H19 8255   1.449   4.695   3.834  1.6901 -0.2659 -1.6343
   59MOL    H20 8256   1.378   4.955   3.693 -0.4642  0.5804  0.5432
   59MOL    H21 8257   1.525   4.875   3.677  1.0598 -0.5652  0.3820
   59MOL    H22 8258   1.489   4.951   3.831  2.3690  0.4020 -2.9063
   59MOL    C23 8259   1.215   4.707   3.966  0.3761  0.3603 -0.0343
   59MOL    C24 8260   1.282   4.677   4.095 -0.2582 -0.2389  1.1049
   59MOL    O25 8261   1.085   4.742   4.001  0.4511 -0.8502  0.0118
   59MOL    H26 8262   1.227   4.619   3.902 -0.7833  1.0692 -1.2456
   59MOL    H27 8263   1.225   4.605   4.152 -1.6030  0.4520  0.6446
   59MOL    H28 8264   1.283   4.770   4.153 -1.1687 -0.0502  0.8139
   59MOL    H29 8265   1.384   4.643   4.075 -0.8067 -0.1892 -1.9331
   59MOL    C30 8266   0.998   4.742   3.897 -0.2113  0.6488  0.1367
   59MOL    C31 8267   0.928   4.604   3.912 -0.4341 -0.1001  0.2603
   59MOL    O32 8268   0.900   4.841   3.918  0.5426 -0.2439  0.4866
   59MOL    H33 8269   1.053   4.748   3.803 -1.9098 -0.8521 -0.9826
   59MOL    H34 8270   0.880   4.604   4.010 -1.2785  3.0060 -0.1088
   59MOL    H35 8271   0.999   4.522   3.903 -0.6817 -0.2156 -0.6914
   59MOL    H36 8272   0.840   4.600   3.848 -1.0740 -1.8414  1.2195
   59MOL    C37 8273   0.934   4.969   3.863  0.3216  0.3470  0.1227
   59MOL    C38 8274   0.859   4.975   3.732 -0.0101  0.3818  0.0426
   59MOL    O39 8275   0.892   5.080   3.939 -0.3695  0.1866  0.2082
   59MOL    H40 8276   1.042   4.968   3.845  0.2768  0.5836 -0.1691
   59MOL    H41 8277   0.891   4.890   3.672 -1.7927 -0.5779  0.4252
   59MOL    H42 8278   0.893   5.062   3.676  1.0859  0.0185  0.1372
   59MOL    H43 8279   0.751   4.977   3.745 -0.4848 -4.6366 -2.2065
   59MOL    C44 8280   0.968   5.099   4.056  0.0168 -0.0411 -0.3900
   59MOL    C45 8281   1.010   5.243   4.058 -0.3040 -0.3993 -0.1511
   59MOL    O46 8282   0.893   5.070   4.179  0.2164  0.1941 -0.5332
   59MOL    H47 8283   1.060   5.041   4.049  0.7981  1.2209 -0.9006
   59MOL    H48 8284   0.929   5.308   4.026  0.6636 -0.2123 -2.3192
   59MOL    H49 8285   1.090   5.256   3.984 -0.4419  0.2427 -0.1968
   59MOL    H50 8286   1.051   5.268   4.156 -0.5095 -1.2582  0.1522
   59MOL    C51 8287   0.913   4.944   4.236  0.0839  0.3355  0.5100
   59MOL    C52 8288   0.998   4.965   4.361  0.0571  0.1845  0.2372
   59MOL    O53 8289   0.790   4.897   4.281  0.0067 -0.0742 -0.3276
   59MOL    H54 8290   0.960   4.874   4.167  2.5743  0.3817  2.0986
   59MOL    H55 8291   1.100   4.991   4.334  0.0952 -0.6563 -0.4518
   59MOL    H56 8292   0.991   4.871   4.415 -1.8104  0.9786  1.4477
   59MOL    H57 8293   0.947   5.042   4.419 -1.0002 -0.6987  0.5072
   59MOL    C58 8294   0.701   4.856   4.167  0.6880  0.6219 -0.3166
   59MOL    C59 8295   0.657   4.716   4.189  0.1422  0.2316 -0.0536
   59MOL    O60 8296   0.582   4.937   4.178  0.1651  0.2591 -0.0212
   59MOL    H61 8297   0.739   4.860   4.064  1.5283  0.2214 -0.0304
   59MOL    H62 8298   0.739   4.649   4.214  0.6456  1.3371  1.3175
   59MOL    H63 8299   0.602   4.681   4.102  1.5881 -1.8105 -0.1741
   59MOL    H64 8300   0.580   4.714   4.267  0.8347  0.8671  0.6622
   59MOL    C65 8301   0.576   5.058   4.111  0.3217 -0.1314  0.3749
   59MOL    C66 8302   0.483   5.042   3.988  0.0188  0.3794 -0.7976
   59MOL    O67 8303   0.523   5.159   4.192  0.2093  0.0183  0.3166
   59MOL    H68 8304   0.677   5.076   4.076 -0.1424  0.3321 -0.7778
   59MOL    H69 8305   0.483   5.130   3.924 -1.9016  0.5912 -0.5462
   59MOL    H70 8306   0.379   5.026   4.015  0.0147 -1.2858 -1.7107
   59MOL    H71 8307   0.519   4.957   3.929  1.5478 -0.2669  1.0316
   59MOL    C72 8308   0.622   5.204   4.289 -0.3945 -0.8939  0.4634
   59MOL    C73 8309   0.651   5.347   4.257  0.0324 -0.1738  0.0920
   59MOL    O74 8310   0.575   5.201   4.413 -0.6333 -0.6537 -0.4238
   59MOL    H75 8311   0.722   5.161   4.281 -0.7311 -1.5667 -0.1424
   59MOL    H76 8312   0.673   5.367   4.153  0.5022  0.6950  0.3564
   59MOL    H77 8313   0.745   5.369   4.306  0.0428 -1.8580  0.8796
   59MOL    H78 8314   0.565   5.411   4.276 -1.0321 -0.4396 -3.5965
   59MOL    C79 8315   0.585   5.076   4.475  0.2690  0.2333  0.9964
   59MOL    C80 8316   0.683   5.088   4.584  0.0343 -0.5088  0.0205
   59MOL    O81 8317   0.468   5.039   4.537  1.1139  0.1420  0.6903
   59MOL    H82 8318   0.617   4.998   4.406 -0.3158  0.7016  0.1898
   59MOL    H83 8319   0.704   4.992   4.631 -1.1388 -0.2974  0.9884
   59MOL    H84 8320   0.644   5.149   4.665  0.9776  0.1949 -0.0499
   59MOL    H85 8321   0.774   5.135   4.545 -1.4502 -0.8198 -4.0735
   59MOL    C86 8322   0.372   4.993   4.444 -0.5610  0.4267  0.0156
   59MOL    C87 8323   0.366   4.843   4.467 -0.0301 -0.2132 -1.4749
   59MOL    O88 8324   0.245   5.050   4.461 -0.2192  0.5037  0.1668
   59MOL    H89 8325   0.404   5.005   4.340  0.6650  1.9222  0.5577
   59MOL    H90 8326   0.312   4.792   4.388 -0.5896  2.9081 -3.1950
   59MOL    H91 8327   0.309   4.833   4.560  1.9997  2.1223  0.0884
   59MOL    H92 8328   0.469   4.807   4.472  0.2106  0.6573  0.1227
   59MOL    C93 8329   0.225   5.158   4.385 -0.2642 -0.6473 -0.0791
   59MOL    C94 8330   0.119   5.127   4.283  0.5705 -0.4927 -0.0506
   59MOL    O95 8331   0.175   5.261   4.467  0.1942  0.7017  0.2145
   59MOL    H96 8332   0.314   5.197   4.336 -0.5993 -0.5602 -0.6208
   59MOL    H97 8333   0.158   5.052   4.214 -1.4604 -3.6104  2.0804
   59MOL    H98 8334   0.096   5.220   4.231 -0.8325  0.6364  2.5043
   59MOL    H99 8335   0.028   5.092   4.331  1.5228 -1.1382  1.3360
   59MOL   C100 8336   0.265   5.307   4.565 -1.0289  0.7505 -0.6657
   59MOL   C101 8337   0.270   5.459   4.550 -0.3890 -0.6054  0.4666
   59MOL   O102 8338   0.197   5.279   4.688  0.4491  0.5779 -0.4298
   59MOL   H103 8339   0.364   5.263   4.560 -1.7483 -1.1557  0.8229
   59MOL   H104 8340   0.174   5.509   4.556 -0.9341 -1.6795  0.8775
   59MOL   H105 8341   0.300   5.480   4.447 -2.4451 -0.6323 -0.1502
   59MOL   H106 8342   0.335   5.501   4.626 -0.8804  0.7941  0.1248
   59MOL   C107 8343   0.258   5.182   4.769  0.3841 -0.1249  0.3835
   59MOL   C108 8344   0.362   5.244   4.855  0.4900 -0.4344  0.0916
   59MOL   O109 8345   0.166   5.125   4.852 -0.0220 -0.7795 -0.5638
   59MOL   H110 8346   0.315   5.109   4.712  0.6019  1.4875 -1.5303
   59MOL   H111 8347   0.408   5.173   4.924  0.0675  1.3400  2.2488
   59MOL   H112 8348   0.309   5.317   4.917  1.8450 -0.1229  0.9003
   59MOL   H113 8349   0.436   5.298   4.796 -0.3946  0.7165  0.0082
   59MOL   C114 8350   0.084   5.029   4.791 -1.2680 -0.2211 -0.1206
   59MOL   C115 8351   0.112   4.899   4.864 -0.7610  0.8864 -0.6306
   59MOL   O116 8352   7.863   5.052   4.807  0.2061  0.5704 -0.1012
   59MOL   H117 8353   0.103   5.006   4.686  0.9710 -0.1494  0.2508
   59MOL   H118 8354   0.078   4.906   4.968 -0.0880  1.0272 -0.4188
   59MOL   H119 8355   0.217   4.872   4.860 -0.6823  1.0470  0.2715
   59MOL   H120 8356   0.058   4.814   4.822  1.0946 -0.1432 -0.9901
   59MOL   C121 8357   7.813   5.146   4.723 -0.3651  0.2861  0.4453
   59MOL   C122 8358   7.722   5.076   4.619  0.7040  0.4421  0.3092
   59MOL   O123 8359   7.742   5.245   4.783 -0.2508 -0.0881 -0.2265
   59MOL   H124 8360   7.894   5.190   4.665  0.1757 -1.1480  0.0868
   59MOL   H125 8361   7.677   5.154   4.558 -0.6408  0.0943  0.8294
   59MOL   H126 8362   7.647   5.014   4.668  1.5584  0.2335  1.3889
   59MOL   H127 8363   7.788   5.016   4.556 -1.2936  1.2910 -2.6809
   59MOL   C128 8364   7.813   5.350   4.836 -0.1582  1.0001 -0.5763
   59MOL   C129 8365   7.763   5.471   4.766  0.3752  0.2030 -0.5020
   59MOL   O130 8366   7.785   5.366   4.974 -0.1751 -0.6311  0.3100
   59MOL   H131 8367   0.006   5.343   4.815  0.2062 -1.8782  1.9554
   59MOL   H132 8368   7.656   5.480   4.789  0.3975 -1.9022  0.5563
   59MOL   H133 8369   7.768   5.453   4.658  0.5614 -0.5290 -0.3676
   59MOL   H134 8370   7.823   5.559   4.791 -0.0693  0.7925 -1.4436
   59MOL   C135 8371   7.856   5.282   5.070  0.8210 -0.0559 -0.0999
   59MOL   C136 8372   7.807   5.333   5.212 -0.2403 -0.2471 -0.0109
   59MOL   O137 8373   7.830   5.148   5.060  0.1163  0.1548  0.6970
   59MOL   H138 8374   0.048   5.300   5.052  0.5357 -0.4345 -2.2753
   59MOL   H139 8375   7.866   5.294   5.295  0.4584  1.0329  0.1044
   59MOL   H140 8376   7.702   5.304   5.223 -0.3922  1.1720  2.9318
   59MOL   H141 8377   7.811   5.441   5.199  0.2976 -0.5631 -2.8559
   59MOL   H142 8378   7.850   5.111   4.975  0.5398 -0.6639  1.1376
   60MOL     C1 8379   0.627   2.556   2.541 -0.4896  0.3113  0.3037
   60MOL     C2 8380   0.718   2.666   2.488 -0.4445  0.1931  0.4593
   60MOL     O3 8381   0.484   2.584   2.517 -0.2731  0.4288  0.3726
   60MOL     H4 8382   0.639   2.565   2.649 -0.0397  2.2289  0.1167
   60MOL     H5 8383   0.716   2.671   2.379  1.6066 -1.3639  0.3377
   60MOL     H6 8384   0.820   2.641   2.514 -0.5738 -1.2853 -0.4040
   60MOL     H7 8385   0.694   2.767   2.523  2.5311  1.7265 -1.6939
   60MOL     H8 8386   0.660   2.456   2.513  0.7712 -0.2746  3.6449
   60MOL     C9 8387   0.397   2.499   2.580 -0.3068  0.5789 -0.7645
   60MOL    C10 8388   0.292   2.570   2.665 -0.3924  0.7768  0.2694
   60MOL    O11 8389   0.325   2.429   2.489 -0.5588 -0.5910 -0.3704
   60MOL    H12 8390   0.445   2.427   2.647 -2.1628 -2.1501 -2.2742
   60MOL    H13 8391   0.339   2.642   2.734  2.2164 -0.3502 -0.2696
   60MOL    H14 8392   0.248   2.496   2.731  0.2260 -0.0713 -0.2719
   60MOL    H15 8393   0.226   2.612   2.589 -1.6429 -0.4585  0.6612
   60MOL    C16 8394   0.394   2.344   2.399 -0.1196 -0.3012  0.2512
   60MOL    C17 8395   0.358   2.195   2.437 -0.8366  0.4877 -0.2998
   60MOL    O18 8396   0.366   2.365   2.262 -0.3158  0.4237  0.1885
   60MOL    H19 8397   0.502   2.356   2.403 -0.1839  0.6630 -0.7478
   60MOL    H20 8398   0.400   2.164   2.533 -0.6814 -1.8296 -1.0814
   60MOL    H21 8399   0.406   2.132   2.361  2.7394  0.1698  2.0967
   60MOL    H22 8400   0.250   2.185   2.434 -0.8481 -0.3445  1.7621
   60MOL    C23 8401   0.421   2.482   2.200 -0.3708  0.2307 -0.5438
   60MOL    C24 8402   0.481   2.431   2.064  0.0741 -0.1742  0.1725
   60MOL    O25 8403   0.328   2.581   2.159  0.6118 -0.3096 -0.1151
   60MOL    H26 8404   0.494   2.536   2.260 -0.3187 -1.8597  1.3317
   60MOL    H27 8405   0.554   2.350   2.074  0.2986 -0.0176 -0.2124
   60MOL    H28 8406   0.546   2.505   2.018  0.1004  0.3590  1.0462
   60MOL    H29 8407   0.404   2.392   1.997  0.0415  0.2129 -0.0160
   60MOL    C30 8408   0.264   2.647   2.260 -0.0243  0.4635 -0.1625
   60MOL    C31 8409   0.316   2.796   2.249 -0.2989  0.4027  0.0900
   60MOL    O32 8410   0.128   2.650   2.246 -0.1487  0.2411  0.6906
   60MOL    H33 8411   0.282   2.609   2.361 -1.8660  0.3650  0.1519
   60MOL    H34 8412   0.248   2.866   2.297 -1.7622  0.0148 -1.3535
   60MOL    H35 8413   0.321   2.820   2.143  2.0320  0.3048  0.1637
   60MOL    H36 8414   0.418   2.793   2.285 -0.4032 -2.4259  0.2521
   60MOL    C37 8415   0.066   2.521   2.251  0.3165 -0.6548  0.7901
   60MOL    C38 8416   7.907   2.520   2.393 -0.1685  0.5629 -0.1351
   60MOL    O39 8417   7.884   2.506   2.148 -0.2721  0.6088  0.3483
   60MOL    H40 8418   0.145   2.447   2.240  0.9561 -0.1889  2.1725
   60MOL    H41 8419   7.861   2.422   2.407  2.0862 -0.2562  1.8295
   60MOL    H42 8420   7.841   2.604   2.412 -1.1757 -0.5066  1.1774
   60MOL    H43 8421   0.063   2.533   2.476  0.9621 -2.9608 -0.4450
   60MOL    C44 8422   0.019   2.501   2.018 -0.3485  0.1285  0.2324
   60MOL    C45 8423   0.009   2.359   1.965 -0.4743  0.3786 -0.2883
   60MOL    O46 8424   7.861   2.577   1.933 -0.7515 -0.1711 -0.4737
   60MOL    H47 8425   0.127   2.517   2.022  0.0269 -2.0085 -0.3655
   60MOL    H48 8426   0.092   2.302   2.007 -0.7642  0.4810  0.4197
   60MOL    H49 8427   0.023   2.353   1.857  0.6754 -1.3768 -0.0733
   60MOL    H50 8428   7.827   2.309   1.979 -0.1779  0.4109  2.0020
   60MOL    C51 8429   7.897   2.710   1.940 -0.0995  0.1897 -0.2727
   60MOL    C52 8430   0.018   2.757   1.797  0.1355  0.1658  0.2787
   60MOL    O53 8431   7.784   2.785   1.980 -0.1545 -0.2017 -0.1994
   60MOL    H54 8432   0.071   2.732   2.001 -0.0255 -0.0036 -0.3094
   60MOL    H55 8433   7.845   2.732   1.735  0.5120 -1.9195  0.5514
   60MOL    H56 8434   0.112   2.711   1.768 -0.1765 -0.1548 -0.2482
   60MOL    H57 8435   0.027   2.864   1.782 -0.1913  0.0122 -1.1809
   60MOL    C58 8436   7.783   2.805   2.113 -1.3397  0.3890  0.2576
   60MOL    C59 8437   7.850   2.934   2.143  0.3886 -0.6505 -0.7565
   60MOL    O60 8438   7.650   2.813   2.154 -0.0546  0.3689  0.3750
   60MOL    H61 8439   7.832   2.728   2.174 -2.8787 -0.7481  0.0918
   60MOL    H62 8440   7.795   3.023   2.111  0.8124 -0.1386 -0.0537
   60MOL    H63 8441   0.037   2.935   2.101  0.9011 -0.7577  0.4525
   60MOL    H64 8442   7.852   2.935   2.252 -0.3237  0.2829 -0.7495
   60MOL    C65 8443   7.576   2.695   2.147  1.0727  0.0700  0.0574
   60MOL    C66 8444   7.544   2.650   2.290 -0.6696  0.6819 -0.3245
   60MOL    O67 8445   7.454   2.721   2.088  0.4917  0.3045  0.1329
   60MOL    H68 8446   7.630   2.615   2.095 -0.4614  0.2404 -1.8368
   60MOL    H69 8447   7.619   2.632   2.367 -1.5462 -0.4018  0.2852
   60MOL    H70 8448   7.484   2.559   2.283  1.8680 -1.1906  1.0930
   60MOL    H71 8449   7.478   2.726   2.332 -1.6722 -0.1767 -0.3253
   60MOL    C72 8450   7.454   2.745   1.948  0.2826 -0.1487  0.0960
   60MOL    C73 8451   7.374   2.623   1.893 -0.2185 -0.3399 -0.6446
   60MOL    O74 8452   7.391   2.864   1.905 -0.5847  0.3290  0.6463
   60MOL    H75 8453   7.556   2.742   1.911  0.8427 -0.7737  1.6205
   60MOL    H76 8454   7.439   2.536   1.890  3.2945  1.9941  2.4132
   60MOL    H77 8455   7.366   2.655   1.789  0.4427  1.3186 -0.2032
   60MOL    H78 8456   7.276   2.606   1.937  0.1148 -0.3735  0.1035
   60MOL    C79 8457   7.466   2.982   1.909 -0.4324  0.1491 -0.1170
   60MOL    C80 8458   7.504   3.014   1.769  0.1173 -0.2474 -0.4844
   60MOL    O81 8459   7.407   3.096   1.973  0.4855  0.5875 -0.2281
   60MOL    H82 8460   7.561   2.963   1.960 -0.5037 -0.1575 -0.1008
   60MOL    H83 8461   7.543   2.927   1.716  2.7879 -0.2419  1.3796
   60MOL    H84 8462   7.583   3.088   1.760 -0.1451  0.3864  2.0334
   60MOL    H85 8463   7.419   3.051   1.711  0.5316  0.4650 -0.6365
   60MOL    C86 8464   7.382   3.075   2.106  0.3033 -0.0026  0.3027
   60MOL    C87 8465   7.488   3.145   2.190  0.7283 -0.2681 -0.2017
   60MOL    O88 8466   7.253   3.121   2.144 -0.4418 -0.3690 -0.1419
   60MOL    H89 8467   7.393   2.969   2.128 -0.7157 -0.2193 -0.1924
   60MOL    H90 8468   7.492   3.116   2.295  1.9906  0.9457  0.1095
   60MOL    H91 8469   7.476   3.253   2.187  2.3995 -0.0141  1.2520
   60MOL    H92 8470   7.586   3.110   2.155  1.5932  0.9465  0.9505
   60MOL    C93 8471   7.148   3.082   2.057 -0.0748 -0.2720  0.0445
   60MOL    C94 8472   7.050   2.983   2.141 -0.1367  0.7527 -0.0808
   60MOL    O95 8473   7.079   3.194   2.017 -0.5832 -0.1726 -0.0705
   60MOL    H96 8474   7.173   3.022   1.970 -2.4036 -0.5861 -0.4373
   60MOL    H97 8475   7.025   3.028   2.237  1.1591  0.2373  0.5090
   60MOL    H98 8476   7.090   2.885   2.165  0.4715  0.5637 -1.7840
   60MOL    H99 8477   6.957   2.970   2.086  0.4056  0.5259 -0.9591
   60MOL   C100 8478   7.131   3.261   1.910  0.2360  0.4129 -0.1816
   60MOL   C101 8479   7.027   3.239   1.795  0.2030 -0.5554 -0.0752
   60MOL   O102 8480   7.144   3.399   1.926 -0.1659  0.4137 -0.1150
   60MOL   H103 8481   7.227   3.220   1.878 -0.1508  1.6070 -3.0505
   60MOL   H104 8482   7.068   3.277   1.702  0.1277 -0.7334 -0.1818
   60MOL   H105 8483   6.934   3.291   1.819  0.0237 -1.2478  0.7679
   60MOL   H106 8484   7.018   3.133   1.770  0.9557 -1.1763  2.1829
   60MOL   C107 8485   7.228   3.431   2.038 -0.1762 -0.3878 -0.2583
   60MOL   C108 8486   7.358   3.503   1.991  0.1119  0.0331 -0.3524
   60MOL   O109 8487   7.174   3.524   2.126 -0.1894 -0.3151  0.4777
   60MOL   H110 8488   7.261   3.344   2.095  3.4870 -0.2342 -2.0542
   60MOL   H111 8489   7.326   3.589   1.934  0.6168 -0.1664 -0.9346
   60MOL   H112 8490   7.420   3.439   1.927  1.3573  1.1471 -0.2674
   60MOL   H113 8491   7.423   3.535   2.073 -1.1295  0.5460  0.4565
   60MOL   C114 8492   7.054   3.492   2.185 -0.2601 -0.2614  0.1504
   60MOL   C115 8493   7.076   3.444   2.328  0.6758 -0.4214 -0.1302
   60MOL   O116 8494   6.984   3.610   2.207  0.1219 -0.1780 -0.3331
   60MOL   H117 8495   6.993   3.426   2.124 -2.3130  1.7203 -0.0376
   60MOL   H118 8496   6.982   3.416   2.375 -0.5038  2.2615 -0.7595
   60MOL   H119 8497   7.127   3.525   2.381 -0.5239  0.2396  0.0411
   60MOL   H120 8498   7.150   3.364   2.329  1.1353 -0.0313 -1.6143
   60MOL   C121 8499   6.930   3.670   2.091 -0.8413 -0.4001 -0.2438
   60MOL   C122 8500   6.816   3.584   2.029 -0.2577  0.7311 -0.1263
   60MOL   O123 8501   6.882   3.799   2.114  0.2294 -0.4642  0.4075
   60MOL   H124 8502   7.001   3.673   2.007  0.9295  2.7373  1.2643
   60MOL   H125 8503   6.866   3.497   1.986 -0.0046 -0.4089  2.3663
   60MOL   H126 8504   6.758   3.641   1.956 -0.0956 -0.1698 -0.9704
   60MOL   H127 8505   6.741   3.555   2.103 -0.6950 -0.3753 -0.9870
   60MOL   C128 8506   6.990   3.877   2.155 -0.0373  0.0169 -0.1638
   60MOL   C129 8507   7.006   3.990   2.053 -0.2080 -0.3995 -0.5795
   60MOL   O130 8508   6.952   3.946   2.277  0.2943  0.5889  0.8224
   60MOL   H131 8509   7.088   3.831   2.168  0.1292  0.7659  1.4348
   60MOL   H132 8510   6.914   4.032   2.010  0.6808  0.8279 -1.3160
   60MOL   H133 8511   7.058   3.949   1.966 -0.0913 -0.8501 -0.2972
   60MOL   H134 8512   7.061   4.071   2.101 -2.1381  3.1297 -3.9965
   60MOL   C135 8513   6.946   3.873   2.392  0.1135 -0.3614  1.0792
   60MOL   C136 8514   6.959   3.972   2.512 -0.6075 -0.3002 -0.1153
   60MOL   O137 8515   6.825   3.799   2.397  1.0752 -0.6569  0.4444
   60MOL   H138 8516   7.026   3.800   2.388 -0.3256 -0.7758 -0.5238
   60MOL   H139 8517   6.881   4.049   2.515  0.4760  0.9631 -2.6213
   60MOL   H140 8518   7.053   4.026   2.510 -0.4999 -0.4951 -0.3921
   60MOL   H141 8519   6.969   3.912   2.602 -0.9972  2.1946  1.6089
   60MOL   H142 8520   6.834   3.728   2.335  0.2713 -1.0448  0.7659
   61MOL     C1 8521   7.064   3.357   3.542 -0.2500 -0.1491 -0.1930
   61MOL     C2 8522   7.000   3.492   3.544  0.0156  0.2650 -0.0260
   61MOL     O3 8523   7.013   3.296   3.423 -0.0507  0.1686  0.1118
   61MOL     H4 8524   7.054   3.301   3.636  0.6041 -2.1845 -1.2790
   61MOL     H5 8525   6.891   3.490   3.553  0.0662  0.1003  0.5814
   61MOL     H6 8526   7.021   3.550   3.454  1.1277 -1.2934 -0.7910
   61MOL     H7 8527   7.033   3.544   3.634 -3.1601  0.1794  1.2539
   61MOL     H8 8528   7.167   3.389   3.524  0.3086 -0.9710  1.4398
   61MOL     C9 8529   7.073   3.179   3.392 -0.4138 -0.1271 -0.3415
   61MOL    C10 8530   6.993   3.061   3.450  0.1952  0.3345 -0.3125
   61MOL    O11 8531   7.089   3.161   3.258 -0.3442 -0.5037  0.4972
   61MOL    H12 8532   7.176   3.181   3.429  0.1577  0.1563 -1.9156
   61MOL    H13 8533   7.035   2.967   3.414  4.0313  1.6793  0.4009
   61MOL    H14 8534   6.888   3.067   3.422  0.5863 -3.5351 -3.0340
   61MOL    H15 8535   7.007   3.059   3.558 -2.2548 -1.1557 -0.0004
   61MOL    C16 8536   7.165   3.262   3.195 -0.4369  0.1548  0.9513
   61MOL    C17 8537   7.299   3.205   3.144  0.1003 -0.5666 -0.1457
   61MOL    O18 8538   7.099   3.307   3.080  0.2153 -0.2885  0.2995
   61MOL    H19 8539   7.190   3.341   3.265 -0.4408  0.2742  0.8187
   61MOL    H20 8540   7.366   3.289   3.127 -1.2197  0.4408 -0.4237
   61MOL    H21 8541   7.289   3.153   3.048 -0.0110 -1.5457  0.3925
   61MOL    H22 8542   7.352   3.137   3.210  1.2834 -0.3592 -0.8686
   61MOL    C23 8543   6.974   3.375   3.106 -0.7824  0.0359  0.1442
   61MOL    C24 8544   7.009   3.531   3.127  0.1375 -0.7393  0.0539
   61MOL    O25 8545   6.885   3.358   2.988  0.5256  0.5996 -0.2061
   61MOL    H26 8546   6.931   3.338   3.199  0.9720  1.7642  1.7018
   61MOL    H27 8547   6.914   3.583   3.114 -0.4637 -1.6707  0.6340
   61MOL    H28 8548   7.087   3.558   3.056 -0.1542 -1.4840 -0.5663
   61MOL    H29 8549   7.058   3.536   3.224 -0.7289 -1.4817  0.5425
   61MOL    C30 8550   6.848   3.222   2.962  0.7428 -1.2347 -0.2836
   61MOL    C31 8551   6.725   3.189   3.047 -0.0876  0.4338 -0.0465
   61MOL    O32 8552   6.811   3.212   2.829  0.4399  0.0416  0.1223
   61MOL    H33 8553   6.938   3.163   2.975  0.4197 -1.7199 -0.2521
   61MOL    H34 8554   6.690   3.088   3.023  0.4102 -0.2966  2.1217
   61MOL    H35 8555   6.652   3.269   3.049 -0.5640 -0.0175  1.4027
   61MOL    H36 8556   6.751   3.171   3.151 -1.1608 -3.6931 -0.3969
   61MOL    C37 8557   6.918   3.241   2.747 -0.1376  0.1146 -0.5790
   61MOL    C38 8558   6.970   3.107   2.706  0.2790  0.0251  0.3623
   61MOL    O39 8559   6.871   3.306   2.634  0.3462 -0.3111  0.0533
   61MOL    H40 8560   6.997   3.296   2.799 -0.2247 -0.8172  0.5811
   61MOL    H41 8561   7.008   3.056   2.794  1.1810  0.6041  0.3195
   61MOL    H42 8562   7.065   3.112   2.652  0.8943 -2.2870  1.1886
   61MOL    H43 8563   6.902   3.041   2.653  0.1744 -0.7197  1.4095
   61MOL    C44 8564   6.815   3.438   2.654  0.3538  0.2701  0.6419
   61MOL    C45 8565   6.916   3.552   2.662 -1.2614  0.0513  0.7902
   61MOL    O46 8566   6.733   3.475   2.552 -0.1916  0.1840  0.0004
   61MOL    H47 8567   6.756   3.431   2.745  1.9002  0.3280  1.6670
   61MOL    H48 8568   6.973   3.552   2.569  0.9670 -1.9958  2.1138
   61MOL    H49 8569   6.983   3.548   2.748 -0.8739 -1.7182  0.4238
   61MOL    H50 8570   6.873   3.652   2.659  2.0947  1.5067 -1.9803
   61MOL    C51 8571   6.597   3.438   2.573  0.6522  0.0098 -0.6722
   61MOL    C52 8572   6.524   3.571   2.601  0.8442 -0.5219 -0.4530
   61MOL    O53 8573   6.543   3.381   2.452 -0.1213 -0.6150 -0.0065
   61MOL    H54 8574   6.588   3.362   2.651 -3.4773  2.1915  1.1523
   61MOL    H55 8575   6.518   3.622   2.505  2.8851  1.1473  0.2548
   61MOL    H56 8576   6.573   3.638   2.672 -1.4058  0.9683 -0.2829
   61MOL    H57 8577   6.428   3.554   2.648  1.0984  0.6262  0.4963
   61MOL    C58 8578   6.582   3.256   2.427 -0.5840  0.0140 -0.0255
   61MOL    C59 8579   6.489   3.152   2.492 -0.0359 -0.1261  0.2813
   61MOL    O60 8580   6.573   3.218   2.291 -0.1251  0.1314 -0.4906
   61MOL    H61 8581   6.687   3.246   2.454 -0.5690  2.6383  1.0157
   61MOL    H62 8582   6.528   3.051   2.477 -0.0673 -0.1071  0.0713
   61MOL    H63 8583   6.390   3.148   2.446 -0.0586 -0.4998  0.3623
   61MOL    H64 8584   6.482   3.162   2.601 -0.0432  0.0327  0.2662
   61MOL    C65 8585   6.647   3.294   2.204  0.2397  0.5762  0.3953
   61MOL    C66 8586   6.791   3.245   2.202 -0.2162 -0.1032  0.1644
   61MOL    O67 8587   6.601   3.270   2.072  0.5158  0.7663  0.9408
   61MOL    H68 8588   6.635   3.401   2.220  0.4444  1.1434 -2.8587
   61MOL    H69 8589   6.844   3.287   2.116  1.1133 -0.4113  0.8148
   61MOL    H70 8590   6.795   3.138   2.181 -0.5057  0.0878 -0.9209
   61MOL    H71 8591   6.840   3.274   2.295 -0.6441  0.3512  0.2461
   61MOL    C72 8592   6.457   3.292   2.049 -0.0729  0.9932 -0.2584
   61MOL    C73 8593   6.440   3.421   1.974 -0.1471 -0.1732  0.0392
   61MOL    O74 8594   6.407   3.188   1.972 -1.0090  0.2312  0.2511
   61MOL    H75 8595   6.403   3.307   2.142 -2.0330  1.0375 -1.3736
   61MOL    H76 8596   6.478   3.407   1.873 -1.9353  0.4660 -0.7490
   61MOL    H77 8597   6.482   3.510   2.021 -0.2458  0.0675 -0.3196
   61MOL    H78 8598   6.334   3.445   1.959 -0.3146 -1.1564 -0.3518
   61MOL    C79 8599   6.432   3.058   2.026 -0.6356  0.4189  0.2453
   61MOL    C80 8600   6.302   3.005   2.069  0.2230 -0.9267 -0.2083
   61MOL    O81 8601   6.475   2.969   1.928 -0.5780 -0.5735  0.0640
   61MOL    H82 8602   6.493   3.062   2.116 -0.9488 -0.6651  0.5090
   61MOL    H83 8603   6.225   3.024   1.995 -0.6581 -0.3861  0.8272
   61MOL    H84 8604   6.269   3.052   2.162 -0.9326  0.8574 -1.4830
   61MOL    H85 8605   6.309   2.900   2.097  1.0406 -1.0796 -0.9722
   61MOL    C86 8606   6.599   3.002   1.879  0.7207 -0.5999  0.6570
   61MOL    C87 8607   6.711   2.928   1.945 -0.0742 -0.7015  0.5683
   61MOL    O88 8608   6.607   2.971   1.741 -0.3884 -1.1633  0.4042
   61MOL    H89 8609   6.608   3.111   1.876 -0.7245 -0.5054 -0.9612
   61MOL    H90 8610   6.717   2.951   2.051 -3.2380  3.2650 -0.0048
   61MOL    H91 8611   6.808   2.951   1.903 -0.0848  0.2328  1.0421
   61MOL    H92 8612   6.678   2.825   1.930 -1.5325  0.0394 -1.5428
   61MOL    C93 8613   6.554   3.073   1.660 -0.3062 -0.5313 -0.1942
   61MOL    C94 8614   6.672   3.171   1.636  0.4564  0.5114  0.4981
   61MOL    O95 8615   6.506   3.031   1.536 -0.2843 -0.6994 -0.2410
   61MOL    H96 8616   6.468   3.117   1.709 -0.4806  0.4014 -1.3310
   61MOL    H97 8617   6.642   3.249   1.566  1.6828  1.0535  0.5726
   61MOL    H98 8618   6.753   3.115   1.591 -0.8196 -1.1447  0.2012
   61MOL    H99 8619   6.723   3.212   1.723 -1.5657 -1.0967  2.4925
   61MOL   C100 8620   6.397   2.947   1.550 -0.5580  0.3166 -0.2429
   61MOL   C101 8621   6.273   3.037   1.570  0.7499 -0.3308 -0.3258
   61MOL   O102 8622   6.389   2.870   1.430  0.7553 -0.1125  0.1942
   61MOL   H103 8623   6.411   2.879   1.634  2.3265 -1.2654 -1.9278
   61MOL   H104 8624   6.276   3.082   1.669  0.0871  0.3032 -0.5894
   61MOL   H105 8625   6.178   2.984   1.567  0.4782 -0.0518  2.5036
   61MOL   H106 8626   6.282   3.108   1.487 -2.6397 -0.1812 -0.6158
   61MOL   C107 8627   6.498   2.792   1.406  0.6684  0.8274  0.0758
   61MOL   C108 8628   6.494   2.672   1.498 -0.0601 -0.0541  0.2112
   61MOL   O109 8629   6.485   2.748   1.271 -0.1319 -0.4227 -0.0464
   61MOL   H110 8630   6.592   2.848   1.404  1.1676 -0.0200 -1.8377
   61MOL   H111 8631   6.526   2.696   1.600  0.7843  0.1245 -0.0910
   61MOL   H112 8632   6.562   2.594   1.464  1.0615  1.0663 -0.1287
   61MOL   H113 8633   6.397   2.622   1.495 -0.6240  1.1397 -2.0447
   61MOL   C114 8634   6.496   2.848   1.172  0.4002  0.0271 -0.6626
   61MOL   C115 8635   6.645   2.856   1.127 -0.6279 -0.3233  0.0902
   61MOL   O116 8636   6.427   2.821   1.059 -0.2877 -0.2517 -0.3582
   61MOL   H117 8637   6.464   2.946   1.208  0.9004 -0.4895  1.2011
   61MOL   H118 8638   6.714   2.878   1.209  0.6209  1.2418 -1.3332
   61MOL   H119 8639   6.652   2.933   1.050  1.4626  1.3469  1.8786
   61MOL   H120 8640   6.678   2.762   1.084  2.5492  0.8014 -0.0423
   61MOL   C121 8641   6.291   2.821   1.083  0.0280 -0.6920  0.8770
   61MOL   C122 8642   6.236   2.955   1.053 -1.1811 -0.6072 -0.1628
   61MOL   O123 8643   6.233   2.725   0.998 -0.0183  0.4397  0.4471
   61MOL   H124 8644   6.268   2.791   1.186 -1.0469 -0.0554  0.8314
   61MOL   H125 8645   6.261   2.991   0.953 -0.9202  1.8244  0.7400
   61MOL   H126 8646   6.274   3.020   1.132 -0.7606 -0.1339 -0.7494
   61MOL   H127 8647   6.127   2.948   1.055 -1.3096  1.1095 -0.2556
   61MOL   C128 8648   6.234   2.602   1.068  0.0962 -0.5204  0.2787
   61MOL   C129 8649   6.090   2.568   1.113  0.9516  0.8319  0.2377
   61MOL   O130 8650   6.281   2.500   0.987  0.8579  0.0906  0.5052
   61MOL   H131 8651   6.304   2.601   1.152  0.4833 -1.7155 -0.0497
   61MOL   H132 8652   6.084   2.460   1.131 -2.1096  1.2385  1.8952
   61MOL   H133 8653   6.013   2.600   1.044  0.6507 -2.4268 -1.0227
   61MOL   H134 8654   6.081   2.615   1.211  1.5732  0.5735  0.4245
   61MOL   C135 8655   6.414   2.505   0.956 -0.2975 -0.1327  0.2283
   61MOL   C136 8656   6.463   2.376   0.884  0.3887  0.0897 -0.8585
   61MOL   O137 8657   6.454   2.611   0.875 -0.0245 -0.1470 -0.2457
   61MOL   H138 8658   6.467   2.516   1.051  1.0405 -0.3570 -0.4905
   61MOL   H139 8659   6.572   2.375   0.886  0.3935 -0.5142 -1.1765
   61MOL   H140 8660   6.440   2.357   0.779  0.4960 -0.6723 -0.7490
   61MOL   H141 8661   6.421   2.290   0.935 -0.3406  0.0709 -1.4797
   61MOL   H142 8662   6.431   2.684   0.930  0.9980 -1.2636  1.7210
   62MOL     C1 8663   2.873   1.770   4.288  0.2500 -0.2466 -0.5654
   62MOL     C2 8664   2.784   1.647   4.295  0.6361  0.4718  0.0980
   62MOL     O3 8665   2.795   1.886   4.307  0.0665 -0.2368  0.1239
   62MOL     H4 8666   2.912   1.778   4.187  1.0224 -0.6556 -0.3036
   62MOL     H5 8667   2.822   1.557   4.247 -2.1959 -0.5564 -0.3306
   62MOL     H6 8668   2.688   1.661   4.245  1.4076  0.8288 -1.3081
   62MOL     H7 8669   2.762   1.631   4.401 -1.5544 -1.5383 -0.6029
   62MOL     H8 8670   2.959   1.759   4.354  0.1050  1.4337 -0.0949
   62MOL     C9 8671   2.864   2.003   4.312  0.2171  0.1580  0.9073
   62MOL    C10 8672   2.792   2.107   4.221  0.2022  0.3215  0.8024
   62MOL    O11 8673   2.854   2.060   4.443 -0.4422 -0.3519  0.5463
   62MOL    H12 8674   2.970   2.003   4.289 -0.6183  0.6491 -3.2265
   62MOL    H13 8675   2.683   2.098   4.227  0.0438 -0.4115 -2.2056
   62MOL    H14 8676   2.826   2.093   4.118  0.8252  2.1596  0.7441
   62MOL    H15 8677   2.819   2.207   4.252 -1.0133  1.8261 -2.6931
   62MOL    C16 8678   2.920   1.988   4.545  0.1749 -0.0173  0.3494
   62MOL    C17 8679   3.035   2.085   4.583  0.5931  0.0271  0.2778
   62MOL    O18 8680   2.844   1.979   4.657 -0.7386  0.1759 -0.0257
   62MOL    H19 8681   2.960   1.890   4.516  1.0351  0.6927 -0.9103
   62MOL    H20 8682   2.991   2.169   4.636  0.2153 -0.3112  0.5106
   62MOL    H21 8683   3.089   2.118   4.494 -0.5567 -0.0697 -0.4608
   62MOL    H22 8684   3.108   2.042   4.652  1.3048 -1.2150 -1.2004
   62MOL    C23 8685   2.715   1.920   4.643 -0.2231 -1.0082 -0.1982
   62MOL    C24 8686   2.722   1.789   4.729  0.5787  1.3329  0.3738
   62MOL    O25 8687   2.614   1.998   4.696  0.5503 -0.0787  0.2739
   62MOL    H26 8688   2.701   1.883   4.541  0.7485  1.5227 -1.3036
   62MOL    H27 8689   2.629   1.733   4.733 -1.0527  3.5448 -2.9910
   62MOL    H28 8690   2.735   1.821   4.832  0.6576 -1.4120  1.2285
   62MOL    H29 8691   2.804   1.723   4.701 -0.6576 -0.4107  0.7750
   62MOL    C30 8692   2.580   2.114   4.623  0.2687  0.3778  0.1408
   62MOL    C31 8693   2.436   2.093   4.553 -1.1050  0.1251  0.5014
   62MOL    O32 8694   2.577   2.233   4.704  0.4480  0.1566  0.7826
   62MOL    H33 8695   2.652   2.131   4.543  0.1853 -0.3709 -0.0985
   62MOL    H34 8696   2.349   2.089   4.619 -1.0718 -0.5012  0.5104
   62MOL    H35 8697   2.446   1.995   4.506  0.5347  0.1469  0.7720
   62MOL    H36 8698   2.414   2.179   4.490 -0.3155 -0.0495 -0.0180
   62MOL    C37 8699   2.697   2.272   4.761 -0.2376 -0.2471 -0.1415
   62MOL    C38 8700   2.727   2.417   4.711 -0.4606 -0.1309 -0.2399
   62MOL    O39 8701   2.685   2.282   4.899  0.4437  0.0171  0.3950
   62MOL    H40 8702   2.784   2.214   4.730 -0.3911  0.1115 -1.2754
   62MOL    H41 8703   2.739   2.426   4.603  0.0457  1.0145 -0.1003
   62MOL    H42 8704   2.814   2.445   4.770 -1.6180  2.0367  0.5133
   62MOL    H43 8705   2.657   2.493   4.746 -0.8218 -0.0183 -1.1953
   62MOL    C44 8706   2.708   2.167   4.971 -0.5013  0.3239  0.1412
   62MOL    C45 8707   2.841   2.175   5.044  0.1058 -0.3565 -0.2292
   62MOL    O46 8708   2.615   2.130   5.069  0.2889  0.1135 -0.0041
   62MOL    H47 8709   2.708   2.083   4.902 -2.6725  0.7031 -0.3535
   62MOL    H48 8710   2.926   2.181   4.977 -0.5579  0.1770 -1.0279
   62MOL    H49 8711   2.851   2.096   5.119 -1.6162  1.1243  1.6423
   62MOL    H50 8712   2.843   2.260   5.113  0.3877 -0.2013 -0.4298
   62MOL    C51 8713   2.491   2.102   5.010 -0.5573 -0.5097  0.1272
   62MOL    C52 8714   2.472   1.955   5.043  0.4795  0.0296  1.2041
   62MOL    O53 8715   2.381   2.174   5.067 -0.2076 -0.1733 -0.0895
   62MOL    H54 8716   2.493   2.124   4.903 -0.9459  0.6464  0.3462
   62MOL    H55 8717   2.546   1.895   4.990 -1.7107 -1.6921 -0.0113
   62MOL    H56 8718   2.374   1.922   5.008  2.2239 -3.4088 -0.7490
   62MOL    H57 8719   2.483   1.928   5.148  1.3837 -0.7267  0.9270
   62MOL    C58 8720   2.371   2.314   5.028 -0.0462 -0.2564  0.1788
   62MOL    C59 8721   2.258   2.315   4.924 -0.1495 -0.0409 -0.2486
   62MOL    O60 8722   2.322   2.389   5.133  0.0374  0.3611 -1.3169
   62MOL    H61 8723   2.459   2.348   4.973 -0.6997  0.3902 -0.4706
   62MOL    H62 8724   2.175   2.270   4.978  1.0422 -2.0921 -0.0745
   62MOL    H63 8725   2.286   2.251   4.840  1.2624  0.7758 -0.4087
   62MOL    H64 8726   2.252   2.420   4.895  4.2484  0.9171  1.8839
   62MOL    C65 8727   2.424   2.422   5.220  0.4202 -0.0233 -0.3509
   62MOL    C66 8728   2.446   2.567   5.212  0.7475  0.1499 -0.0359
   62MOL    O67 8729   2.387   2.396   5.351  0.7260 -0.2418  0.3710
   62MOL    H68 8730   2.519   2.372   5.201  2.1534  2.2658  2.0269
   62MOL    H69 8731   2.349   2.616   5.225  0.1054 -0.8575 -0.9082
   62MOL    H70 8732   2.485   2.598   5.116 -0.2996  0.7152 -0.2863
   62MOL    H71 8733   2.520   2.603   5.284 -1.4418  2.5028  1.1305
   62MOL    C72 8734   2.407   2.266   5.395 -0.6085  0.4314  0.2340
   62MOL    C73 8735   2.518   2.261   5.492 -0.1309 -0.1885  0.5924
   62MOL    O74 8736   2.304   2.221   5.470 -0.5534  0.6046  0.7988
   62MOL    H75 8737   2.431   2.189   5.322  2.6007  1.1898  0.4088
   62MOL    H76 8738   2.526   2.154   5.509 -2.1349 -0.2060  1.5857
   62MOL    H77 8739   2.498   2.318   5.582  1.9494 -0.9711  1.5702
   62MOL    H78 8740   2.609   2.285   5.437 -1.5407  0.1434 -1.6858
   62MOL    C79 8741   2.210   2.140   5.405 -0.1977 -0.1406 -0.7169
   62MOL    C80 8742   2.220   2.005   5.473  0.3786 -0.1863  1.0639
   62MOL    O81 8743   2.081   2.178   5.431 -0.0341 -0.4561 -0.0813
   62MOL    H82 8744   2.217   2.131   5.297  1.8595 -0.6341 -0.5746
   62MOL    H83 8745   2.149   1.931   5.436  0.3454  0.4767 -0.2318
   62MOL    H84 8746   2.209   2.014   5.581 -0.9316 -0.0094  0.9240
   62MOL    H85 8747   2.319   1.966   5.454  1.1919  1.7704  1.1000
   62MOL    C86 8748   2.044   2.298   5.374  0.1398 -0.3989 -0.6440
   62MOL    C87 8749   1.922   2.269   5.284 -0.0647 -0.2751  0.5330
   62MOL    O88 8750   1.990   2.384   5.468  0.0559 -0.0673 -0.2734
   62MOL    H89 8751   2.119   2.350   5.315 -0.3937  0.9137 -0.2024
   62MOL    H90 8752   1.858   2.357   5.276  0.7313  0.2324 -0.4559
   62MOL    H91 8753   1.861   2.190   5.327 -0.6934 -0.0418  0.0772
   62MOL    H92 8754   1.955   2.235   5.186 -1.0340 -1.5932  0.6534
   62MOL    C93 8755   2.084   2.448   5.545 -0.0902  0.1087  0.0191
   62MOL    C94 8756   2.082   2.602   5.511  0.0761 -0.3247 -0.1402
   62MOL    O95 8757   2.042   2.433   5.681  0.5244  0.0687 -0.5032
   62MOL    H96 8758   2.181   2.400   5.539 -0.6935 -1.2523  0.6788
   62MOL    H97 8759   2.106   2.620   5.406  1.4736  0.9775  0.3859
   62MOL    H98 8760   2.155   2.655   5.573 -0.6829 -0.4302  0.8624
   62MOL    H99 8761   1.981   2.641   5.523 -0.9234 -2.4273 -1.4512
   62MOL   C100 8762   2.079   2.315   5.747 -0.5227 -0.2205 -0.2299
   62MOL   C101 8763   2.198   2.336   5.842 -0.5650 -0.1650  0.1323
   62MOL   O102 8764   1.970   2.272   5.829  0.1344 -0.1891  0.0030
   62MOL   H103 8765   2.113   2.233   5.684  0.7017  0.9682 -1.1414
   62MOL   H104 8766   2.178   2.417   5.912 -4.3912 -1.5203  0.7031
   62MOL   H105 8767   2.289   2.363   5.788  0.9069 -2.9725  1.0955
   62MOL   H106 8768   2.210   2.238   5.887  2.2861 -0.1982 -0.5834
   62MOL   C107 8769   1.860   2.225   5.759 -0.0994  0.3733  0.4278
   62MOL   C108 8770   1.863   2.078   5.777 -0.3773 -0.0433  0.2745
   62MOL   O109 8771   1.745   2.267   5.829 -0.0837 -0.0704 -0.0553
   62MOL   H110 8772   1.862   2.257   5.654 -1.2265 -0.5012  0.1413
   62MOL   H111 8773   1.951   2.021   5.746  0.6301  1.5817  0.0781
   62MOL   H112 8774   1.769   2.044   5.736  0.0060 -0.0261 -0.6188
   62MOL   H113 8775   1.855   2.062   5.885 -0.2223 -2.8543 -0.0955
   62MOL   C114 8776   1.702   2.394   5.794  0.5571  0.1681 -0.2169
   62MOL   C115 8777   1.590   2.373   5.696  0.2438  0.3336  0.9306
   62MOL   O116 8778   1.658   2.465   5.905  0.2945 -0.1960 -0.9663
   62MOL   H117 8779   1.774   2.455   5.739  2.0548  0.7701  2.3530
   62MOL   H118 8780   1.625   2.333   5.601  1.2257  0.2661  1.3129
   62MOL   H119 8781   1.537   2.469   5.698 -1.9028 -0.8227  1.2400
   62MOL   H120 8782   1.519   2.297   5.730 -1.1401  0.0159 -2.5001
   62MOL   C121 8783   1.767   2.500   5.986  0.6508 -0.5735 -0.1651
   62MOL   C122 8784   1.773   2.651   5.997  0.4231  0.7037 -0.9565
   62MOL   O123 8785   1.741   2.455   6.122 -0.0305  0.1565 -0.1113
   62MOL   H124 8786   1.868   2.471   5.959  0.9773  1.5877 -1.3671
   62MOL   H125 8787   1.858   2.677   6.060  1.2939  0.1916 -1.9061
   62MOL   H126 8788   1.688   2.686   6.055 -1.2975 -2.8249 -1.1716
   62MOL   H127 8789   1.790   2.693   5.898  0.8998 -1.4663 -1.8416
   62MOL   C128 8790   1.797   2.328   6.147  0.2951 -0.2996 -0.3305
   62MOL   C129 8791   1.910   2.361   6.242  0.1520  0.4301  0.1599
   62MOL   O130 8792   1.711   2.245   6.219  0.0533 -0.6676  0.0589
   62MOL   H131 8793   1.835   2.280   6.057 -1.5097 -0.9267 -0.7901
   62MOL   H132 8794   1.986   2.410   6.182 -0.9563  0.7653 -0.9831
   62MOL   H133 8795   1.949   2.263   6.270  3.5546  1.9931  1.1745
   62MOL   H134 8796   1.882   2.408   6.336 -0.6871 -0.7503  0.5069
   62MOL   C135 8797   1.615   2.179   6.153 -0.4657  0.3644  0.0234
   62MOL   C136 8798   1.557   2.078   6.255 -0.2471 -0.2712  0.3454
   62MOL   O137 8799   1.514   2.268   6.104  0.1743  0.4856  0.3052
   62MOL   H138 8800   1.667   2.125   6.073  1.4743  0.5679  1.1131
   62MOL   H139 8801   1.520   2.144   6.334  2.3559 -0.6354  1.9716
   62MOL   H140 8802   1.637   2.027   6.309  1.0040 -0.3467 -1.5544
   62MOL   H141 8803   1.482   2.016   6.207  1.4930  0.3560 -3.3499
   62MOL   H142 8804   1.561   2.320   6.041  0.8675 -0.1369  0.3024
   63MOL     C1 8805   3.318   0.921   0.011  0.2366  0.8683 -1.0094
   63MOL     C2 8806   3.242   0.822   0.098 -0.3649 -0.3064  0.7169
   63MOL     O3 8807   3.452   0.935   0.063  0.2032  0.3876 -0.0216
   63MOL     H4 8808   3.267   1.017   0.017 -1.8228 -0.2282 -0.3054
   63MOL     H5 8809   3.141   0.825   0.057 -0.9792  1.0206  2.2735
   63MOL     H6 8810   3.241   0.852   0.203  2.4953 -0.9903  0.9819
   63MOL     H7 8811   3.276   0.719   0.090  0.2818 -0.0704  0.3552
   63MOL     H8 8812   3.316   0.879   7.825  0.7829 -4.8461  1.1678
   63MOL     C9 8813   3.547   0.978   7.879 -0.3182  0.1423  0.5509
   63MOL    C10 8814   3.541   1.136   7.863  0.1313 -0.2083  0.0822
   63MOL    O11 8815   3.677   0.960   0.013  0.2951  0.5363 -0.7686
   63MOL    H12 8816   3.539   0.929   7.782 -3.0916  1.4779  0.0609
   63MOL    H13 8817   3.627   1.179   7.812 -0.5883  2.1720  0.7994
   63MOL    H14 8818   3.554   1.168   0.053 -0.9851 -0.7344  0.3961
   63MOL    H15 8819   3.451   1.166   7.810  0.2415 -3.0246 -1.7788
   63MOL    C16 8820   3.719   0.829   0.018  0.0367  0.0494 -0.4614
   63MOL    C17 8821   3.829   0.827   7.823 -0.4706 -0.0082 -0.2059
   63MOL    O18 8822   3.782   0.802   0.140  0.3861  0.0321 -0.3486
   63MOL    H19 8823   3.647   0.748   0.006  1.1865 -1.0477  0.0541
   63MOL    H20 8824   3.861   0.724   7.811 -3.1220 -0.9578  0.6079
   63MOL    H21 8825   3.911   0.899   7.831  1.5478 -2.4550  2.3288
   63MOL    H22 8826   3.781   0.860   7.731  0.6577 -1.5958 -1.3929
   63MOL    C23 8827   3.701   0.803   0.249 -0.2960 -0.1670 -0.1486
   63MOL    C24 8828   3.629   0.668   0.254 -0.4339 -0.0646  0.0292
   63MOL    O25 8829   3.764   0.828   0.367  0.0147 -0.0016  0.5848
   63MOL    H26 8830   3.625   0.880   0.240 -0.9908 -0.6796  1.1720
   63MOL    H27 8831   3.578   0.655   0.349  1.0294  0.7610  0.9387
   63MOL    H28 8832   3.692   0.580   0.256 -1.4105 -0.8299 -1.7552
   63MOL    H29 8833   3.571   0.642   0.165  1.9314 -0.8808 -1.3075
   63MOL    C30 8834   3.811   0.961   0.377 -0.0764 -0.2190  0.1202
   63MOL    C31 8835   3.742   1.016   0.493 -0.4013 -0.0696  0.7694
   63MOL    O32 8836   3.949   0.961   0.404 -0.0388  0.4657  0.2303
   63MOL    H33 8837   3.794   1.021   0.288 -1.3825 -1.7735 -0.7146
   63MOL    H34 8838   3.783   1.110   0.529 -1.4082  0.0061  1.7441
   63MOL    H35 8839   3.753   0.937   0.567  0.3048 -1.6366 -0.9623
   63MOL    H36 8840   3.640   1.035   0.462 -0.7542 -0.8622  1.4228
   63MOL    C37 8841   4.029   0.971   0.296  0.1427  0.1412  0.4630
   63MOL    C38 8842   4.085   1.112   0.326  0.4046 -0.1318  0.4527
   63MOL    O39 8843   4.136   0.872   0.292 -0.1872 -0.3445 -0.0598
   63MOL    H40 8844   3.989   0.959   0.196  1.0113 -2.2532  0.3731
   63MOL    H41 8845   4.158   1.137   0.248  1.0631  0.5650  1.2863
   63MOL    H42 8846   4.130   1.113   0.425  1.3942  0.9164  0.0120
   63MOL    H43 8847   4.011   1.193   0.321  0.0169 -0.6251 -3.9457
   63MOL    C44 8848   4.099   0.739   0.272 -0.0881 -0.1393  0.0732
   63MOL    C45 8849   4.169   0.696   0.140 -0.2017 -0.1178 -0.0730
   63MOL    O46 8850   4.154   0.663   0.378  0.1058 -0.7224 -0.4649
   63MOL    H47 8851   3.991   0.728   0.260 -0.4883  2.1355  1.2239
   63MOL    H48 8852   4.133   0.756   0.057  0.0599 -1.0023 -0.8439
   63MOL    H49 8853   4.146   0.592   0.114  1.6743  0.0138 -2.4600
   63MOL    H50 8854   4.276   0.707   0.157 -0.4043 -0.3771  1.4447
   63MOL    C51 8855   4.059   0.605   0.468 -0.3760 -1.0630 -0.2925
   63MOL    C52 8856   4.053   0.452   0.445  0.3043 -0.2766  0.7509
   63MOL    O53 8857   4.117   0.622   0.595  0.4158 -0.1367  0.1951
   63MOL    H54 8858   3.960   0.650   0.463 -0.3510 -1.1740 -1.7783
   63MOL    H55 8859   4.153   0.409   0.439  0.1988 -0.3067 -1.3947
   63MOL    H56 8860   3.999   0.423   0.355  0.6530  0.2616  0.3656
   63MOL    H57 8861   4.008   0.410   0.535  1.8323 -2.7989  0.4080
   63MOL    C58 8862   4.059   0.719   0.678 -0.6550  0.2117 -0.7527
   63MOL    C59 8863   3.975   0.643   0.783 -0.1881 -0.3234 -0.2536
   63MOL    O60 8864   4.163   0.796   0.737  0.6527 -0.1547  0.1196
   63MOL    H61 8865   3.996   0.795   0.632 -1.4089  1.0791  1.6115
   63MOL    H62 8866   3.901   0.696   0.843  0.7923 -0.3642  1.0296
   63MOL    H63 8867   4.043   0.587   0.849  1.6375 -0.4345 -2.1745
   63MOL    H64 8868   3.922   0.572   0.720  2.4093 -1.8921 -0.7457
   63MOL    C65 8869   4.236   0.874   0.651  0.3046 -0.5100 -0.5101
   63MOL    C66 8870   4.199   1.019   0.674  0.7024  0.2554  0.2215
   63MOL    O67 8871   4.372   0.876   0.684  0.2173 -0.0339 -0.1596
   63MOL    H68 8872   4.217   0.857   0.545  1.8477 -0.7049 -0.7657
   63MOL    H69 8873   4.266   1.076   0.610  0.2426 -0.2011 -0.6778
   63MOL    H70 8874   4.223   1.041   0.778  1.1871  1.5295 -0.1484
   63MOL    H71 8875   4.097   1.042   0.646  0.8890  0.8782  0.0488
   63MOL    C72 8876   4.442   0.767   0.622 -0.6097 -0.1352 -0.1024
   63MOL    C73 8877   4.541   0.828   0.520  0.0811 -0.6047  0.1281
   63MOL    O74 8878   4.521   0.694   0.718  0.0801 -0.3344  0.0385
   63MOL    H75 8879   4.371   0.692   0.587  0.9740 -1.3290 -0.8298
   63MOL    H76 8880   4.619   0.761   0.483  2.5017  2.1023  0.1594
   63MOL    H77 8881   4.604   0.904   0.565 -2.6291  0.6182  2.0184
   63MOL    H78 8882   4.481   0.856   0.434  1.0947 -1.2482 -0.7983
   63MOL    C79 8883   4.447   0.627   0.815  1.0134  0.8111 -0.1744
   63MOL    C80 8884   4.447   0.478   0.786 -0.2699 -0.7544  0.4063
   63MOL    O81 8885   4.498   0.652   0.938 -0.4581  0.0649  0.3386
   63MOL    H82 8886   4.344   0.661   0.827  0.6504 -0.5315  0.6237
   63MOL    H83 8887   4.394   0.458   0.692 -3.0213 -1.4630  2.0457
   63MOL    H84 8888   4.403   0.421   0.868 -2.0076 -0.9061 -0.6070
   63MOL    H85 8889   4.552   0.452   0.777 -1.0241 -3.0896 -2.2980
   63MOL    C86 8890   4.481   0.786   0.982 -0.0482  0.4654  0.1516
   63MOL    C87 8891   4.348   0.794   1.064 -0.0177 -0.0829 -0.0176
   63MOL    O88 8892   4.578   0.834   1.070 -0.1341  0.1776  0.0292
   63MOL    H89 8893   4.477   0.868   0.911 -0.9565  1.0896  0.9199
   63MOL    H90 8894   4.347   0.891   1.115  1.0249  0.4298 -0.9563
   63MOL    H91 8895   4.355   0.723   1.147 -1.0153  0.5426  0.6179
   63MOL    H92 8896   4.263   0.775   0.999 -0.5818 -1.5211  1.1135
   63MOL    C93 8897   4.700   0.844   1.007 -0.0391 -0.1320 -0.2543
   63MOL    C94 8898   4.720   0.984   0.957  0.6302  0.4242 -0.3451
   63MOL    O95 8899   4.802   0.818   1.100 -0.1136 -0.0778 -0.1132
   63MOL    H96 8900   4.709   0.779   0.920 -1.6967 -0.4311 -0.2202
   63MOL    H97 8901   4.677   0.995   0.857  1.0468 -0.4883 -0.6275
   63MOL    H98 8902   4.827   0.992   0.938  0.9195 -2.8362 -0.3920
   63MOL    H99 8903   4.684   1.070   1.013 -0.5587 -0.5131  0.3520
   63MOL   C100 8904   4.794   0.693   1.168 -0.1329 -0.2101 -0.3564
   63MOL   C101 8905   4.900   0.599   1.110 -0.1364 -0.8185  1.1223
   63MOL   O102 8906   4.818   0.716   1.307  0.1229  0.0915 -0.1516
   63MOL   H103 8907   4.694   0.649   1.158 -0.8666  1.4718 -0.6910
   63MOL   H104 8908   4.863   0.556   1.017  1.5502  1.6986 -0.7603
   63MOL   H105 8909   4.925   0.524   1.185 -1.2012 -0.2409  2.0808
   63MOL   H106 8910   4.990   0.655   1.086 -0.1040 -1.3523 -0.0385
   63MOL   C107 8911   4.708   0.756   1.386 -0.3490  0.3615 -0.0064
   63MOL   C108 8912   4.704   0.644   1.489  0.4557  0.2330  0.1340
   63MOL   O109 8913   4.746   0.875   1.441 -0.5783  0.1702  0.3937
   63MOL   H110 8914   4.621   0.772   1.323  0.6772 -1.0540 -1.8196
   63MOL   H111 8915   4.607   0.637   1.538 -1.7608 -1.3357 -4.2228
   63MOL   H112 8916   4.782   0.664   1.563  1.1426  0.3898 -0.6210
   63MOL   H113 8917   4.731   0.547   1.448  0.4662  0.7412 -1.0804
   63MOL   C114 8918   4.642   0.936   1.513  0.7156  0.4133 -0.3630
   63MOL   C115 8919   4.693   1.061   1.580  0.3939 -0.3210  0.3640
   63MOL   O116 8920   4.532   0.976   1.438 -0.3554 -0.1250 -0.4913
   63MOL   H117 8921   4.613   0.871   1.595  0.4140  0.8951 -0.0849
   63MOL   H118 8922   4.731   1.120   1.496 -0.2287 -0.5826 -0.1092
   63MOL   H119 8923   4.767   1.037   1.656  0.2537 -0.8188  0.3502
   63MOL   H120 8924   4.608   1.109   1.627 -0.6550 -0.8326 -0.9716
   63MOL   C121 8925   4.408   0.926   1.484  0.9515  0.2105  0.7081
   63MOL   C122 8926   4.298   1.012   1.415 -0.2311 -0.4726 -0.0070
   63MOL   O123 8927   4.402   0.789   1.446 -0.4800  0.1133  0.5581
   63MOL   H124 8928   4.410   0.945   1.591 -0.8085  3.2033  0.2961
   63MOL   H125 8929   4.312   0.993   1.309  0.2273 -1.8666  0.2938
   63MOL   H126 8930   4.308   1.117   1.443 -0.2223 -0.1306 -1.2647
   63MOL   H127 8931   4.196   0.983   1.441 -0.5299  0.5556 -0.0084
   63MOL   C128 8932   4.313   0.706   1.508  0.2620 -0.6660 -0.0049
   63MOL   C129 8933   4.315   0.573   1.436  0.7072 -0.7743  0.1922
   63MOL   O130 8934   4.333   0.687   1.645  0.0953  0.5909  0.0475
   63MOL   H131 8935   4.222   0.762   1.489  1.4462  0.4054 -2.7486
   63MOL   H132 8936   4.414   0.533   1.460  1.2837  1.2206  1.2979
   63MOL   H133 8937   4.312   0.582   1.327  3.3395  2.4222  0.3064
   63MOL   H134 8938   4.230   0.512   1.466 -1.4206  0.7906 -2.4602
   63MOL   C135 8939   4.214   0.679   1.720  0.5019  0.1144  0.0056
   63MOL   C136 8940   4.251   0.604   1.843  0.8203  0.6753 -0.2213
   63MOL   O137 8941   4.163   0.811   1.739  0.0452  0.8563 -0.2854
   63MOL   H138 8942   4.146   0.617   1.661  1.7013  0.1377 -1.4451
   63MOL   H139 8943   4.167   0.605   1.913 -0.0505 -1.5445 -1.1710
   63MOL   H140 8944   4.324   0.664   1.897  0.6310 -0.2087  1.0289
   63MOL   H141 8945   4.287   0.501   1.841 -0.3495  0.2599 -0.4948
   63MOL   H142 8946   4.079   0.806   1.696 -0.5986  0.7964  0.9636
   64MOL     C1 8947   6.438   7.624   1.725  0.0406  0.0149 -0.6391
   64MOL     C2 8948   6.347   7.698   1.827 -0.8875 -0.1865 -0.2383
   64MOL     O3 8949   6.552   7.568   1.791 -0.0820  0.0197  0.3257
   64MOL     H4 8950   6.468   7.693   1.646  0.2276 -0.3479 -0.8844
   64MOL     H5 8951   6.396   7.783   1.873 -0.1569  0.1505 -1.6013
   64MOL     H6 8952   6.314   7.626   1.902 -0.1129 -1.3433 -0.9944
   64MOL     H7 8953   6.261   7.748   1.783  1.4668  3.4137 -0.9185
   64MOL     H8 8954   6.384   7.542   1.678  2.4381 -2.0478  0.1492
   64MOL     C9 8955   6.635   7.468   1.727 -0.0670 -0.5700 -0.3656
   64MOL    C10 8956   6.740   7.548   1.646 -0.2123  0.1507 -0.2285
   64MOL    O11 8957   6.705   7.410   1.831  0.4696 -0.8232 -0.2451
   64MOL    H12 8958   6.581   7.402   1.659 -2.0910  0.5170  0.1557
   64MOL    H13 8959   6.697   7.625   1.581  0.4553  1.3832  0.7726
   64MOL    H14 8960   6.796   7.475   1.588 -3.3705 -2.6166  0.0688
   64MOL    H15 8961   6.804   7.601   1.716  0.9093 -1.9482  0.3503
   64MOL    C16 8962   6.638   7.315   1.899 -0.1972 -0.4120  0.6890
   64MOL    C17 8963   6.675   7.173   1.833 -0.2280 -0.2748 -0.0861
   64MOL    O18 8964   6.675   7.314   2.033  0.4627 -0.0412  0.1606
   64MOL    H19 8965   6.532   7.338   1.907 -0.0593 -0.0982  1.7972
   64MOL    H20 8966   6.783   7.169   1.831 -0.1790 -0.2644  1.7142
   64MOL    H21 8967   6.640   7.172   1.729  0.0168 -0.9082 -0.1678
   64MOL    H22 8968   6.627   7.087   1.879  0.5530 -0.2577  0.7569
   64MOL    C23 8969   6.595   7.401   2.111 -0.4465  0.4152 -0.0226
   64MOL    C24 8970   6.486   7.315   2.175 -0.1284 -0.7836 -0.6099
   64MOL    O25 8971   6.671   7.467   2.211  0.2674 -0.0127 -0.3817
   64MOL    H26 8972   6.545   7.482   2.058 -0.0542  0.7277  0.0804
   64MOL    H27 8973   6.435   7.369   2.255  0.4708 -0.7681 -0.2331
   64MOL    H28 8974   6.534   7.224   2.210  2.8001  1.4420  1.4638
   64MOL    H29 8975   6.409   7.296   2.101 -0.9672  2.0284 -0.5455
   64MOL    C30 8976   6.780   7.536   2.174  0.1369 -0.0878  0.0788
   64MOL    C31 8977   6.749   7.683   2.148 -0.6006 -0.5946 -0.3687
   64MOL    O32 8978   6.863   7.525   2.286  0.3665 -0.0167 -0.3656
   64MOL    H33 8979   6.821   7.491   2.084  1.7173 -0.8239  1.1374
   64MOL    H34 8980   6.696   7.727   2.232 -0.8429 -2.1190  0.3068
   64MOL    H35 8981   6.683   7.692   2.061  0.6481 -1.5762 -1.4398
   64MOL    H36 8982   6.837   7.743   2.130  0.1487 -1.1015  1.4618
   64MOL    C37 8983   6.939   7.406   2.297 -0.3851  0.4056 -0.2223
   64MOL    C38 8984   7.079   7.461   2.279 -0.2873 -0.5445  0.1418
   64MOL    O39 8985   6.931   7.345   2.425  0.2930  0.2812 -0.3277
   64MOL    H40 8986   6.909   7.342   2.214 -0.7313  0.7089 -0.3330
   64MOL    H41 8987   7.091   7.546   2.345 -3.2409  2.0063 -2.3866
   64MOL    H42 8988   7.095   7.484   2.173 -2.1894 -2.6465 -0.6469
   64MOL    H43 8989   7.156   7.388   2.301 -2.2570 -3.6176 -2.6253
   64MOL    C44 8990   6.816   7.258   2.427  0.7765  0.7895  0.1361
   64MOL    C45 8991   6.875   7.118   2.427 -0.3384 -0.4929 -0.2005
   64MOL    O46 8992   6.738   7.268   2.544 -0.3546 -0.1437  0.5511
   64MOL    H47 8993   6.751   7.262   2.340  0.0046 -0.7388  0.6387
   64MOL    H48 8994   6.962   7.112   2.493 -0.0562 -0.6247 -0.5834
   64MOL    H49 8995   6.900   7.098   2.323 -1.2498  1.2450 -0.7719
   64MOL    H50 8996   6.799   7.051   2.466 -0.5502  0.2634  0.7044
   64MOL    C51 8997   6.668   7.392   2.567 -0.5740 -0.0374 -0.0196
   64MOL    C52 8998   6.528   7.343   2.575 -0.2390 -0.0046 -0.0562
   64MOL    O53 8999   6.696   7.445   2.692  0.0753 -0.2811 -0.2559
   64MOL    H54 9000   6.685   7.466   2.488 -1.5613  1.6362  1.3164
   64MOL    H55 9001   6.475   7.438   2.583  1.1149  0.7118  0.4895
   64MOL    H56 9002   6.518   7.273   2.658 -1.7977  2.7070  2.1003
   64MOL    H57 9003   6.489   7.302   2.481 -1.6033  1.9093 -0.3571
   64MOL    C58 9004   6.812   7.521   2.699 -0.7414  0.2364  0.7254
   64MOL    C59 9005   6.780   7.673   2.694  0.2443 -0.2130 -0.5011
   64MOL    O60 9006   6.888   7.484   2.808 -0.2244 -0.2250  0.9489
   64MOL    H61 9007   6.859   7.505   2.601  0.7698 -0.8188  1.5893
   64MOL    H62 9008   6.745   7.702   2.595  0.0415 -1.7104 -0.8759
   64MOL    H63 9009   6.873   7.729   2.709 -0.1527  0.4884 -0.6378
   64MOL    H64 9010   6.702   7.690   2.768 -1.5541  0.6864 -2.5341
   64MOL    C65 9011   6.935   7.354   2.810 -0.4957  0.0974  0.9943
   64MOL    C66 9012   7.066   7.346   2.725 -0.2362 -0.4316 -0.2558
   64MOL    O67 9013   6.983   7.322   2.940  0.1110 -0.0868  0.3253
   64MOL    H68 9014   6.863   7.277   2.782  0.4938 -0.6073  0.3417
   64MOL    H69 9015   7.144   7.409   2.768  0.2513 -1.7460  0.8260
   64MOL    H70 9016   7.053   7.384   2.624  1.5212 -0.8093 -0.6330
   64MOL    H71 9017   7.112   7.247   2.727 -0.0062 -0.3151  0.5655
   64MOL    C72 9018   6.883   7.315   3.033 -0.6447 -0.1770 -0.7778
   64MOL    C73 9019   6.886   7.174   3.087 -0.4230 -0.4657 -0.4617
   64MOL    O74 9020   6.919   7.394   3.144 -0.3370 -0.3368  0.0060
   64MOL    H75 9021   6.784   7.343   2.997 -1.6205 -1.7328  0.6513
   64MOL    H76 9022   6.952   7.153   3.171 -0.4536 -1.9282 -0.7868
   64MOL    H77 9023   6.913   7.101   3.011 -2.8935 -1.8361 -0.0900
   64MOL    H78 9024   6.790   7.158   3.137 -1.1870  0.6720 -1.5093
   64MOL    C79 9025   6.874   7.526   3.131 -0.3403 -0.2819  0.3524
   64MOL    C80 9026   6.750   7.530   3.219  0.5481 -0.2803  0.0872
   64MOL    O81 9027   6.965   7.613   3.192 -0.0628  0.1055 -0.1006
   64MOL    H82 9028   6.853   7.556   3.029 -1.6277  1.6585  1.1758
   64MOL    H83 9029   6.662   7.473   3.190  0.9054 -0.6065 -0.3527
   64MOL    H84 9030   6.704   7.629   3.226  1.6274  0.1267  1.6227
   64MOL    H85 9031   6.768   7.495   3.321  4.3243  0.2620 -0.3081
   64MOL    C86 9032   7.063   7.653   3.102 -0.4743  0.1893  0.9343
   64MOL    C87 9033   7.036   7.778   3.036 -0.4202 -0.1691 -0.2316
   64MOL    O88 9034   7.188   7.659   3.144  0.1232  0.1483  0.1464
   64MOL    H89 9035   7.065   7.588   3.014 -2.4340  2.2452 -0.6734
   64MOL    H90 9036   7.103   7.800   2.954  0.7295  2.3774  1.3231
   64MOL    H91 9037   7.023   7.859   3.108 -0.4020 -1.1264  0.8844
   64MOL    H92 9038   6.935   7.776   2.995 -0.6807 -0.6564  0.4093
   64MOL    C93 9039   7.246   7.533   3.196  0.1730  0.6571 -0.2380
   64MOL    C94 9040   7.307   7.453   3.075  0.2558  0.0941  0.5427
   64MOL    O95 9041   7.358   7.557   3.290 -0.1466  0.7195  0.0671
   64MOL    H96 9042   7.173   7.470   3.246 -0.0313  0.3158 -0.9504
   64MOL    H97 9043   7.241   7.411   2.999 -0.2657  0.7838  0.6061
   64MOL    H98 9044   7.363   7.369   3.116 -0.5704 -1.4548 -1.4025
   64MOL    H99 9045   7.373   7.519   3.018  0.6817 -1.4808 -0.8407
   64MOL   C100 9046   7.319   7.606   3.411  0.2069  0.5743  0.1885
   64MOL   C101 9047   7.354   7.494   3.510  0.4368 -0.2413  0.4017
   64MOL   O102 9048   7.393   7.717   3.453 -0.1892  0.1447  0.2585
   64MOL   H103 9049   7.212   7.627   3.414  0.6195  2.6991  1.3251
   64MOL   H104 9050   7.290   7.405   3.509 -2.5828  1.8616 -0.1495
   64MOL   H105 9051   7.351   7.535   3.611  1.5923  0.6146  0.0981
   64MOL   H106 9052   7.453   7.454   3.489  0.3692  0.9763 -2.3198
   64MOL   C107 9053   7.376   7.825   3.370 -0.2016 -0.0950  0.3280
   64MOL   C108 9054   7.299   0.007   3.451 -0.5834  0.0806 -0.0561
   64MOL   O109 9055   7.502   7.885   3.351  0.2408 -0.1457  0.3870
   64MOL   H110 9056   7.319   7.808   3.279  1.2701 -2.2872 -0.2089
   64MOL   H111 9057   7.195   7.889   3.462 -0.7479 -1.3494 -4.7473
   64MOL   H112 9058   7.279   0.101   3.399  0.3453  0.0028 -0.5515
   64MOL   H113 9059   7.347   0.033   3.546 -2.7601  4.3418  0.0293
   64MOL   C114 9060   7.587   7.818   3.266  0.0861 -0.7738  0.0462
   64MOL   C115 9061   7.589   7.884   3.124 -0.0864  0.7651  0.1066
   64MOL   O116 9062   7.718   7.828   3.316  0.2961 -0.2348  0.3659
   64MOL   H117 9063   7.558   7.715   3.243 -0.5498 -0.8249  1.0541
   64MOL   H118 9064   7.484   7.883   3.095 -0.1833  1.3927  0.4294
   64MOL   H119 9065   7.644   7.823   3.053  0.5614  2.7043 -1.0896
   64MOL   H120 9066   7.626   0.072   3.121 -1.2986  1.1920 -0.8600
   64MOL   C121 9067   7.733   7.744   3.433  0.4026  0.1657  0.3420
   64MOL   C122 9068   7.803   7.615   3.381  0.8049 -0.6022 -0.4505
   64MOL   O123 9069   7.834   7.804   3.507  0.2306  0.0532 -0.1446
   64MOL   H124 9070   7.640   7.724   3.487  0.5157  0.9700  0.8508
   64MOL   H125 9071   7.828   7.543   3.458 -2.7764 -1.3578  0.0830
   64MOL   H126 9072   7.884   7.639   3.312  1.6072 -0.0872  0.6571
   64MOL   H127 9073   7.729   7.557   3.325  1.2180  0.2837 -1.9583
   64MOL   C128 9074   7.784   7.906   3.593 -0.2061 -0.0589  1.1862
   64MOL   C129 9075   7.802   7.869   3.738 -1.0298 -0.0825 -0.0132
   64MOL   O130 9076   7.850   0.115   3.577 -0.5485  0.0340  0.6757
   64MOL   H131 9077   7.679   0.009   3.570  0.0111 -0.8229 -0.4962
   64MOL   H132 9078   7.907   7.879   3.767 -1.4520  1.1739  1.1459
   64MOL   H133 9079   7.759   7.771   3.759 -1.8375  0.0914 -0.7967
   64MOL   H134 9080   7.741   0.017   3.804  0.0399 -0.1193  1.0304
   64MOL   C135 9081   7.811   0.187   3.461  0.0352  0.4364  0.5533
   64MOL   C136 9082   7.851   0.337   3.480 -0.6655 -0.6517 -0.4001
   64MOL   O137 9083   7.871   0.136   3.347 -0.3382 -0.2389 -0.3501
   64MOL   H138 9084   7.704   0.184   3.440  0.3835 -1.1767 -1.1558
   64MOL   H139 9085   7.800   0.392   3.401  0.4993 -1.5542 -1.8052
   64MOL   H140 9086   0.044   0.354   3.468 -0.8222  1.5221  0.9997
   64MOL   H141 9087   7.814   0.381   3.572  1.6774  0.4918  0.0215
   64MOL   H142 9088   7.824   0.055   3.334  1.5528 -1.3181 -0.6756
   65MOL     C1 9089   4.065   3.370   3.720 -0.0137  0.0411 -0.4129
   65MOL     C2 9090   3.948   3.290   3.779 -0.0310  0.2353 -0.2852
   65MOL     O3 9091   4.156   3.281   3.667 -0.6345 -0.5036  0.2214
   65MOL     H4 9092   4.108   3.435   3.795  0.8477  1.0007 -1.7127
   65MOL     H5 9093   3.863   3.353   3.804 -0.4932 -0.7612  0.6919
   65MOL     H6 9094   3.959   3.244   3.878  1.8755 -0.5775 -0.8510
   65MOL     H7 9095   3.908   3.211   3.716  1.5489 -1.8898  1.2723
   65MOL     H8 9096   4.026   3.435   3.641 -1.4238 -0.3916 -0.0854
   65MOL     C9 9097   4.289   3.297   3.694  0.2451 -0.3996  0.3459
   65MOL    C10 9098   4.329   3.425   3.619 -0.0127 -0.2873 -0.0783
   65MOL    O11 9099   4.323   3.311   3.827 -0.1898  0.0667  0.3874
   65MOL    H12 9100   4.339   3.214   3.647  1.6052  1.0105 -0.7475
   65MOL    H13 9101   4.277   3.504   3.673 -1.4011  0.0005 -1.8077
   65MOL    H14 9102   4.290   3.418   3.518 -0.8805 -0.8709  0.2968
   65MOL    H15 9103   4.434   3.448   3.603  0.0183  0.3638  1.0250
   65MOL    C16 9104   4.314   3.199   3.905  0.2098 -1.1241  0.5833
   65MOL    C17 9105   4.426   3.092   3.876  0.3797 -0.2792  0.3068
   65MOL    O18 9106   4.332   3.234   4.034  0.1729  0.4967 -0.2280
   65MOL    H19 9107   4.212   3.161   3.908 -0.6505  1.1042  0.4047
   65MOL    H20 9108   4.406   3.015   3.951 -0.3703 -0.7474 -0.3672
   65MOL    H21 9109   4.527   3.132   3.885 -0.2511  1.5907 -0.8284
   65MOL    H22 9110   4.417   3.036   3.783  0.2721 -0.8308  0.6461
   65MOL    C23 9111   4.235   3.314   4.101  0.1436 -0.0765 -0.0474
   65MOL    C24 9112   4.189   3.226   4.213 -0.4624 -0.1491  0.0607
   65MOL    O25 9113   4.296   3.428   4.164 -0.0567 -0.1009 -0.9777
   65MOL    H26 9114   4.151   3.334   4.035  0.5211 -2.1976 -1.2093
   65MOL    H27 9115   4.149   3.131   4.177 -1.4032  0.4947 -0.6157
   65MOL    H28 9116   4.116   3.281   4.272  2.3122  0.8438  2.6490
   65MOL    H29 9117   4.278   3.207   4.273 -0.6336  0.1680  0.4163
   65MOL    C30 9118   4.334   3.529   4.071 -1.3004 -1.1455  0.6634
   65MOL    C31 9119   4.213   3.617   4.069 -0.1517  0.1272 -0.2060
   65MOL    O32 9120   4.432   3.615   4.121 -0.5843  0.4206  0.4979
   65MOL    H33 9121   4.357   3.486   3.973  0.4650 -1.4409  1.1957
   65MOL    H34 9122   4.200   3.662   4.168  1.2422 -1.4256  0.7103
   65MOL    H35 9123   4.123   3.561   4.046 -0.1043  0.7586 -2.0024
   65MOL    H36 9124   4.239   3.693   3.996  0.3428 -0.5481 -0.7328
   65MOL    C37 9125   4.556   3.570   4.108 -0.5064  0.4397  0.5639
   65MOL    C38 9126   4.614   3.609   3.968 -0.1620 -0.4600  0.4658
   65MOL    O39 9127   4.643   3.629   4.199 -0.2758  0.5004 -0.4066
   65MOL    H40 9128   4.557   3.463   4.130  0.0198  0.1991 -0.5964
   65MOL    H41 9129   4.537   3.589   3.893 -0.9373 -2.2051  1.7092
   65MOL    H42 9130   4.711   3.561   3.954 -0.0171  0.3397 -1.4328
   65MOL    H43 9131   4.635   3.716   3.975  0.1927 -0.4814 -0.2083
   65MOL    C44 9132   4.617   3.614   4.333  0.3797  0.7878 -0.2109
   65MOL    C45 9133   4.732   3.543   4.393  0.1553  0.1663 -0.0661
   65MOL    O46 9134   4.619   3.745   4.397 -0.0738  0.0489  0.0099
   65MOL    H47 9135   4.518   3.573   4.349  1.0904 -0.9350 -0.1502
   65MOL    H48 9136   4.830   3.589   4.378  0.7169 -1.4301 -1.4604
   65MOL    H49 9137   4.747   3.445   4.349 -0.0362 -1.3316  3.0792
   65MOL    H50 9138   4.708   3.544   4.499 -0.1501  0.8561 -0.1352
   65MOL    C51 9139   4.504   3.821   4.374  0.2696  0.1275 -0.9012
   65MOL    C52 9140   4.425   3.814   4.508  0.3102 -0.0902 -0.0544
   65MOL    O53 9141   4.524   3.953   4.348  0.6860 -0.1816  0.5053
   65MOL    H54 9142   4.440   3.783   4.295  0.0985 -0.1600 -0.6282
   65MOL    H55 9143   4.409   3.710   4.535  0.0763  0.1665  0.8173
   65MOL    H56 9144   4.329   3.865   4.497  0.9170  1.4552  1.4785
   65MOL    H57 9145   4.487   3.861   4.584 -0.2072  1.3524 -0.4946
   65MOL    C58 9146   4.622   3.972   4.245  0.8770 -0.8118  0.1472
   65MOL    C59 9147   4.546   4.002   4.114  0.1598 -0.3261  0.3830
   65MOL    O60 9148   4.697   4.089   4.269  0.2478 -0.0934  0.3367
   65MOL    H61 9149   4.688   3.887   4.228 -0.6012 -1.8075 -0.6531
   65MOL    H62 9150   4.497   4.099   4.126 -0.0100 -0.0124 -2.4392
   65MOL    H63 9151   4.470   3.925   4.101  0.1257 -0.1233 -0.6478
   65MOL    H64 9152   4.618   4.010   4.033 -2.2288  0.6483 -1.6927
   65MOL    C65 9153   4.755   4.103   4.397  0.7274  0.2727  0.4475
   65MOL    C66 9154   4.890   4.031   4.401 -0.0535  0.4203 -0.1248
   65MOL    O67 9155   4.762   4.238   4.428 -0.6174  0.5664 -0.6677
   65MOL    H68 9156   4.692   4.061   4.477 -1.5625  2.1412 -0.3242
   65MOL    H69 9157   4.956   4.059   4.318 -1.5304  0.7555 -1.2080
   65MOL    H70 9158   4.866   3.927   4.377 -0.4869 -0.1285  2.6260
   65MOL    H71 9159   4.934   4.030   4.500 -1.6539  2.4421  0.6345
   65MOL    C72 9160   4.641   4.299   4.461  0.7002 -0.0882  0.1103
   65MOL    C73 9161   4.646   4.337   4.610  0.0044  0.5409  0.2349
   65MOL    O74 9162   4.639   4.413   4.392  0.1669  0.2531 -0.1456
   65MOL    H75 9163   4.550   4.241   4.449  1.4612 -1.3103  0.2187
   65MOL    H76 9164   4.729   4.407   4.614  0.2367  0.1954  1.5807
   65MOL    H77 9165   4.672   4.249   4.669  1.4857  0.3051 -0.7295
   65MOL    H78 9166   4.550   4.382   4.636 -0.6200  0.5583 -1.9559
   65MOL    C79 9167   4.581   4.404   4.259  0.0230  0.5660 -0.6004
   65MOL    C80 9168   4.438   4.453   4.268  0.1501 -0.0871 -0.1362
   65MOL    O81 9169   4.656   4.483   4.179  0.3006  0.1390  0.2523
   65MOL    H82 9170   4.585   4.305   4.213 -3.1122  0.6592 -1.1786
   65MOL    H83 9171   4.364   4.380   4.300 -0.5095  0.2948 -0.7729
   65MOL    H84 9172   4.411   4.476   4.165 -0.5837  2.2931  0.5622
   65MOL    H85 9173   4.439   4.532   4.343 -0.2274  1.1174 -1.3806
   65MOL    C86 9174   4.781   4.427   4.146  0.0687  0.2005  0.5869
   65MOL    C87 9175   4.772   4.370   4.003 -0.6848  0.2535 -0.3185
   65MOL    O88 9176   4.876   4.527   4.143 -0.6915 -0.0383  0.0025
   65MOL    H89 9177   4.809   4.349   4.216 -1.1337 -0.9354 -0.1541
   65MOL    H90 9178   4.688   4.301   3.999  0.6668 -1.4492  0.3423
   65MOL    H91 9179   4.870   4.339   3.966 -0.3339  0.4015  0.4870
   65MOL    H92 9180   4.742   4.449   3.933 -1.4736 -1.0780 -1.5131
   65MOL    C93 9181   4.945   4.546   4.262  0.8168  0.1893 -0.3661
   65MOL    C94 9182   5.083   4.497   4.242 -0.1498 -0.1486 -0.1395
   65MOL    O95 9183   4.946   4.684   4.292 -0.1099  0.5191 -0.1055
   65MOL    H96 9184   4.905   4.485   4.343  1.9091  0.2317  0.2156
   65MOL    H97 9185   5.139   4.569   4.182  1.0561  0.3862  1.6026
   65MOL    H98 9186   5.087   4.404   4.185  0.2076 -0.6749  0.7474
   65MOL    H99 9187   5.136   4.473   4.334 -2.6888  0.0515  1.4258
   65MOL   C100 9188   4.830   4.722   4.368 -0.4714 -0.0773  0.0588
   65MOL   C101 9189   4.869   4.747   4.519  0.6699 -0.5550  0.1140
   65MOL   O102 9190   4.771   4.837   4.324 -0.1364  0.1293  0.2618
   65MOL   H103 9191   4.751   4.647   4.375  0.4626 -1.0259  0.7326
   65MOL   H104 9192   4.780   4.779   4.573  0.4099 -0.4440 -0.3814
   65MOL   H105 9193   4.936   4.832   4.528 -1.2386  0.8655  1.1756
   65MOL   H106 9194   4.907   4.658   4.570 -0.4166 -0.7475  0.6023
   65MOL   C107 9195   4.695   4.821   4.202  0.2635  0.3127 -0.8602
   65MOL   C108 9196   4.544   4.828   4.238 -0.3678 -0.0382  0.0515
   65MOL   O109 9197   4.719   4.931   4.119 -0.0906 -0.4136 -0.4293
   65MOL   H110 9198   4.715   4.733   4.141  1.1610  0.1247 -0.3045
   65MOL   H111 9199   4.519   4.922   4.288 -0.6352 -0.2831  0.3804
   65MOL   H112 9200   4.521   4.748   4.308 -1.5780  0.5418  0.3480
   65MOL   H113 9201   4.481   4.825   4.148  0.7767  0.1189 -0.7609
   65MOL   C114 9202   4.854   4.925   4.073  0.7335  0.7191  0.4038
   65MOL   C115 9203   4.869   4.859   3.934 -0.6556 -0.2303 -0.0905
   65MOL   O116 9204   4.895   5.057   4.056 -0.4445  0.0838 -0.0780
   65MOL   H117 9205   4.922   4.868   4.136 -1.7716 -1.8530  0.8784
   65MOL   H118 9206   4.973   4.853   3.901 -0.4876 -0.9183  0.5592
   65MOL   H119 9207   4.811   4.908   3.855 -0.6792  2.1397  1.3459
   65MOL   H120 9208   4.835   4.759   3.958 -0.2298  0.0883  1.9343
   65MOL   C121 9209   4.916   5.125   4.176  0.1349  0.1773  0.1883
   65MOL   C122 9210   5.072   5.126   4.207 -0.3608 -0.0679 -0.0074
   65MOL   O123 9211   4.889   5.262   4.166 -0.2073 -0.1591 -0.1363
   65MOL   H124 9212   4.868   5.084   4.264  1.1063 -0.7647  0.2910
   65MOL   H125 9213   5.102   5.023   4.230 -0.4952 -0.8886 -3.3822
   65MOL   H126 9214   5.110   5.183   4.292  1.6290 -0.6521 -0.4607
   65MOL   H127 9215   5.127   5.165   4.121  0.6870  1.4416  1.3014
   65MOL   C128 9216   4.755   5.293   4.181 -0.6253  0.7081  0.6089
   65MOL   C129 9217   4.739   5.400   4.292 -0.3693  0.0258  0.3896
   65MOL   O130 9218   4.694   5.356   4.067  0.5432 -0.3150  0.1345
   65MOL   H131 9219   4.702   5.200   4.205  0.2115 -0.5933 -2.3421
   65MOL   H132 9220   4.634   5.429   4.301  0.5458  2.7470  2.8501
   65MOL   H133 9221   4.808   5.481   4.271 -0.8319  0.7653  1.6836
   65MOL   H134 9222   4.774   5.355   4.385 -0.5253 -0.5742  0.1681
   65MOL   C135 9223   4.677   5.271   3.955  0.4917  0.3876 -0.5766
   65MOL   C136 9224   4.575   5.336   3.856  0.6290  0.4602 -0.1000
   65MOL   O137 9225   4.796   5.236   3.893 -0.1996  0.1356 -0.2106
   65MOL   H138 9226   4.631   5.178   3.989  2.5053 -0.7926 -0.9954
   65MOL   H139 9227   4.565   5.271   3.769  0.5576  0.7151 -0.2832
   65MOL   H140 9228   4.618   5.430   3.821 -0.6255  1.2684  0.5107
   65MOL   H141 9229   4.484   5.357   3.912  2.3289  0.4184  2.7939
   65MOL   H142 9230   4.837   5.177   3.954 -0.8147  0.9423  1.0191
   66MOL     C1 9231   3.145   3.690   4.779  0.0925 -0.0870  0.1679
   66MOL     C2 9232   2.998   3.651   4.785  0.3155 -0.2114 -0.2615
   66MOL     O3 9233   3.165   3.795   4.872  0.0061 -0.1254 -0.0097
   66MOL     H4 9234   3.165   3.721   4.677 -0.7414 -0.5452 -0.1392
   66MOL     H5 9235   2.968   3.586   4.703  1.6862 -0.0679 -0.8911
   66MOL     H6 9236   2.933   3.736   4.766 -0.2227 -0.6992 -0.5909
   66MOL     H7 9237   2.971   3.599   4.877  0.0323 -0.3521 -0.4264
   66MOL     H8 9238   3.207   3.606   4.811  0.8359  0.5414  0.3816
   66MOL     C9 9239   3.292   3.845   4.888  0.4968 -0.6474  0.5712
   66MOL    C10 9240   3.327   3.925   4.756 -0.4980  0.7803 -0.4447
   66MOL    O11 9241   3.300   3.936   4.997 -0.4142 -0.7397  0.1508
   66MOL    H12 9242   3.360   3.763   4.912  1.1123 -0.1004  0.7141
   66MOL    H13 9243   3.334   3.854   4.673 -1.2672 -1.0456  0.9963
   66MOL    H14 9244   3.430   3.960   4.765 -0.0911 -0.7674  1.2186
   66MOL    H15 9245   3.260   4.008   4.734 -1.0518  0.5223  0.2155
   66MOL    C16 9246   3.307   3.883   5.122 -0.6883 -0.1325  0.0112
   66MOL    C17 9247   3.452   3.853   5.163  0.3331 -0.6846 -0.5352
   66MOL    O18 9248   3.238   3.970   5.212  0.3969 -0.5295 -0.6699
   66MOL    H19 9249   3.252   3.789   5.122  0.2937 -0.7147  0.6452
   66MOL    H20 9250   3.497   3.951   5.177 -1.5619 -0.0942  1.8384
   66MOL    H21 9251   3.519   3.792   5.103  3.0901  0.2778  1.4515
   66MOL    H22 9252   3.442   3.803   5.259  0.1533  1.8083  0.7967
   66MOL    C23 9253   3.097   3.961   5.200 -0.2158  0.3614  0.1645
   66MOL    C24 9254   3.042   3.912   5.332  0.1461  0.2391 -0.1492
   66MOL    O25 9255   3.034   4.084   5.182  0.6560  0.5500  0.4004
   66MOL    H26 9256   3.061   3.896   5.120  0.7325 -0.7126  0.5974
   66MOL    H27 9257   3.084   3.975   5.411 -0.2394 -0.6153  0.7475
   66MOL    H28 9258   3.055   3.805   5.344 -0.8008  0.3510  2.1579
   66MOL    H29 9259   2.936   3.937   5.333  0.1208  0.2466 -2.4447
   66MOL    C30 9260   3.029   4.136   5.047  0.4240  0.2711 -0.4198
   66MOL    C31 9261   2.885   4.119   4.997 -0.1640 -0.4586 -0.5854
   66MOL    O32 9262   3.071   4.267   5.036 -0.1551 -0.0099 -0.4613
   66MOL    H33 9263   3.088   4.077   4.976  0.6267  1.2536 -1.0825
   66MOL    H34 9264   2.865   4.013   4.976  0.0640 -0.5995 -0.0976
   66MOL    H35 9265   2.872   4.173   4.903  1.9012 -0.9589 -1.1971
   66MOL    H36 9266   2.813   4.153   5.071  0.8886 -1.2039  0.8049
   66MOL    C37 9267   3.210   4.293   5.040 -0.5052 -0.8579  0.8430
   66MOL    C38 9268   3.256   4.352   4.906 -0.3090  0.4006  0.7037
   66MOL    O39 9269   3.233   4.393   5.137  0.0077  0.5302  0.3936
   66MOL    H40 9270   3.274   4.207   5.059  0.5434 -0.0976  0.8332
   66MOL    H41 9271   3.203   4.303   4.825  1.4135  1.4549 -1.1134
   66MOL    H42 9272   3.363   4.332   4.905  0.4114  3.8088  2.2237
   66MOL    H43 9273   3.225   4.457   4.897 -0.1812  0.3730 -0.1086
   66MOL    C44 9274   3.228   4.338   5.269 -0.1048 -0.5028 -0.3115
   66MOL    C45 9275   3.364   4.364   5.331  0.1106 -0.1709  0.6337
   66MOL    O46 9276   3.141   4.421   5.347 -0.4594  0.1803  0.0565
   66MOL    H47 9277   3.208   4.231   5.274 -0.4531 -0.4823 -1.1909
   66MOL    H48 9278   3.446   4.303   5.294 -0.2468 -0.1906 -0.1427
   66MOL    H49 9279   3.361   4.359   5.439  0.5194 -1.4823  0.5977
   66MOL    H50 9280   3.384   4.469   5.311  0.0502 -0.5563 -1.6795
   66MOL    C51 9281   3.011   4.394   5.332  0.0585  0.1179  0.6194
   66MOL    C52 9282   2.961   4.307   5.448  0.3348  0.7005  0.7905
   66MOL    O53 9283   2.933   4.507   5.308  0.3411 -0.2976 -0.3786
   66MOL    H54 9284   2.990   4.328   5.247 -1.1560 -1.6714  2.2500
   66MOL    H55 9285   3.005   4.207   5.442  3.5596  2.0763  0.1356
   66MOL    H56 9286   2.852   4.307   5.452  0.3251  3.3545  2.2364
   66MOL    H57 9287   3.007   4.351   5.537  2.3207  0.0919  0.0870
   66MOL    C58 9288   2.960   4.565   5.180 -0.7916  0.2429 -0.0074
   66MOL    C59 9289   2.823   4.585   5.106 -0.2648 -0.0422 -0.5727
   66MOL    O60 9290   2.998   4.698   5.192 -0.2075  0.0896 -0.5825
   66MOL    H61 9291   3.032   4.503   5.127 -0.9096  2.0503 -2.3273
   66MOL    H62 9292   2.841   4.660   5.028 -0.7459  1.7310  0.9833
   66MOL    H63 9293   2.751   4.641   5.166  0.7140 -3.2498  3.8183
   66MOL    H64 9294   2.778   4.493   5.069  1.0101 -0.9810  0.1985
   66MOL    C65 9295   3.123   4.721   5.246  0.2500  0.7254 -0.2592
   66MOL    C66 9296   3.224   4.732   5.130 -0.6023  0.4116 -0.6580
   66MOL    O67 9297   3.121   4.844   5.315  0.0110  0.1566  0.5317
   66MOL    H68 9298   3.154   4.639   5.311  0.5697  0.5197 -0.6673
   66MOL    H69 9299   3.210   4.638   5.077 -0.3923  1.2923 -2.2950
   66MOL    H70 9300   3.321   4.725   5.180  0.2918  1.6618 -2.1549
   66MOL    H71 9301   3.206   4.819   5.067 -1.6983 -1.5520 -3.1571
   66MOL    C72 9302   3.036   4.853   5.424 -0.8353  0.2115  0.8408
   66MOL    C73 9303   3.126   4.835   5.548 -0.0204  0.0349 -0.3779
   66MOL    O74 9304   2.969   4.975   5.433 -0.0917  0.1433 -0.1255
   66MOL    H75 9305   2.961   4.773   5.419 -1.5581  1.0240 -3.0593
   66MOL    H76 9306   3.203   4.913   5.557 -0.4038  0.4482 -0.6537
   66MOL    H77 9307   3.176   4.738   5.541  2.8593  1.3163  1.2224
   66MOL    H78 9308   3.068   4.840   5.640  1.2600 -0.6752  0.4990
   66MOL    C79 9309   2.858   4.985   5.341  0.3889 -0.0356 -0.1986
   66MOL    C80 9310   2.728   4.933   5.418  0.0973  0.4480  0.2504
   66MOL    O81 9311   2.834   5.112   5.296  1.1087 -0.8017  0.4033
   66MOL    H82 9312   2.879   4.915   5.260  1.2898  1.2138 -1.0542
   66MOL    H83 9313   2.726   4.824   5.422  1.1115  0.3677 -1.3208
   66MOL    H84 9314   2.639   4.944   5.355  1.3736 -0.0010 -1.6737
   66MOL    H85 9315   2.717   4.984   5.513 -1.3601 -0.3337  0.5137
   66MOL    C86 9316   2.937   5.163   5.215 -0.2660 -0.1626 -0.5436
   66MOL    C87 9317   2.906   5.126   5.071 -0.1768  1.3175 -0.6513
   66MOL    O88 9318   2.948   5.303   5.231  0.2678  0.1198  0.1603
   66MOL    H89 9319   3.029   5.111   5.243  0.5739  1.0900 -0.9578
   66MOL    H90 9320   2.849   5.033   5.067  2.4561 -0.3796  0.4440
   66MOL    H91 9321   3.003   5.106   5.025  0.0548 -0.8173  0.6771
   66MOL    H92 9322   2.845   5.208   5.032 -1.3924 -0.0148 -1.6285
   66MOL    C93 9323   3.003   5.333   5.356 -0.4764  0.0245 -0.2193
   66MOL    C94 9324   3.152   5.382   5.330 -0.0498 -0.6530  0.3858
   66MOL    O95 9325   2.929   5.428   5.419 -0.4462  0.5695  0.1007
   66MOL    H96 9326   3.014   5.247   5.423  0.8587  0.3529 -0.0194
   66MOL    H97 9327   3.190   5.434   5.419  0.2772 -0.5586  0.1923
   66MOL    H98 9328   3.165   5.456   5.251  0.6756 -1.7738 -0.5665
   66MOL    H99 9329   3.219   5.297   5.317  1.8696  0.6284  1.4392
   66MOL   C100 9330   2.798   5.396   5.450  0.1366 -0.0182  0.5726
   66MOL   C101 9331   2.795   5.299   5.573 -0.5504  0.7176 -0.2359
   66MOL   O102 9332   2.723   5.498   5.506 -0.3489 -0.0725  0.2962
   66MOL   H103 9333   2.745   5.362   5.362  0.6858 -0.2615  0.3345
   66MOL   H104 9334   2.816   5.351   5.666  0.4698  1.5022 -0.8945
   66MOL   H105 9335   2.868   5.220   5.557 -2.0363 -0.8888  0.6679
   66MOL   H106 9336   2.702   5.241   5.570 -0.2326  0.0311  2.4792
   66MOL   C107 9337   2.757   5.626   5.476 -0.7928 -0.2227  0.1235
   66MOL   C108 9338   2.676   5.663   5.347 -0.3491 -0.4139 -0.1174
   66MOL   O109 9339   2.708   5.716   5.574  0.5000 -0.5305  0.4080
   66MOL   H110 9340   2.863   5.645   5.466 -0.5910 -0.6718  1.2967
   66MOL   H111 9341   2.694   5.766   5.317 -0.5187  0.3013  2.0930
   66MOL   H112 9342   2.570   5.639   5.355 -0.1531 -1.3661 -0.3537
   66MOL   H113 9343   2.718   5.596   5.273  3.5588  2.5367 -0.7010
   66MOL   C114 9344   2.794   5.728   5.684 -0.0370 -0.4735  0.0552
   66MOL   C115 9345   2.899   5.839   5.659 -0.1680 -0.1488  0.3022
   66MOL   O116 9346   2.732   5.761   5.801 -0.2760 -0.3958  0.7621
   66MOL   H117 9347   2.844   5.631   5.693 -0.3206 -0.5254  1.1702
   66MOL   H118 9348   2.859   5.941   5.657 -0.4381 -0.2410  0.9735
   66MOL   H119 9349   2.945   5.822   5.561 -2.5026  1.5126 -1.1512
   66MOL   H120 9350   2.977   5.829   5.734  0.3834 -1.8089 -0.4782
   66MOL   C121 9351   2.648   5.662   5.851 -0.7613 -0.8471 -0.0480
   66MOL   C122 9352   2.738   5.573   5.933  0.2685 -0.3025  0.5371
   66MOL   O123 9353   2.562   5.727   5.935 -0.0149 -0.2728 -0.7639
   66MOL   H124 9354   2.593   5.602   5.778  0.7272  0.9546 -2.7418
   66MOL   H125 9355   2.791   5.631   6.009 -0.3327  2.0006 -0.7688
   66MOL   H126 9356   2.803   5.507   5.876 -0.4571 -0.2690 -0.3323
   66MOL   H127 9357   2.672   5.504   5.986  0.7302 -0.2494  1.1940
   66MOL   C128 9358   2.469   5.806   5.879 -0.0442  0.0806  0.6769
   66MOL   C129 9359   2.336   5.736   5.909 -0.0574 -0.2081 -0.4803
   66MOL   O130 9360   2.473   5.937   5.939 -0.0519  0.4093 -0.1993
   66MOL   H131 9361   2.486   5.817   5.772  1.6764 -0.4223  0.8854
   66MOL   H132 9362   2.257   5.809   5.891 -0.4940 -0.6743 -0.4743
   66MOL   H133 9363   2.331   5.702   6.013 -2.6746  1.4260 -0.0055
   66MOL   H134 9364   2.320   5.646   5.850 -1.3543  1.3071 -2.4933
   66MOL   C135 9365   2.588   6.014   5.902 -0.2345  0.3705 -0.0989
   66MOL   C136 9366   2.568   6.164   5.943 -0.2490 -0.0946 -0.7858
   66MOL   O137 9367   2.695   5.971   5.973 -0.3841  0.0013 -0.2317
   66MOL   H138 9368   2.610   6.001   5.796 -2.6444 -1.5156 -0.4335
   66MOL   H139 9369   2.484   6.205   5.887  2.1533  3.5285 -1.9893
   66MOL   H140 9370   2.658   6.221   5.919  0.1779 -0.5921 -0.3684
   66MOL   H141 9371   2.549   6.173   6.050  0.7250 -1.7899 -0.4638
   66MOL   H142 9372   2.715   5.886   5.937 -1.2690 -0.3630  0.1370
   67MOL     C1 9373   5.174   1.475   4.456  0.8726 -0.1240 -0.2594
   67MOL     C2 9374   5.130   1.330   4.463 -0.5699  0.2396 -0.2657
   67MOL     O3 9375   5.059   1.555   4.435 -0.0790 -0.4833  0.1221
   67MOL     H4 9376   5.247   1.489   4.377  0.4763 -0.0421 -0.6157
   67MOL     H5 9377   5.212   1.261   4.480 -0.9799 -0.1113  0.3351
   67MOL     H6 9378   5.078   1.303   4.371 -0.0234 -0.9248 -0.2387
   67MOL     H7 9379   5.058   1.309   4.542  0.2656  0.3329  0.5233
   67MOL     H8 9380   5.213   1.509   4.552 -1.3406 -1.0698  1.0236
   67MOL     C9 9381   5.065   1.691   4.414  0.1848  0.1118 -0.1657
   67MOL    C10 9382   5.072   1.712   4.263  0.6355  0.0222 -0.8433
   67MOL    O11 9383   4.945   1.751   4.455 -0.1944  0.1009 -0.4223
   67MOL    H12 9384   5.149   1.733   4.469  1.9204 -2.9808 -0.2861
   67MOL    H13 9385   4.979   1.671   4.223  0.5823  0.0037 -0.7020
   67MOL    H14 9386   5.152   1.647   4.229  0.0127  0.4719 -3.2460
   67MOL    H15 9387   5.081   1.819   4.246 -0.2214 -0.1546 -2.5471
   67MOL    C16 9388   4.930   1.757   4.598 -0.2940  0.0975 -0.0679
   67MOL    C17 9389   4.963   1.898   4.635 -0.2070 -0.5021  0.1087
   67MOL    O18 9390   4.798   1.741   4.642  0.0226 -0.2782  0.7182
   67MOL    H19 9391   4.994   1.682   4.645 -0.7313  0.4566  1.1092
   67MOL    H20 9392   4.891   1.972   4.598  0.4185  0.6663  1.1799
   67MOL    H21 9393   5.056   1.917   4.583 -0.3354  0.6915  0.2845
   67MOL    H22 9394   4.970   1.908   4.743 -0.4488 -0.8794  0.1612
   67MOL    C23 9395   4.735   1.624   4.592 -0.2821 -0.3491 -0.5216
   67MOL    C24 9396   4.758   1.511   4.699  0.0649 -0.2100  0.3141
   67MOL    O25 9397   4.601   1.646   4.557 -0.5231 -0.0927  0.6656
   67MOL    H26 9398   4.781   1.588   4.500 -2.0880  0.4164 -1.7408
   67MOL    H27 9399   4.864   1.492   4.718  0.4239  1.3763 -0.0585
   67MOL    H28 9400   4.737   1.415   4.651 -2.2487 -0.1654  1.1876
   67MOL    H29 9401   4.699   1.529   4.789 -0.0206  2.2131 -0.1963
   67MOL    C30 9402   4.590   1.713   4.434  1.5738  0.4303  0.3151
   67MOL    C31 9403   4.548   1.609   4.337  0.2091 -0.8145  0.5003
   67MOL    O32 9404   4.491   1.808   4.450 -0.7648 -0.7497 -0.0977
   67MOL    H33 9405   4.680   1.756   4.391  1.1732  0.4464 -0.5226
   67MOL    H34 9406   4.453   1.564   4.367  0.3370 -3.2100 -2.3896
   67MOL    H35 9407   4.614   1.523   4.329  1.0292 -0.0495 -1.2554
   67MOL    H36 9408   4.543   1.649   4.236  1.4556 -1.7432  0.0640
   67MOL    C37 9409   4.540   1.924   4.516 -0.2738  0.3483  0.4199
   67MOL    C38 9410   4.556   2.027   4.406  0.4448  0.3284 -0.2600
   67MOL    O39 9411   4.444   1.975   4.603 -0.3218  0.2669  0.3829
   67MOL    H40 9412   4.627   1.909   4.579 -0.0240  0.8922  0.2096
   67MOL    H41 9413   4.638   2.017   4.335  0.7242  2.5311 -0.2901
   67MOL    H42 9414   4.566   2.130   4.442  1.5804  0.1522 -0.0514
   67MOL    H43 9415   4.472   2.013   4.338  1.4296  0.5758 -1.5398
   67MOL    C44 9416   4.394   1.879   4.696  0.3107  0.6097  0.0619
   67MOL    C45 9417   4.493   1.875   4.815  0.0139  0.4742 -0.5988
   67MOL    O46 9418   4.268   1.921   4.749 -0.0628  0.1267  0.1085
   67MOL    H47 9419   4.389   1.777   4.657  0.3747 -0.3470  2.4503
   67MOL    H48 9420   4.523   1.974   4.848 -0.9648 -0.7963  4.4990
   67MOL    H49 9421   4.578   1.809   4.798  0.9769  1.3661  0.6552
   67MOL    H50 9422   4.433   1.837   4.897  0.9698  0.2047 -0.0125
   67MOL    C51 9423   4.179   1.939   4.650  0.4863  0.6451 -0.3292
   67MOL    C52 9424   4.060   1.836   4.676  0.2297  0.4890  0.5122
   67MOL    O53 9425   4.116   2.066   4.646  0.5991 -0.6791 -0.2676
   67MOL    H54 9426   4.227   1.923   4.554 -2.1624 -1.3138 -1.3517
   67MOL    H55 9427   4.014   1.848   4.774  1.2496 -1.2147  1.2333
   67MOL    H56 9428   4.095   1.735   4.653  0.4740  1.0206 -1.5869
   67MOL    H57 9429   3.977   1.848   4.606  0.4321 -0.6517  0.0661
   67MOL    C58 9430   4.205   2.172   4.650 -0.3462  0.0972 -0.1424
   67MOL    C59 9431   4.221   2.211   4.502  0.4320  0.7039  0.3591
   67MOL    O60 9432   4.161   2.284   4.722 -0.1524  0.2089  0.0094
   67MOL    H61 9433   4.294   2.136   4.701  0.5865  0.2658 -1.6258
   67MOL    H62 9434   4.291   2.140   4.457 -0.9162  0.1620 -0.9546
   67MOL    H63 9435   4.255   2.312   4.478 -0.1183  0.2544 -2.4992
   67MOL    H64 9436   4.125   2.196   4.452  0.8922  0.0299 -0.3281
   67MOL    C65 9437   4.156   2.261   4.854 -0.5798 -1.1538 -0.2671
   67MOL    C66 9438   4.290   2.314   4.912 -0.1575  0.5145  0.4723
   67MOL    O67 9439   4.055   2.326   4.914  0.5028  0.0333  0.0121
   67MOL    H68 9440   4.148   2.154   4.878  0.0914 -0.7030  2.1738
   67MOL    H69 9441   4.297   2.421   4.890 -0.9545  0.6377  0.7924
   67MOL    H70 9442   4.373   2.261   4.866 -0.8949  0.7029 -1.0813
   67MOL    H71 9443   4.302   2.293   5.019 -1.7474 -0.1072  0.5433
   67MOL    C72 9444   3.929   2.274   4.888 -0.3532 -0.1780  0.4265
   67MOL    C73 9445   3.877   2.217   5.024  0.7962 -0.5162  0.1838
   67MOL    O74 9446   3.844   2.378   4.834  0.0658  0.5343 -0.2700
   67MOL    H75 9447   3.929   2.192   4.816 -0.0622  0.1465  0.0569
   67MOL    H76 9448   3.769   2.208   5.016  0.5574  1.2777  1.1742
   67MOL    H77 9449   3.907   2.279   5.108  0.0026 -0.8988  0.7552
   67MOL    H78 9450   3.918   2.118   5.043 -0.6201 -1.1287  0.1423
   67MOL    C79 9451   3.850   2.391   4.696 -0.7959  0.3610 -0.2223
   67MOL    C80 9452   3.729   2.315   4.635 -0.1340 -0.1649  0.1426
   67MOL    O81 9453   3.837   2.532   4.663  0.5232 -0.0926  0.9937
   67MOL    H82 9454   3.942   2.350   4.655  0.0671  0.2727  1.7684
   67MOL    H83 9455   3.760   2.297   4.532 -1.2786  0.4067 -0.3059
   67MOL    H84 9456   3.635   2.369   4.639  0.6070  1.0520  2.3741
   67MOL    H85 9457   3.725   2.219   4.687  0.3017 -0.0123  0.4611
   67MOL    C86 9458   3.948   2.606   4.689 -0.2799  0.0280  0.2829
   67MOL    C87 9459   4.001   2.665   4.564  0.1973  0.4991  1.0808
   67MOL    O88 9460   3.931   2.710   4.778 -0.3711 -0.1470 -1.0713
   67MOL    H89 9461   4.023   2.541   4.733  1.6397  1.0089 -1.4534
   67MOL    H90 9462   4.105   2.697   4.569  1.2087 -2.3792  0.0003
   67MOL    H91 9463   3.934   2.727   4.505 -1.2615  0.8672  3.0919
   67MOL    H92 9464   4.039   2.583   4.502 -0.3654 -0.2752  1.7461
   67MOL    C93 9465   3.891   2.678   4.910 -0.6884 -0.5444 -0.2745
   67MOL    C94 9466   4.007   2.718   4.998 -0.3545  0.5959 -0.1676
   67MOL    O95 9467   3.781   2.755   4.943  0.0849 -0.3835 -0.0824
   67MOL    H96 9468   3.876   2.571   4.926  0.5513 -0.5638  0.9087
   67MOL    H97 9469   4.039   2.816   4.961  1.3705  0.5050  1.0090
   67MOL    H98 9470   4.094   2.653   4.986 -0.3462  0.5163  0.3320
   67MOL    H99 9471   3.970   2.730   5.099 -2.2001 -0.3671 -0.7052
   67MOL   C100 9472   3.664   2.716   4.870  0.0097  0.8111 -0.6767
   67MOL   C101 9473   3.593   2.614   4.951  0.4198  0.7879  0.9369
   67MOL   O102 9474   3.571   2.818   4.854 -0.3753 -0.0891  0.1938
   67MOL   H103 9475   3.682   2.682   4.769 -0.1833  0.1347 -0.4822
   67MOL   H104 9476   3.504   2.574   4.902 -0.0635  1.3000  1.3906
   67MOL   H105 9477   3.577   2.654   5.051  2.2885 -0.6664  1.8512
   67MOL   H106 9478   3.660   2.528   4.956  0.4540  0.8678  1.9256
   67MOL   C107 9479   3.618   2.929   4.787 -0.4173 -0.1512 -0.0405
   67MOL   C108 9480   3.554   2.934   4.646  0.6037  0.2554  0.3647
   67MOL   O109 9481   3.580   3.044   4.849  0.0758  0.6003 -0.4267
   67MOL   H110 9482   3.724   2.915   4.766 -0.5572 -0.3568 -0.6173
   67MOL   H111 9483   3.573   2.854   4.575 -0.4360  0.4698 -0.1668
   67MOL   H112 9484   3.577   3.035   4.614  0.0513  0.9524  2.0908
   67MOL   H113 9485   3.446   2.929   4.663  0.3583  1.9264 -0.5648
   67MOL   C114 9486   3.644   3.058   4.972 -0.2105  0.4142  0.2711
   67MOL   C115 9487   3.778   3.121   4.955 -0.0340  0.8010  0.1943
   67MOL   O116 9488   3.580   3.144   5.061  0.4704  0.9900 -0.6643
   67MOL   H117 9489   3.659   2.963   5.023  0.3656  0.7357  0.7222
   67MOL   H118 9490   3.758   3.201   4.884  0.4683  1.3142  0.6198
   67MOL   H119 9491   3.847   3.053   4.904 -0.1645  2.6235 -2.5656
   67MOL   H120 9492   3.822   3.159   5.048 -0.5959  0.8328  0.4441
   67MOL   C121 9493   3.451   3.094   5.094 -0.6503 -0.6900  0.2213
   67MOL   C122 9494   3.453   3.073   5.246  0.4547  0.0070 -0.2859
   67MOL   O123 9495   3.343   3.185   5.067 -0.4421 -0.2423  0.2510
   67MOL   H124 9496   3.436   2.997   5.047  0.0384  0.6645 -2.9794
   67MOL   H125 9497   3.453   3.170   5.296 -1.0136 -0.7256  1.1544
   67MOL   H126 9498   3.540   3.021   5.287 -0.2210 -0.9473 -0.0520
   67MOL   H127 9499   3.358   3.030   5.278 -0.4316  1.3541 -1.0355
   67MOL   C128 9500   3.348   3.235   4.937  0.5990 -0.3538  0.1207
   67MOL   C129 9501   3.233   3.172   4.858 -0.7630  0.2342 -0.3221
   67MOL   O130 9502   3.327   3.368   4.941  0.0873  0.0064 -0.1854
   67MOL   H131 9503   3.440   3.229   4.878  0.8236 -0.7528  0.5039
   67MOL   H132 9504   3.149   3.158   4.926  0.8632  0.2247  1.7154
   67MOL   H133 9505   3.272   3.086   4.804 -0.5292 -0.3715  0.7840
   67MOL   H134 9506   3.216   3.240   4.775 -0.0285  1.0599  0.1938
   67MOL   C135 9507   3.416   3.444   5.015 -0.3109 -0.2511  0.0638
   67MOL   C136 9508   3.533   3.493   4.921 -0.4077  0.2105 -0.2151
   67MOL   O137 9509   3.359   3.554   5.072 -0.1493 -0.9120 -0.0973
   67MOL   H138 9510   3.459   3.389   5.098 -2.7262 -1.8927  0.2776
   67MOL   H139 9511   3.487   3.556   4.845  0.0222 -0.8173 -1.3368
   67MOL   H140 9512   3.587   3.410   4.876 -1.3929  0.3996 -1.7793
   67MOL   H141 9513   3.599   3.548   4.989  1.1619  0.4510 -1.9118
   67MOL   H142 9514   3.297   3.521   5.135 -1.1754 -0.8545 -1.0683
   68MOL     C1 9515   4.849   1.253   4.164 -0.2744  0.7763  1.3600
   68MOL     C2 9516   4.879   1.394   4.122  0.3555  0.6841 -0.3595
   68MOL     O3 9517   4.731   1.256   4.243  0.5052  0.5175  0.3670
   68MOL     H4 9518   4.927   1.201   4.220 -0.7964  0.1114  1.4772
   68MOL     H5 9519   4.856   1.461   4.205  0.1036  0.0648  0.0647
   68MOL     H6 9520   4.811   1.414   4.039 -1.7987 -1.4314  0.8524
   68MOL     H7 9521   4.984   1.417   4.103  0.8798 -1.1602  0.2633
   68MOL     H8 9522   4.812   1.180   4.092  1.8485  0.3868  0.6143
   68MOL     C9 9523   4.678   1.135   4.292  0.6130  0.0666 -0.9489
   68MOL    C10 9524   4.542   1.170   4.354  0.5846  0.0870 -0.2309
   68MOL    O11 9525   4.648   1.046   4.190 -0.0993  0.0579  0.2688
   68MOL    H12 9526   4.745   1.096   4.368  0.7152 -0.6355 -1.3881
   68MOL    H13 9527   4.499   1.095   4.420  3.0285  0.2499  1.6188
   68MOL    H14 9528   4.476   1.200   4.273 -0.3130  1.3961  0.9505
   68MOL    H15 9529   4.563   1.256   4.418  2.8814  0.9764 -2.1166
   68MOL    C16 9530   4.663   0.916   4.228  0.0688 -0.0774  0.7157
   68MOL    C17 9531   4.621   0.836   4.108 -0.9008 -0.7768  0.2997
   68MOL    O18 9532   4.793   0.881   4.275  0.0998 -0.2328 -0.0600
   68MOL    H19 9533   4.585   0.894   4.300  0.2940  1.3539  1.4177
   68MOL    H20 9534   4.519   0.864   4.084 -0.6131  2.0351  2.1328
   68MOL    H21 9535   4.617   0.730   4.133  1.5441 -0.6901  1.2490
   68MOL    H22 9536   4.692   0.845   4.025 -0.5384 -0.4745  0.6396
   68MOL    C23 9537   4.781   0.815   4.390 -0.2242  0.2503 -0.1793
   68MOL    C24 9538   4.925   0.758   4.417 -0.1069  0.0819 -0.5510
   68MOL    O25 9539   4.736   0.901   4.491  0.0979  0.7719  0.1295
   68MOL    H26 9540   4.715   0.731   4.369 -0.3466  0.1470  0.6106
   68MOL    H27 9541   4.978   0.844   4.457 -0.3822 -0.1169  0.2359
   68MOL    H28 9542   4.983   0.718   4.333  2.5209  0.6196  0.9449
   68MOL    H29 9543   4.918   0.682   4.495 -0.1937  1.2235  0.5649
   68MOL    C30 9544   4.660   0.834   4.587  0.4790 -0.0359  0.2127
   68MOL    C31 9545   4.667   0.911   4.719 -0.0463  0.2792  0.4397
   68MOL    O32 9546   4.525   0.837   4.554 -0.1571 -0.0103  0.0712
   68MOL    H33 9547   4.712   0.740   4.605 -1.4934 -1.1723  0.0845
   68MOL    H34 9548   4.599   0.866   4.792  0.7568 -0.0853  0.9746
   68MOL    H35 9549   4.638   1.013   4.695 -1.9055 -1.0703 -3.4093
   68MOL    H36 9550   4.769   0.907   4.757  0.6276  0.1505 -1.3433
   68MOL    C37 9551   4.474   0.706   4.539  0.4170  0.3174 -0.4097
   68MOL    C38 9552   4.320   0.709   4.567 -0.3624  0.1047  0.1374
   68MOL    O39 9553   4.489   0.651   4.414  0.0940 -0.3360  0.0675
   68MOL    H40 9554   4.518   0.645   4.618 -1.7898  0.7215  1.1911
   68MOL    H41 9555   4.290   0.775   4.486  3.2605  0.7331 -0.7658
   68MOL    H42 9556   4.292   0.740   4.668 -0.8336 -1.9192  0.6449
   68MOL    H43 9557   4.282   0.607   4.565  0.2069 -0.1571  1.7005
   68MOL    C44 9558   4.533   0.519   4.416  0.5369 -0.2434  0.3348
   68MOL    C45 9559   4.558   0.475   4.269  0.1276  0.7798  0.0486
   68MOL    O46 9560   4.648   0.494   4.491  0.7486 -0.1728  0.3023
   68MOL    H47 9561   4.443   0.471   4.456 -1.0825  2.1967 -0.2608
   68MOL    H48 9562   4.575   0.367   4.262  0.8642  0.9045 -0.1370
   68MOL    H49 9563   4.651   0.522   4.239  0.6819 -0.0772  0.3988
   68MOL    H50 9564   4.468   0.512   4.219 -0.8091  1.8660  2.4450
   68MOL    C51 9565   4.663   0.364   4.540  0.3875 -0.4376 -0.3280
   68MOL    C52 9566   4.810   0.338   4.532 -0.5765 -0.3116 -0.5809
   68MOL    O53 9567   4.633   0.364   4.679 -0.0136 -0.2403 -0.1208
   68MOL    H54 9568   4.615   0.295   4.471  1.9958 -1.9611  0.0476
   68MOL    H55 9569   4.849   0.320   4.432 -0.6354 -0.1609 -0.6302
   68MOL    H56 9570   4.819   0.249   4.595 -2.5275 -0.9719 -1.1839
   68MOL    H57 9571   4.850   0.431   4.572 -1.9031  0.2569 -0.5446
   68MOL    C58 9572   4.516   0.289   4.707  0.9034  0.0852 -0.5433
   68MOL    C59 9573   4.499   0.265   4.851 -0.1212  0.5397  0.0211
   68MOL    O60 9574   4.403   0.358   4.668 -0.2472 -0.0617  0.0470
   68MOL    H61 9575   4.528   0.196   4.651  0.5040 -0.4985  0.3381
   68MOL    H62 9576   4.485   0.357   4.906  1.1836  1.1448 -0.6256
   68MOL    H63 9577   4.586   0.208   4.885  1.5410  2.7359 -0.4023
   68MOL    H64 9578   4.415   0.200   4.874  1.9013 -3.0283 -2.2058
   68MOL    C65 9579   4.306   0.273   4.612  0.7123 -0.2998 -0.0324
   68MOL    C66 9580   4.186   0.351   4.580  0.1417  0.1918  0.0522
   68MOL    O67 9581   4.359   0.213   4.494  0.5078 -0.0133  0.4684
   68MOL    H68 9582   4.285   0.200   4.689 -0.5003 -0.4162 -0.4719
   68MOL    H69 9583   4.113   0.272   4.560  1.4256 -0.9646 -0.0892
   68MOL    H70 9584   4.199   0.422   4.498  0.3416  0.9476  0.7262
   68MOL    H71 9585   4.153   0.402   4.671  1.4762  1.7929 -0.3414
   68MOL    C72 9586   4.345   0.079   4.476 -1.1133  0.9989 -0.4261
   68MOL    C73 9587   4.411   0.060   4.348 -0.0313  1.0112  0.5592
   68MOL    O74 9588   4.427   0.007   4.566  0.2815 -0.3918 -0.0266
   68MOL    H75 9589   4.240   0.051   4.479 -0.9759  0.5442  0.2894
   68MOL    H76 9590   4.501   0.121   4.350 -0.3316  1.6496 -2.8616
   68MOL    H77 9591   4.344   0.095   4.269 -1.0067  0.4019  1.1082
   68MOL    H78 9592   4.436   7.869   4.334 -1.7204  0.6788 -0.1571
   68MOL    C79 9593   4.361   7.825   4.643  0.0654  0.6291  0.4589
   68MOL    C80 9594   4.457   7.734   4.706  0.0282 -0.7750  0.3070
   68MOL    O81 9595   4.300   7.889   4.745  0.1655 -0.3130 -0.0150
   68MOL    H82 9596   4.294   7.759   4.588  0.2748  2.1280 -1.6454
   68MOL    H83 9597   4.533   7.710   4.631 -0.8647 -1.8202 -0.2707
   68MOL    H84 9598   4.411   7.647   4.753  1.8314 -0.4956  2.6813
   68MOL    H85 9599   4.502   7.783   4.792 -2.5218  0.7564  0.8305
   68MOL    C86 9600   4.179   7.830   4.778  0.3499  0.0106  0.4312
   68MOL    C87 9601   4.139   7.885   4.920  0.1499 -0.2243  0.1545
   68MOL    O88 9602   4.082   7.879   4.680 -0.2877 -1.0123 -1.0165
   68MOL    H89 9603   4.184   7.722   4.788 -2.6948 -0.1255  0.8901
   68MOL    H90 9604   4.053   7.834   4.964 -0.6672  0.5007 -0.5899
   68MOL    H91 9605   4.133   0.080   4.919  0.7800 -0.1954 -0.8337
   68MOL    H92 9606   4.220   7.865   4.991  0.3174  0.2347  0.0989
   68MOL    C93 9607   3.994   7.779   4.645  0.2890  0.2966 -0.0611
   68MOL    C94 9608   3.886   7.833   4.553  0.2157  0.5825  0.0294
   68MOL    O95 9609   4.066   7.683   4.582 -0.4462  0.7798  0.4843
   68MOL    H96 9610   3.950   7.745   4.739  4.1770 -0.7890  1.5029
   68MOL    H97 9611   3.940   7.860   4.462  0.1726 -1.1262 -0.5165
   68MOL    H98 9612   3.849   0.012   4.597 -1.4433 -0.9653  1.9575
   68MOL    H99 9613   3.800   7.768   4.539 -0.9650  2.2239 -0.4951
   68MOL   C100 9614   4.006   7.553   4.596 -0.0180 -0.5420  0.0466
   68MOL   C101 9615   4.074   7.465   4.493  0.2886 -0.4716  0.2652
   68MOL   O102 9616   4.017   7.499   4.725 -0.2103  0.2224  0.1216
   68MOL   H103 9617   3.900   7.563   4.569  0.0746 -1.1106 -0.5474
   68MOL   H104 9618   4.061   7.513   4.396 -3.9322  0.0292  0.9548
   68MOL   H105 9619   4.031   7.365   4.495  0.5885 -0.5888  1.8387
   68MOL   H106 9620   4.182   7.466   4.504  0.6656 -0.4237 -3.0501
   68MOL   C107 9621   3.899   7.444   4.760  0.1794 -0.2342 -0.6736
   68MOL   C108 9622   3.923   7.382   4.897  0.1059  0.2728 -0.2862
   68MOL   O109 9623   3.801   7.540   4.780 -0.1637  0.2617 -0.4731
   68MOL   H110 9624   3.879   7.366   4.686 -1.4148 -1.5585  1.0963
   68MOL   H111 9625   3.845   7.310   4.920  0.7890 -0.2959  0.2685
   68MOL   H112 9626   3.920   7.467   4.966  1.7156 -0.2882  0.5133
   68MOL   H113 9627   4.026   7.345   4.904 -0.3167 -0.8193  0.2253
   68MOL   C114 9628   3.677   7.504   4.747 -0.1750  0.3792 -0.1254
   68MOL   C115 9629   3.578   7.593   4.806  1.2162 -0.2185  0.7282
   68MOL   O116 9630   3.666   7.495   4.606 -0.6191  0.2392 -0.5515
   68MOL   H117 9631   3.660   7.409   4.797 -0.4020 -0.1102 -1.1154
   68MOL   H118 9632   3.546   7.570   4.907 -0.4753 -0.3136  0.1864
   68MOL   H119 9633   3.487   7.581   4.748  0.8568 -0.4328  1.3340
   68MOL   H120 9634   3.615   7.696   4.803  0.0557  0.1916 -0.0347
   68MOL   C121 9635   3.618   7.379   4.553 -0.1753 -0.0627 -0.4574
   68MOL   C122 9636   3.569   7.414   4.412  0.6229  0.0434  0.3476
   68MOL   O123 9637   3.720   7.289   4.541 -0.0757 -0.6438 -0.0798
   68MOL   H124 9638   3.534   7.351   4.616  0.9422  0.7190  1.4433
   68MOL   H125 9639   3.500   7.499   4.413  0.7471  0.1445  0.3125
   68MOL   H126 9640   3.533   7.321   4.369  2.0381  0.0135 -0.7880
   68MOL   H127 9641   3.650   7.453   4.351  0.2141  1.2480  0.5600
   68MOL   C128 9642   3.687   7.166   4.600  0.1950 -0.4792  0.6374
   68MOL   C129 9643   3.788   7.061   4.550 -0.5485 -0.2690 -0.6608
   68MOL   O130 9644   3.701   7.163   4.741  0.1126 -0.1862  0.5585
   68MOL   H131 9645   3.582   7.147   4.576  0.3525  1.2500 -1.5600
   68MOL   H132 9646   3.770   6.964   4.596  1.5144  0.0421  0.8314
   68MOL   H133 9647   3.887   7.091   4.582 -1.3223  0.2202  1.3249
   68MOL   H134 9648   3.794   7.059   4.441 -0.4189  2.9641 -0.7816
   68MOL   C135 9649   3.600   7.109   4.818  0.5572 -0.2872 -0.6539
   68MOL   C136 9650   3.636   7.106   4.968  1.0328  0.8730  1.3830
   68MOL   O137 9651   3.485   7.191   4.808  0.3830 -0.3477  0.9949
   68MOL   H138 9652   3.577   7.011   4.778 -1.4463  0.0146 -0.2965
   68MOL   H139 9653   3.560   7.058   5.029  2.3919 -2.4785  0.5391
   68MOL   H140 9654   3.647   7.207   5.009  2.7864  0.9211  0.8608
   68MOL   H141 9655   3.732   7.055   4.981  0.2817 -0.3551  2.1754
   68MOL   H142 9656   3.414   7.147   4.852 -0.6284  0.7145  0.4465
   69MOL     C1 9657   1.178   7.179   4.061  0.0719 -0.4133 -0.2874
   69MOL     C2 9658   1.092   7.300   4.090 -0.0781  0.2564  0.3214
   69MOL     O3 9659   1.310   7.232   4.066  0.1774 -0.3536 -0.4484
   69MOL     H4 9660   1.169   7.154   3.955 -0.8353  2.6203 -0.9777
   69MOL     H5 9661   0.988   7.292   4.055  0.2301  3.8719 -1.7138
   69MOL     H6 9662   1.125   7.397   4.052 -1.4214  1.0813  1.2066
   69MOL     H7 9663   1.096   7.311   4.198  0.4767  0.3916  0.2883
   69MOL     H8 9664   1.164   7.089   4.122 -0.9530 -1.2380 -1.6982
   69MOL     C9 9665   1.406   7.145   4.015 -0.5963 -0.0561  0.2005
   69MOL    C10 9666   1.444   7.199   3.880  0.4343 -0.0816  0.1764
   69MOL    O11 9667   1.520   7.151   4.089  0.0522  0.2617  0.3376
   69MOL    H12 9668   1.374   7.042   3.998 -0.8778  0.3413 -1.8083
   69MOL    H13 9669   1.516   7.128   3.838  1.0064  0.3734  0.3696
   69MOL    H14 9670   1.497   7.293   3.899  1.0781 -0.9291  2.9008
   69MOL    H15 9671   1.362   7.216   3.811  0.8654  0.2899 -0.2515
   69MOL    C16 9672   1.517   7.059   4.200 -0.5648  0.2068 -0.4570
   69MOL    C17 9673   1.646   6.972   4.190 -0.0084 -0.2196 -0.4587
   69MOL    O18 9674   1.533   7.122   4.326 -0.0870 -0.2706  0.1641
   69MOL    H19 9675   1.432   6.991   4.195 -1.5790  1.4987 -1.0063
   69MOL    H20 9676   1.657   6.927   4.091  2.6607  1.6858 -1.0913
   69MOL    H21 9677   1.656   6.886   4.256  1.3127 -0.3943 -0.8692
   69MOL    H22 9678   1.730   7.039   4.209 -2.1967  2.1922  1.0111
   69MOL    C23 9679   1.423   7.192   4.367  0.1380 -0.3575 -0.0679
   69MOL    C24 9680   1.341   7.099   4.462 -0.2414 -0.4087 -0.2245
   69MOL    O25 9681   1.458   7.310   4.437 -1.1215  0.0996  0.4388
   69MOL    H26 9682   1.364   7.231   4.284  1.0692 -0.0653 -0.5926
   69MOL    H27 9683   1.236   7.131   4.464 -0.3381 -0.6525 -1.0421
   69MOL    H28 9684   1.372   7.106   4.566  0.0419 -0.1696 -0.3263
   69MOL    H29 9685   1.341   6.993   4.437  0.5408 -0.3027 -0.6811
   69MOL    C30 9686   1.515   7.406   4.355 -0.3999  0.1194  0.4366
   69MOL    C31 9687   1.418   7.524   4.370 -0.7194  0.1425  0.3462
   69MOL    O32 9688   1.640   7.448   4.384 -0.4643 -0.1497  0.3789
   69MOL    H33 9689   1.508   7.374   4.251  0.6911  2.4136 -0.3627
   69MOL    H34 9690   1.460   7.609   4.318  1.4712 -1.5429 -0.7094
   69MOL    H35 9691   1.406   7.547   4.476  1.3904  0.4215  0.5361
   69MOL    H36 9692   1.327   7.491   4.319  0.6696  1.2627 -2.9878
   69MOL    C37 9693   1.741   7.364   4.333 -0.0103 -0.1209 -0.2800
   69MOL    C38 9694   1.803   7.446   4.221  0.1003  0.6514  0.1373
   69MOL    O39 9695   1.837   7.347   4.433  0.3847  0.4482  0.5385
   69MOL    H40 9696   1.728   7.265   4.292  3.2896 -0.6725 -0.1324
   69MOL    H41 9697   1.882   7.384   4.179 -1.1994 -0.7599 -0.3050
   69MOL    H42 9698   1.847   7.535   4.264 -1.7486  0.6384  2.1324
   69MOL    H43 9699   1.730   7.471   4.144  0.1771  0.6092  0.0513
   69MOL    C44 9700   1.814   7.252   4.530 -0.1743 -0.6479 -0.2492
   69MOL    C45 9701   1.912   7.138   4.498  0.0544 -0.8017 -0.2138
   69MOL    O46 9702   1.847   7.312   4.653  0.4242 -0.2298  0.5064
   69MOL    H47 9703   1.714   7.209   4.541 -0.1853 -1.2672 -2.6699
   69MOL    H48 9704   2.010   7.180   4.478 -0.2000 -0.1620 -0.1147
   69MOL    H49 9705   1.871   7.091   4.408  0.8814  0.2507 -1.1540
   69MOL    H50 9706   1.918   7.069   4.582  1.0341  0.3049  0.6435
   69MOL    C51 9707   1.754   7.415   4.692  0.6703 -0.1095  0.2657
   69MOL    C52 9708   1.671   7.337   4.797  0.1548 -0.2523  0.3949
   69MOL    O53 9709   1.827   7.517   4.763  0.9524 -0.3590 -0.1949
   69MOL    H54 9710   1.689   7.455   4.614 -1.5401 -0.7258  1.7683
   69MOL    H55 9711   1.603   7.407   4.845 -2.8969 -0.9564 -2.7022
   69MOL    H56 9712   1.725   7.300   4.884  0.0327 -0.5364  0.3506
   69MOL    H57 9713   1.602   7.265   4.753 -1.4625  1.6096 -0.1929
   69MOL    C58 9714   1.881   7.609   4.672 -0.5669  0.4544  0.0777
   69MOL    C59 9715   1.802   7.746   4.680  0.6212  0.6440  0.2460
   69MOL    O60 9716   2.019   7.639   4.698 -0.9046 -0.1253 -0.0756
   69MOL    H61 9717   1.872   7.587   4.566 -1.5265  2.3315 -0.2497
   69MOL    H62 9718   1.839   7.820   4.610  0.0225  0.9117  0.2151
   69MOL    H63 9719   1.828   7.787   4.778 -0.3840 -0.6813  1.0985
   69MOL    H64 9720   1.694   7.736   4.670  0.8826 -1.2535 -1.0477
   69MOL    C65 9721   2.103   7.533   4.665 -0.4398  0.7570 -0.1122
   69MOL    C66 9722   2.201   7.593   4.566 -0.3899 -0.4112  0.5167
   69MOL    O67 9723   2.182   7.493   4.778  0.0871  0.5266  0.0710
   69MOL    H68 9724   2.052   7.450   4.616  2.9161 -0.7163 -1.3326
   69MOL    H69 9725   2.144   7.645   4.489 -0.2980  0.7787  1.2506
   69MOL    H70 9726   2.275   7.521   4.531 -2.1156 -1.4837 -1.0419
   69MOL    H71 9727   2.269   7.662   4.616 -1.2016  0.8690 -0.1353
   69MOL    C72 9728   2.113   7.437   4.882 -0.0802 -0.4469 -0.4650
   69MOL    C73 9729   2.104   7.284   4.884  0.5715  0.0817 -0.3161
   69MOL    O74 9730   2.176   7.477   5.001 -0.2597 -0.4293 -0.0117
   69MOL    H75 9731   2.011   7.475   4.882  0.7312  1.9074  3.1790
   69MOL    H76 9732   2.078   7.238   4.789  3.0990 -2.0300 -0.0544
   69MOL    H77 9733   2.046   7.247   4.969 -2.4139  2.9721 -0.9935
   69MOL    H78 9734   2.204   7.254   4.914  0.0842  0.0301  1.2919
   69MOL    C79 9735   2.125   7.595   5.053 -0.0419 -0.1919  1.2878
   69MOL    C80 9736   2.011   7.567   5.146 -0.6732 -0.0264  0.2662
   69MOL    O81 9737   2.230   7.648   5.124 -0.1659 -0.0574  0.0208
   69MOL    H82 9738   2.094   7.660   4.971  3.0059  1.6308  1.5367
   69MOL    H83 9739   1.914   7.577   5.097 -0.7727  0.2170  0.5116
   69MOL    H84 9740   2.006   7.632   5.233 -0.3683 -0.6142  0.7224
   69MOL    H85 9741   2.013   7.463   5.179 -0.5254 -0.0779  0.0964
   69MOL    C86 9742   2.314   7.719   5.048 -0.1612 -0.1857 -0.2720
   69MOL    C87 9743   2.281   7.870   5.067 -0.4361 -0.7589  0.6082
   69MOL    O88 9744   2.444   7.690   5.083  0.4669  0.6102 -0.1720
   69MOL    H89 9745   2.305   7.682   4.946  1.5254 -2.9464  0.5372
   69MOL    H90 9746   2.361   0.022   5.033  0.8273 -3.6494 -2.3294
   69MOL    H91 9747   2.252   7.889   5.170 -1.8313  0.0257  0.0716
   69MOL    H92 9748   2.189   7.879   5.009  0.2322  0.8826 -0.2245
   69MOL    C93 9749   2.477   7.549   5.063 -0.7209  0.2069  0.2744
   69MOL    C94 9750   2.508   7.520   4.917  0.3400 -0.2933 -0.6137
   69MOL    O95 9751   2.591   7.505   5.134  0.0625  0.1877 -0.6612
   69MOL    H96 9752   2.390   7.494   5.100 -1.7173  0.2060 -1.9939
   69MOL    H97 9753   2.537   7.415   4.912  1.3356 -0.1064  0.9775
   69MOL    H98 9754   2.581   7.587   4.874  1.1424 -0.8785 -0.1771
   69MOL    H99 9755   2.412   7.525   4.865 -0.1607 -0.7855  0.2569
   69MOL   C100 9756   2.574   7.509   5.276  0.7293  0.0670  0.1161
   69MOL   C101 9757   2.520   7.373   5.320  0.1251 -0.2372 -0.3081
   69MOL   O102 9758   2.694   7.530   5.346  0.4802 -0.6215 -0.1299
   69MOL   H103 9759   2.502   7.588   5.299 -0.8197 -1.1591 -0.4401
   69MOL   H104 9760   2.521   7.387   5.428 -1.9187 -0.3074 -0.2614
   69MOL   H105 9761   2.570   7.282   5.287 -1.0948 -1.0949  0.1792
   69MOL   H106 9762   2.419   7.357   5.284  1.3874 -1.6629 -3.4266
   69MOL   C107 9763   2.754   7.651   5.304  0.1883 -0.0820 -0.2036
   69MOL   C108 9764   2.726   7.757   5.418 -0.8645  0.5226  0.9038
   69MOL   O109 9765   2.902   7.640   5.309  0.0927 -0.0562  0.0533
   69MOL   H110 9766   2.725   7.697   5.210  0.1609 -1.3517 -0.8153
   69MOL   H111 9767   2.757   7.859   5.393  1.2335  0.5166  3.2707
   69MOL   H112 9768   2.783   7.736   5.509 -1.0860  1.3519  1.2400
   69MOL   H113 9769   2.621   7.764   5.443 -1.5743  0.7524 -1.9970
   69MOL   C114 9770   2.963   7.537   5.235  0.2045  0.3363 -0.0594
   69MOL   C115 9771   2.999   7.580   5.095  0.3084 -0.1944  0.4501
   69MOL   O116 9772   3.080   7.489   5.289  0.4525 -0.0801  0.8412
   69MOL   H117 9773   2.901   7.448   5.226 -0.6123  0.9264 -0.3754
   69MOL   H118 9774   3.065   7.510   5.044 -0.1911  0.1299 -0.6736
   69MOL   H119 9775   3.054   7.675   5.097  0.1426  0.0349 -2.9085
   69MOL   H120 9776   2.909   7.588   5.034 -0.0781  1.9033  1.2494
   69MOL   C121 9777   3.075   7.466   5.430  0.0708 -0.1815 -0.4863
   69MOL   C122 9778   3.087   7.313   5.443 -0.0191  0.2087  0.0359
   69MOL   O123 9779   3.182   7.531   5.501  0.5863  0.1631 -0.5434
   69MOL   H124 9780   2.982   7.494   5.478 -1.1114 -3.5779 -0.6082
   69MOL   H125 9781   3.000   7.275   5.390 -0.0174 -1.8642  1.4422
   69MOL   H126 9782   3.072   7.298   5.550  0.9355  1.7063  0.3964
   69MOL   H127 9783   3.174   7.272   5.390 -1.0712 -0.6084 -1.0788
   69MOL   C128 9784   3.181   7.669   5.496  0.3502  0.4956 -0.1593
   69MOL   C129 9785   3.176   7.716   5.636  0.4703  0.9509 -0.9159
   69MOL   O130 9786   3.295   7.721   5.437 -0.3719 -0.5258 -0.0754
   69MOL   H131 9787   3.087   7.697   5.448  0.3394  1.1892  0.2507
   69MOL   H132 9788   3.267   7.683   5.687  0.4610  0.9954 -0.8704
   69MOL   H133 9789   3.083   7.685   5.682 -0.3368  0.8943 -2.5652
   69MOL   H134 9790   3.181   7.825   5.634 -0.0161  0.9849 -0.1482
   69MOL   C135 9791   3.291   7.720   5.293 -1.4252  0.1614 -0.0049
   69MOL   C136 9792   3.388   7.832   5.260  0.5848 -1.0626 -0.0139
   69MOL   O137 9793   3.335   7.598   5.243  0.1076 -0.2856  0.1177
   69MOL   H138 9794   3.190   7.743   5.262 -1.5611  1.1968  1.1516
   69MOL   H139 9795   3.419   7.842   5.156 -0.1673 -0.8075 -0.2128
   69MOL   H140 9796   3.478   7.808   5.316  0.6060 -3.3433 -0.9850
   69MOL   H141 9797   3.341   0.014   5.282  0.7210 -0.8281 -0.7143
   69MOL   H142 9798   3.285   7.533   5.292 -0.3014  0.5816  0.8735
   70MOL     C1 9799   1.998   4.717   6.537  0.7722 -0.7840 -0.5696
   70MOL     C2 9800   1.903   4.652   6.431  1.0355 -0.1696  0.1273
   70MOL     O3 9801   1.996   4.858   6.522  0.2956  0.4330 -0.7834
   70MOL     H4 9802   2.097   4.671   6.531 -0.3473 -3.4371  0.3814
   70MOL     H5 9803   1.849   4.566   6.470 -0.4742  0.5635 -0.3173
   70MOL     H6 9804   1.959   4.620   6.343  0.3431  0.2785 -0.4796
   70MOL     H7 9805   1.818   4.719   6.415  1.1938  0.6060  2.3539
   70MOL     H8 9806   1.960   4.701   6.638 -0.2739  1.1712 -0.6269
   70MOL     C9 9807   2.092   4.922   6.603  0.1730  0.1546  0.5923
   70MOL    C10 9808   2.222   4.917   6.536 -0.2593 -0.2573 -0.6703
   70MOL    O11 9809   2.056   5.056   6.619 -1.0537 -0.0713 -0.1725
   70MOL    H12 9810   2.093   4.874   6.701  2.6909 -0.1257  0.4561
   70MOL    H13 9811   2.252   4.812   6.533 -1.2074 -0.4780 -2.9872
   70MOL    H14 9812   2.287   4.969   6.606 -0.9571  0.9812 -0.9423
   70MOL    H15 9813   2.227   4.949   6.432  1.4507  0.9514 -0.2331
   70MOL    C16 9814   1.940   5.074   6.693  0.1559 -1.0900 -0.4223
   70MOL    C17 9815   1.979   5.143   6.819  0.3037 -0.1765 -0.1446
   70MOL    O18 9816   1.851   5.172   6.638  0.2454  0.6253  0.1565
   70MOL    H19 9817   1.886   4.985   6.725  1.0066 -1.1549  0.8898
   70MOL    H20 9818   2.015   5.242   6.789 -0.1814 -0.4007 -1.4991
   70MOL    H21 9819   2.058   5.102   6.881 -0.1340  0.5313  0.8865
   70MOL    H22 9820   1.896   5.166   6.886 -0.1534  0.5919 -0.9471
   70MOL    C23 9821   1.786   5.114   6.536  0.4773 -0.5475  0.4509
   70MOL    C24 9822   1.645   5.097   6.595 -0.0174  0.6456  0.2651
   70MOL    O25 9823   1.783   5.196   6.421 -0.3736  0.1088  0.3296
   70MOL    H26 9824   1.826   5.017   6.507  0.1655 -0.1989 -1.2055
   70MOL    H27 9825   1.643   5.042   6.689 -1.6226 -0.6722 -0.5121
   70MOL    H28 9826   1.583   5.034   6.531  1.2995 -1.1609  0.7240
   70MOL    H29 9827   1.589   5.191   6.593 -0.6323  0.2658 -1.0699
   70MOL    C30 9828   1.913   5.250   6.378 -0.1836 -0.2751  0.3681
   70MOL    C31 9829   1.941   5.192   6.233  0.3227 -0.4159  0.0579
   70MOL    O32 9830   1.913   5.396   6.374  0.1004  0.1145 -0.1895
   70MOL    H33 9831   2.002   5.217   6.432  1.0621 -0.3653 -1.6840
   70MOL    H34 9832   2.048   5.204   6.221  0.0342  0.8324 -1.3457
   70MOL    H35 9833   1.901   5.260   6.159 -0.2075 -0.7859 -0.0010
   70MOL    H36 9834   1.915   5.087   6.216  1.6336 -0.5937 -0.8944
   70MOL    C37 9835   1.907   5.464   6.500  0.4857 -0.0444  0.2750
   70MOL    C38 9836   2.024   5.565   6.498  0.2629 -0.7470 -0.5594
   70MOL    O39 9837   1.795   5.544   6.518  0.8352 -0.1203  0.4637
   70MOL    H40 9838   1.916   5.395   6.584 -1.1997 -0.2319  0.3162
   70MOL    H41 9839   2.117   5.519   6.532 -0.8653 -1.5771  1.4528
   70MOL    H42 9840   2.001   5.644   6.569  1.5059  1.3148 -2.3679
   70MOL    H43 9841   2.025   5.617   6.402  0.2530  1.7752  0.7674
   70MOL    C44 9842   1.674   5.477   6.542  0.5559  0.0088  0.2602
   70MOL    C45 9843   1.650   5.468   6.695 -1.1293  0.0397 -0.2365
   70MOL    O46 9844   1.567   5.553   6.485 -0.3184 -0.0188  0.5576
   70MOL    H47 9845   1.664   5.374   6.507 -3.6815  0.8802 -1.4001
   70MOL    H48 9846   1.649   5.566   6.743  0.5939 -1.0931  2.1717
   70MOL    H49 9847   1.723   5.400   6.739 -1.4776 -1.4310 -1.8771
   70MOL    H50 9848   1.547   5.445   6.720 -1.5010  2.3508  0.4238
   70MOL    C51 9849   1.583   5.578   6.351  0.6500  0.1441 -0.1192
   70MOL    C52 9850   1.512   5.459   6.281  0.1904  0.4416  0.4923
   70MOL    O53 9851   1.515   5.699   6.318  0.4874  0.4346  0.0446
   70MOL    H54 9852   1.688   5.571   6.322  0.2844  2.4792 -2.1742
   70MOL    H55 9853   1.414   5.439   6.323  0.0148  0.3477  0.0358
   70MOL    H56 9854   1.577   5.374   6.304 -1.6531 -0.5892  2.0574
   70MOL    H57 9855   1.496   5.481   6.176 -2.0481 -1.9479  0.2799
   70MOL    C58 9856   1.585   5.810   6.364 -0.6902 -0.1801  0.0737
   70MOL    C59 9857   1.701   5.857   6.276  0.2748 -0.2096  0.5836
   70MOL    O60 9858   1.499   5.917   6.374  0.1179 -0.2017  0.2274
   70MOL    H61 9859   1.624   5.799   6.465  2.2110 -0.5055 -1.0411
   70MOL    H62 9860   1.668   5.871   6.173  2.9095  1.4172 -0.1014
   70MOL    H63 9861   1.774   5.776   6.286  0.2971 -0.5241 -1.7365
   70MOL    H64 9862   1.742   5.950   6.315 -0.7864  0.4411  0.1896
   70MOL    C65 9863   1.393   5.902   6.468 -0.9084 -0.1801  0.1249
   70MOL    C66 9864   1.452   5.934   6.606 -0.3142 -0.0376 -0.3973
   70MOL    O67 9865   1.289   5.996   6.439 -0.0549 -0.2654  0.0703
   70MOL    H68 9866   1.351   5.802   6.463  0.5653 -0.8647  1.0144
   70MOL    H69 9867   1.378   5.935   6.686 -1.5598 -0.3989 -1.5152
   70MOL    H70 9868   1.504   6.029   6.593  0.0370 -0.2730 -0.7273
   70MOL    H71 9869   1.522   5.854   6.630  1.7460  1.9192  0.2811
   70MOL    C72 9870   1.188   5.943   6.354  0.1139  0.1663  0.1468
   70MOL    C73 9871   1.076   5.893   6.440 -0.0980  0.2896 -0.0426
   70MOL    O74 9872   1.126   6.044   6.274 -0.1871 -0.0902  0.0989
   70MOL    H75 9873   1.220   5.870   6.280  1.5198  2.2992 -1.3889
   70MOL    H76 9874   1.108   5.822   6.516  1.7784  1.5585  0.4073
   70MOL    H77 9875   1.003   5.833   6.388 -2.6438  2.8823  0.4096
   70MOL    H78 9876   1.037   5.987   6.480  0.2808 -0.8737  3.2307
   70MOL    C79 9877   1.208   6.125   6.203  0.6190 -0.1261  0.0438
   70MOL    C80 9878   1.171   6.104   6.051  0.0703  0.4734 -1.2211
   70MOL    O81 9879   1.183   6.256   6.237 -0.2848  0.2018  0.3805
   70MOL    H82 9880   1.312   6.102   6.223  0.1620 -0.2636  2.3306
   70MOL    H83 9881   1.065   6.126   6.033 -0.1350  0.5127  0.0201
   70MOL    H84 9882   1.185   5.998   6.031 -0.8599  0.0170  0.4459
   70MOL    H85 9883   1.245   6.151   5.986  2.5510 -1.3342  0.2571
   70MOL    C86 9884   1.191   6.287   6.372  0.0265 -0.2256 -0.1747
   70MOL    C87 9885   1.338   6.323   6.400  0.1482  1.0990  0.3182
   70MOL    O88 9886   1.126   6.404   6.402  0.0834 -0.1761  0.2079
   70MOL    H89 9887   1.149   6.210   6.437 -0.2937 -1.1825 -1.4848
   70MOL    H90 9888   1.398   6.234   6.380 -2.1407 -0.4546  0.2197
   70MOL    H91 9889   1.355   6.334   6.507  1.6127 -1.3614  0.3848
   70MOL    H92 9890   1.370   6.411   6.344 -2.6310  1.3293 -0.9690
   70MOL    C93 9891   0.985   6.398   6.398 -0.4771  0.1739  0.0757
   70MOL    C94 9892   0.924   6.328   6.531 -0.9900 -0.1496  0.9092
   70MOL    O95 9893   0.936   6.530   6.404  0.8070  0.1912  0.4552
   70MOL    H96 9894   0.944   6.344   6.313  0.8340 -0.9717  0.1621
   70MOL    H97 9895   0.816   6.345   6.533 -0.9740 -0.1066  2.2695
   70MOL    H98 9896   0.967   6.375   6.619  0.3796  0.3496 -0.0099
   70MOL    H99 9897   0.950   6.223   6.539 -1.3320 -0.2466  0.7595
   70MOL   C100 9898   0.939   6.602   6.286 -0.3365  0.4438 -0.1963
   70MOL   C101 9899   0.802   6.603   6.222 -0.1998  0.1190 -0.0418
   70MOL   O102 9900   0.974   6.733   6.305  0.4409  0.2420  0.5265
   70MOL   H103 9901   1.017   6.558   6.224  0.4313  0.0707  1.0105
   70MOL   H104 9902   0.777   6.500   6.196  0.5608 -0.6205  2.0082
   70MOL   H105 9903   0.812   6.655   6.127  1.7969 -1.9780 -1.0207
   70MOL   H106 9904   0.716   6.652   6.269 -0.7042  1.3860 -2.2417
   70MOL   C107 9905   1.096   6.756   6.373 -0.0284  0.0638 -0.3200
   70MOL   C108 9906   1.192   6.823   6.270 -0.5269 -0.1312  0.5475
   70MOL   O109 9907   1.084   6.849   6.477 -0.8577  0.3323 -1.0541
   70MOL   H110 9908   1.145   6.665   6.408  0.3946  0.0262 -0.9890
   70MOL   H111 9909   1.167   6.786   6.170 -2.7136  1.0005  0.6331
   70MOL   H112 9910   1.299   6.806   6.284 -0.0604  2.1085 -0.0361
   70MOL   H113 9911   1.182   6.931   6.261  2.2195  0.2204  1.3031
   70MOL   C114 9912   0.998   6.812   6.581  0.2318  0.8525 -0.0708
   70MOL   C115 9913   1.077   6.756   6.698 -0.0444  0.1763 -0.5257
   70MOL   O116 9914   0.902   6.905   6.621  0.1320 -0.3426 -0.9072
   70MOL   H117 9915   0.940   6.724   6.553 -0.8560  1.0649  1.4660
   70MOL   H118 9916   1.120   6.659   6.673  0.5657  0.2306  0.3159
   70MOL   H119 9917   1.022   6.742   6.791  0.7774 -1.1426 -0.2195
   70MOL   H120 9918   1.145   6.838   6.721 -0.7780  0.8308 -0.6621
   70MOL   C121 9919   0.814   6.947   6.521 -0.3644 -0.4494 -0.4349
   70MOL   C122 9920   0.677   6.871   6.522 -0.8102 -0.3756 -0.3928
   70MOL   O123 9921   0.786   7.089   6.536  0.3076 -0.1800 -0.1327
   70MOL   H124 9922   0.856   6.923   6.424  1.0362 -2.4279  0.6279
   70MOL   H125 9923   0.609   6.937   6.468  0.5980  0.2665 -1.3959
   70MOL   H126 9924   0.627   6.860   6.618 -1.1306 -0.8835 -0.6102
   70MOL   H127 9925   0.687   6.771   6.478  0.4395  0.2355 -1.5360
   70MOL   C128 9926   0.888   7.168   6.480  0.8281 -0.4487  0.7612
   70MOL   C129 9927   0.835   7.260   6.369 -0.2357 -0.1126  0.1492
   70MOL   O130 9928   0.939   7.250   6.581 -0.0839  0.7142  0.5646
   70MOL   H131 9929   0.971   7.112   6.438  1.7587  0.9945  0.6218
   70MOL   H132 9930   0.827   7.204   6.276  1.0997  1.5273 -0.9927
   70MOL   H133 9931   0.900   7.345   6.345 -0.5553  0.0804 -0.0444
   70MOL   H134 9932   0.739   7.299   6.401 -0.2637  0.0067 -0.0760
   70MOL   C135 9933   1.025   7.176   6.671 -0.9116  0.3497 -0.1430
   70MOL   C136 9934   1.128   7.270   6.733  0.8437  0.2415 -0.3308
   70MOL   O137 9935   0.952   7.117   6.772 -0.1768 -0.3025  0.5345
   70MOL   H138 9936   1.080   7.099   6.617  0.9089  0.7484  1.0932
   70MOL   H139 9937   1.073   7.352   6.776  0.4763 -0.3092  0.2531
   70MOL   H140 9938   1.195   7.316   6.660 -0.0691  1.1689 -0.5907
   70MOL   H141 9939   1.195   7.218   6.802  0.4016  0.3211  0.1502
   70MOL   H142 9940   0.916   7.043   6.726  0.7838 -0.9260  0.7749
   71MOL     C1 9941   6.860   1.381   4.862 -0.5426 -0.5378 -0.1368
   71MOL     C2 9942   6.728   1.319   4.825 -0.1200  0.6156  0.3970
   71MOL     O3 9943   6.965   1.384   4.767  0.2007  0.0914  0.6828
   71MOL     H4 9944   6.881   1.321   4.951 -0.4953 -1.5854 -0.8508
   71MOL     H5 9945   6.685   1.343   4.728  0.4355 -1.0218 -0.2733
   71MOL     H6 9946   6.656   1.356   4.898 -0.6451  2.4309 -1.0108
   71MOL     H7 9947   6.732   1.210   4.834 -1.6308  0.5684  0.5846
   71MOL     H8 9948   6.845   1.486   4.889 -0.3706 -0.9592  1.6745
   71MOL     C9 9949   7.099   1.395   4.820 -0.4224  0.3330  0.0360
   71MOL    C10 9950   7.202   1.383   4.710 -0.3408 -0.6394  0.8976
   71MOL    O11 9951   7.116   1.525   4.875 -0.2882  0.4490  0.3069
   71MOL    H12 9952   7.115   1.325   4.902 -1.4637  1.5008  1.2703
   71MOL    H13 9953   7.174   1.456   4.634 -0.6607 -1.4763  0.2055
   71MOL    H14 9954   7.201   1.283   4.668  1.6551 -0.0344 -0.6812
   71MOL    H15 9955   7.301   1.406   4.749 -0.5835 -1.3793  1.9523
   71MOL    C16 9956   7.146   1.525   5.006 -0.6356 -0.1703 -0.1818
   71MOL    C17 9957   7.191   1.669   5.039  0.4889 -0.8672  0.2126
   71MOL    O18 9958   7.037   1.500   5.092 -0.2737  0.4388  0.0887
   71MOL    H19 9959   7.231   1.460   5.024  0.0852  0.8256  0.0824
   71MOL    H20 9960   7.269   1.672   5.115  0.7959 -1.1185 -0.0906
   71MOL    H21 9961   7.102   1.731   5.054 -0.2839 -2.3589  1.9400
   71MOL    H22 9962   7.235   1.704   4.945 -2.0842 -1.1116 -1.1293
   71MOL    C23 9963   7.065   1.411   5.194 -0.4217  0.3553 -0.4794
   71MOL    C24 9964   6.924   1.404   5.258  0.1715  0.7239 -0.4661
   71MOL    O25 9965   7.104   1.282   5.157 -0.6493 -0.2800  0.0047
   71MOL    H26 9966   7.146   1.454   5.254 -0.7212 -2.2963  1.9610
   71MOL    H27 9967   6.864   1.339   5.194 -0.6257 -0.3731  1.3718
   71MOL    H28 9968   6.884   1.506   5.264 -0.6200  0.3451  1.1006
   71MOL    H29 9969   6.925   1.359   5.357 -1.4475  0.8576 -0.3675
   71MOL    C30 9970   7.159   1.203   5.262 -0.0584  0.2877 -0.4680
   71MOL    C31 9971   7.187   1.058   5.205  0.1957 -0.7228  0.4914
   71MOL    O32 9972   7.283   1.258   5.300  0.4073  0.1474 -0.7079
   71MOL    H33 9973   7.095   1.210   5.350 -0.5566 -1.8571 -0.6162
   71MOL    H34 9974   7.256   1.048   5.122 -1.7874 -0.7808 -1.2002
   71MOL    H35 9975   7.093   1.010   5.177  0.1019 -1.6103  2.2001
   71MOL    H36 9976   7.228   0.997   5.286  0.7180  0.8373  1.4193
   71MOL    C37 9977   7.303   1.273   5.440  0.0961  0.2446  0.0992
   71MOL    C38 9978   7.452   1.318   5.454  0.1796 -0.1783 -0.3288
   71MOL    O39 9979   7.222   1.383   5.486 -0.6968 -0.0971 -0.0601
   71MOL    H40 9980   7.284   1.176   5.485  0.0443  1.0255  1.8098
   71MOL    H41 9981   7.523   1.268   5.389  0.6918 -0.2991  0.3131
   71MOL    H42 9982   7.493   1.321   5.555 -0.5324  0.9559 -0.0599
   71MOL    H43 9983   7.450   1.424   5.431  2.3713 -0.1878 -0.5989
   71MOL    C44 9984   7.205   1.378   5.621  0.3858  0.2253 -0.0755
   71MOL    C45 9985   7.085   1.474   5.648  0.2561 -0.4772 -1.0593
   71MOL    O46 9986   7.166   1.248   5.671  0.6979  0.0026 -0.0749
   71MOL    H47 9987   7.295   1.417   5.669  0.2485  2.0561 -1.2380
   71MOL    H48 9988   6.992   1.425   5.620  0.0016 -0.4969 -0.1874
   71MOL    H49 9989   7.103   1.571   5.601 -3.2434 -0.7350 -3.1067
   71MOL    H50 9990   7.075   1.500   5.753  0.9850  0.0558 -1.1161
   71MOL    C51 9991   7.234   1.210   5.789 -0.2465 -0.4613 -0.0497
   71MOL    C52 9992   7.181   1.081   5.831  0.0285 -0.3633 -0.3223
   71MOL    O53 9993   7.373   1.194   5.769  0.2500 -0.0160  0.1823
   71MOL    H54 9994   7.227   1.287   5.866 -0.1767  0.2524 -0.7469
   71MOL    H55 9995   7.074   1.086   5.851 -0.0018  1.7362 -0.8542
   71MOL    H56 9996   7.236   1.044   5.917  1.5236  0.2191 -1.0248
   71MOL    H57 9997   7.192   1.017   5.743 -0.8089 -1.7209  0.5303
   71MOL    C58 9998   7.449   1.277   5.855 -0.1236  0.2194 -0.5572
   71MOL    C59 9999   7.588   1.244   5.833  0.0164  0.8268 -0.0363
   71MOL    O6010000   7.450   1.417   5.824 -0.5156  0.2687  0.0975
   71MOL    H6110001   7.438   1.266   5.963 -1.3235  0.1381 -0.6752
   71MOL    H6210002   7.648   1.270   5.920 -0.1254  1.9064 -0.2464
   71MOL    H6310003   7.624   1.289   5.740 -1.7735  1.0916 -0.6126
   71MOL    H6410004   7.590   1.137   5.814  1.0195  1.0266 -1.0984
   71MOL    C6510005   7.449   1.493   5.942 -0.2372 -0.8885  0.1505
   71MOL    C6610006   7.473   1.635   5.898 -0.0609  0.1414 -0.0159
   71MOL    O6710007   7.332   1.492   6.000 -0.2461 -0.0938 -0.5171
   71MOL    H6810008   7.530   1.462   6.008 -0.5028 -0.3465  0.7368
   71MOL    H6910009   7.495   1.706   5.977 -0.1683  0.0942  0.0551
   71MOL    H7010010   7.383   1.662   5.843 -0.0017  0.6106  0.1203
   71MOL    H7110011   7.564   1.623   5.838  0.2072 -0.7502  0.5556
   71MOL    C7210012   7.337   1.534   6.134  0.1745  0.1907 -0.5066
   71MOL    C7310013   7.206   1.588   6.174  0.8109 -0.4488  0.2824
   71MOL    O7410014   7.361   1.422   6.213 -0.0027 -0.1780  0.1699
   71MOL    H7510015   7.413   1.611   6.150 -0.1730  1.0708 -2.9389
   71MOL    H7610016   7.121   1.537   6.129  0.6347 -0.9945  1.2008
   71MOL    H7710017   7.203   1.693   6.146  0.1460 -0.3276  0.7937
   71MOL    H7810018   7.199   1.580   6.283 -1.7241 -0.0460  0.1764
   71MOL    C7910019   7.469   1.436   6.308 -0.2022 -0.5361 -0.3497
   71MOL    C8010020   7.471   1.304   6.379  0.4641  0.7828  0.0116
   71MOL    O8110021   7.594   1.437   6.246 -0.1090  0.3790 -0.2492
   71MOL    H8210022   7.452   1.520   6.376  2.6570 -1.8700  2.0853
   71MOL    H8310023   7.574   1.289   6.412  0.2124  0.5304  0.6860
   71MOL    H8410024   7.434   1.236   6.302  0.1045 -0.1719  1.0250
   71MOL    H8510025   7.395   1.315   6.456 -3.4466 -0.9017 -3.3551
   71MOL    C8610026   7.674   1.549   6.280 -0.2478  0.4416  0.0553
   71MOL    C8710027   7.816   1.506   6.242  0.6060  0.0450  0.1664
   71MOL    O8810028   7.645   1.659   6.212  0.4032  0.3764  0.1167
   71MOL    H8910029   7.656   1.566   6.386 -0.3357 -0.1177  0.1335
   71MOL    H9010030   7.849   1.420   6.300  0.6812  0.2784  0.4651
   71MOL    H9110031   7.880   1.589   6.271 -0.9403  0.7418  1.5950
   71MOL    H9210032   7.822   1.474   6.137  1.5694  0.3606  0.1137
   71MOL    C9310033   7.629   1.775   6.293 -0.4057 -0.3281  0.0779
   71MOL    C9410034   7.651   1.897   6.205 -0.0852  0.4614  0.5017
   71MOL    O9510035   7.500   1.785   6.348 -0.2927 -0.4721 -0.1570
   71MOL    H9610036   7.710   1.779   6.366  0.2556 -3.4685 -0.4225
   71MOL    H9710037   7.757   1.919   6.194 -0.2357  2.0190  1.9064
   71MOL    H9810038   7.613   1.989   6.251 -0.1277  0.0523  1.2852
   71MOL    H9910039   7.609   1.874   6.107  0.1092 -0.0475  0.5406
   71MOL   C10010040   7.506   1.809   6.486 -0.4161  0.3296  0.1310
   71MOL   C10110041   7.365   1.850   6.523  0.2813 -0.6969 -0.6848
   71MOL   O10210042   7.543   1.694   6.556 -0.3455 -0.1559 -0.9028
   71MOL   H10310043   7.568   1.897   6.503 -1.4009  0.6565  2.1940
   71MOL   H10410044   7.369   1.877   6.628  1.2291  1.3695 -1.2264
   71MOL   H10510045   7.308   1.758   6.509 -1.2447  0.1022  0.1253
   71MOL   H10610046   7.338   1.938   6.465  0.7901  0.9844  1.5499
   71MOL   C10710047   7.625   1.713   6.663 -0.6792  0.4879  0.3257
   71MOL   C10810048   7.610   1.578   6.736 -0.7489 -0.1252 -0.2839
   71MOL   O10910049   7.765   1.731   6.630 -0.3917 -0.2703  0.4516
   71MOL   H11010050   7.592   1.804   6.713 -1.7263 -0.3353  1.1614
   71MOL   H11110051   7.508   1.581   6.776 -0.9500 -0.4928 -0.7654
   71MOL   H11210052   7.683   1.573   6.816 -0.7595 -0.0306 -0.2680
   71MOL   H11310053   7.628   1.489   6.676  1.2172  0.0076  0.1046
   71MOL   C11410054   7.827   1.845   6.668  0.3970 -0.0100 -0.2077
   71MOL   C11510055   0.063   1.821   6.686 -0.1381 -0.0347  0.0956
   71MOL   O11610056   7.794   1.951   6.576 -0.5043  0.2971 -0.4439
   71MOL   H11710057   7.783   1.876   6.763 -0.1838  1.5509 -0.9597
   71MOL   H11810058   0.092   1.758   6.602 -0.1071 -1.8345  1.4238
   71MOL   H11910059   0.083   1.760   6.774  2.7673  0.2008 -0.3577
   71MOL   H12010060   0.118   1.913   6.702 -0.9032  0.5904 -0.8030
   71MOL   C12110061   7.786   2.079   6.625 -0.1436 -0.0113  0.3338
   71MOL   C12210062   7.801   2.186   6.511  0.1559  0.0086 -0.0014
   71MOL   O12310063   7.659   2.093   6.685 -0.4871 -0.1704 -0.1183
   71MOL   H12410064   7.859   2.095   6.704 -0.7261 -1.4360  1.1677
   71MOL   H12510065   7.786   2.283   6.560 -0.3422 -1.2756  2.4986
   71MOL   H12610066   7.716   2.167   6.446  0.2324 -0.4302  0.0248
   71MOL   H12710067   7.895   2.168   6.459 -0.2537 -2.2299  0.0043
   71MOL   C12810068   7.651   2.186   6.786  0.2014 -0.0481  0.4697
   71MOL   C12910069   7.516   2.258   6.759  0.4631 -0.7232  0.3736
   71MOL   O13010070   7.635   2.122   6.912  0.2935  0.8982  1.0632
   71MOL   H13110071   7.727   2.265   6.793  1.7871 -1.6143  1.1640
   71MOL   H13210072   7.493   2.324   6.843  0.5324  0.0587 -0.2099
   71MOL   H13310073   7.426   2.197   6.751  0.8133 -1.2180  0.1684
   71MOL   H13410074   7.524   2.310   6.663  0.3684  0.3352  0.9250
   71MOL   C13510075   7.661   2.202   7.021  0.1296 -0.0729  0.1387
   71MOL   C13610076   7.616   2.126   7.142  0.6555 -0.9161  0.4287
   71MOL   O13710077   7.796   2.232   7.029 -0.7268  0.6105 -0.3813
   71MOL   H13810078   7.598   2.290   7.021  0.4490  0.1589 -0.2208
   71MOL   H13910079   7.701   2.071   7.182  0.5435 -1.5062 -0.1207
   71MOL   H14010080   7.535   2.057   7.116 -0.4512 -0.2188  1.9640
   71MOL   H14110081   7.570   2.184   7.221  1.8209  0.9098 -0.2104
   71MOL   H14210082   7.834   2.157   7.072 -0.6624  0.4365 -0.7361
   72MOL     C110083   0.898   7.266   2.468  0.2167 -0.1910 -0.4091
   72MOL     C210084   0.798   7.151   2.442 -0.2570 -0.2247  0.2512
   72MOL     O310085   1.008   7.205   2.538  0.1857  0.0816 -0.0068
   72MOL     H410086   0.853   7.342   2.531  1.6621  1.0168 -0.8154
   72MOL     H510087   0.715   7.177   2.376 -0.5317 -0.8290  0.3642
   72MOL     H610088   0.765   7.116   2.540 -0.0531 -0.7019  0.1503
   72MOL     H710089   0.851   7.064   2.403 -0.8295 -1.5315  2.3083
   72MOL     H810090   0.924   7.309   2.371  0.9942  0.5128  0.1017
   72MOL     C910091   1.101   7.304   2.580  0.3339 -0.2054  0.0836
   72MOL    C1010092   1.104   7.305   2.734  0.1240 -0.0031  0.2697
   72MOL    O1110093   1.231   7.266   2.536 -0.1320 -0.3732 -0.3775
   72MOL    H1210094   1.087   7.401   2.533  0.3804  1.0040  2.4872
   72MOL    H1310095   1.118   7.203   2.770 -3.0079 -0.5764 -0.0215
   72MOL    H1410096   1.010   7.348   2.769  0.5860 -0.2520  1.8814
   72MOL    H1510097   1.185   7.367   2.772  0.6870 -1.8878  2.2488
   72MOL    C1610098   1.262   7.291   2.401  0.1727 -0.0557  0.4430
   72MOL    C1710099   1.274   7.443   2.375 -0.3069  0.1009  0.2383
   72MOL    O1810100   1.384   7.238   2.379 -0.3060 -0.1761 -0.4632
   72MOL    H1910101   1.182   7.250   2.339 -1.6088  2.6640  0.8804
   72MOL    H2010102   1.331   7.490   2.455 -0.8615  2.3516 -0.6314
   72MOL    H2110103   1.179   7.496   2.365 -1.0891 -1.2676  0.2295
   72MOL    H2210104   1.336   7.464   2.288 -2.1267 -0.3672 -1.2055
   72MOL    C2310105   1.380   7.104   2.338 -0.4812  1.3480  0.2420
   72MOL    C2410106   1.381   7.092   2.186 -0.8636 -0.0055  0.3127
   72MOL    O2510107   1.491   7.035   2.389  0.2554 -0.3786  0.1599
   72MOL    H2610108   1.293   7.049   2.372  1.6737 -2.2623  0.2038
   72MOL    H2710109   1.390   6.985   2.166 -0.4532 -0.0819  0.8971
   72MOL    H2810110   1.475   7.144   2.166 -1.5308  1.3666  0.6940
   72MOL    H2910111   1.309   7.141   2.119  0.8695 -0.6113 -2.0563
   72MOL    C3010112   1.475   7.021   2.523  0.0287 -0.2792 -0.1073
   72MOL    C3110113   1.466   6.870   2.540 -0.0772 -0.7284  0.6224
   72MOL    O3210114   1.589   7.065   2.592  0.3652 -0.0832 -0.3155
   72MOL    H3310115   1.382   7.058   2.567  1.0601 -0.5545  2.3797
   72MOL    H3410116   1.562   6.824   2.514  1.9362  2.7469  1.6135
   72MOL    H3510117   1.380   6.827   2.488 -0.6717  1.5461 -0.3047
   72MOL    H3610118   1.437   6.845   2.642  1.7421 -0.3535  1.2612
   72MOL    C3710119   1.588   7.198   2.629  0.1423 -0.5830 -0.2726
   72MOL    C3810120   1.569   7.200   2.779 -0.2998 -0.2519 -0.1566
   72MOL    O3910121   1.707   7.253   2.590 -0.3203  0.3731 -0.3145
   72MOL    H4010122   1.507   7.254   2.582 -0.6169  1.1386  2.9890
   72MOL    H4110123   1.562   7.307   2.802  2.8422 -0.4093  1.8543
   72MOL    H4210124   1.642   7.146   2.839  0.7687  0.5505 -0.7100
   72MOL    H4310125   1.472   7.159   2.809 -0.3995  0.0874 -0.0057
   72MOL    C4410126   1.720   7.290   2.458  0.2444 -0.8087  0.1383
   72MOL    C4510127   1.716   7.444   2.454  0.4376  1.1499  0.1054
   72MOL    O4610128   1.840   7.252   2.397 -0.2996  0.1736 -0.0227
   72MOL    H4710129   1.635   7.255   2.398 -1.5904  0.6141  1.8337
   72MOL    H4810130   1.634   7.488   2.510  0.1533  0.7786 -0.0227
   72MOL    H4910131   1.692   7.473   2.351 -0.4958  1.7861  0.4975
   72MOL    H5010132   1.803   7.495   2.496  0.6954  0.1041  0.8478
   72MOL    C5110133   1.858   7.116   2.391  0.7792  0.0382  0.2098
   72MOL    C5210134   1.895   7.096   2.243 -0.2396 -0.1741 -0.1729
   72MOL    O5310135   1.964   7.078   2.472 -0.0741 -0.1210  0.1077
   72MOL    H5410136   1.766   7.060   2.407  0.8715  0.0900  0.9383
   72MOL    H5510137   1.985   7.152   2.220 -0.4482  1.0402  1.8471
   72MOL    H5610138   1.803   7.126   2.192 -1.0527  0.8363  1.8110
   72MOL    H5710139   1.908   6.991   2.218  1.1857  0.4855 -2.2696
   72MOL    C5810140   1.942   7.026   2.602 -0.6033 -0.5575  0.7480
   72MOL    C5910141   1.975   6.878   2.593  0.2451 -0.2064 -0.1910
   72MOL    O6010142   2.026   7.077   2.705 -0.5832  0.4278 -0.3685
   72MOL    H6110143   1.836   7.038   2.627 -1.1045 -0.2153 -1.4917
   72MOL    H6210144   1.904   6.836   2.521 -0.9880  2.5814 -0.6717
   72MOL    H6310145   1.975   6.816   2.683 -0.4805 -0.6729 -0.5043
   72MOL    H6410146   2.075   6.866   2.552 -1.0480 -1.7593 -3.0290
   72MOL    C6510147   2.010   7.212   2.729 -0.2679  0.1174 -0.3248
   72MOL    C6610148   1.958   7.226   2.875 -0.3624  1.0100 -0.2490
   72MOL    O6710149   2.136   7.266   2.739 -0.2367  0.0302  0.0610
   72MOL    H6810150   1.947   7.262   2.654 -0.8217  0.4456  0.3575
   72MOL    H6910151   1.939   7.328   2.908  1.3497  1.2053  0.1732
   72MOL    H7010152   2.040   7.181   2.932  1.3372 -0.7526 -3.8913
   72MOL    H7110153   1.868   7.167   2.895  0.5398 -0.0335  0.8758
   72MOL    C7210154   2.186   7.305   2.611 -0.6858  0.8686 -0.1111
   72MOL    C7310155   2.193   7.452   2.610 -0.0383  0.6468 -0.3015
   72MOL    O7410156   2.317   7.262   2.600  0.1658  0.8553  0.1914
   72MOL    H7510157   2.120   7.270   2.531 -1.1755  0.6525  0.3844
   72MOL    H7610158   2.098   7.502   2.632  0.5266  1.7138 -0.2497
   72MOL    H7710159   2.224   7.486   2.511 -0.2005  0.5699 -0.3793
   72MOL    H7810160   2.274   7.479   2.678 -0.8253 -1.6503  1.6136
   72MOL    C7910161   2.330   7.121   2.571  0.2363  0.2784 -0.2928
   72MOL    C8010162   2.372   7.107   2.423  0.3142 -0.0418 -0.4574
   72MOL    O8110163   2.426   7.058   2.653 -0.1706  0.1222  0.3419
   72MOL    H8210164   2.238   7.062   2.579  0.4856 -0.4009 -2.1610
   72MOL    H8310165   2.454   7.169   2.386  1.8544 -0.8802  1.5050
   72MOL    H8410166   2.290   7.130   2.354 -2.7635 -0.2833  2.9550
   72MOL    H8510167   2.402   7.004   2.405 -1.2835 -0.5645 -0.2001
   72MOL    C8610168   2.387   7.045   2.785 -0.0492  0.1535  0.0061
   72MOL    C8710169   2.344   6.906   2.796  0.0587 -0.5800 -0.4035
   72MOL    O8810170   2.493   7.072   2.871 -0.2152 -0.1306 -0.7042
   72MOL    H8910171   2.303   7.110   2.812 -0.5414  0.9207 -3.2339
   72MOL    H9010172   2.313   6.878   2.897  1.3038  0.6251  0.3290
   72MOL    H9110173   2.431   6.846   2.769  0.9322 -0.1505  1.3633
   72MOL    H9210174   2.257   6.886   2.733 -1.0004 -0.4983  1.0066
   72MOL    C9310175   2.493   7.207   2.923 -0.3718 -0.3487  0.3248
   72MOL    C9410176   2.468   7.194   3.073 -0.7021 -0.4894 -0.1384
   72MOL    O9510177   2.618   7.263   2.916  0.0439 -0.0157  0.6168
   72MOL    H9610178   2.423   7.274   2.873 -0.0371  0.1522  0.5352
   72MOL    H9710179   2.463   7.296   3.111 -1.9944 -0.6145  0.0360
   72MOL    H9810180   2.546   7.137   3.125  1.1443  1.3688 -0.8140
   72MOL    H9910181   2.368   7.155   3.092 -0.7220  0.4660  1.9524
   72MOL   C10010182   2.652   7.300   2.786 -0.1448  0.7206  0.0490
   72MOL   C10110183   2.595   7.435   2.766 -0.3281  1.0185  0.4713
   72MOL   O10210184   2.791   7.300   2.776  0.4822  0.2778 -0.0389
   72MOL   H10310185   2.608   7.232   2.714  0.8964 -1.4848  1.4375
   72MOL   H10410186   2.621   7.454   2.662 -1.3383  0.0708  0.0250
   72MOL   H10510187   2.643   7.509   2.829 -0.9238  1.4335  0.4351
   72MOL   H10610188   2.487   7.440   2.778 -0.2942  1.8749  0.4186
   72MOL   C10710189   2.841   7.166   2.753 -0.0539 -0.7869  0.4123
   72MOL   C10810190   2.885   7.158   2.603  0.0972  0.6899  0.8703
   72MOL   O10910191   2.950   7.130   2.835  0.4065  0.6860 -0.4169
   72MOL   H11010192   2.757   7.099   2.774 -2.2018  2.2534  1.8406
   72MOL   H11110193   2.977   7.210   2.575  1.3700 -1.5073  0.8904
   72MOL   H11210194   2.805   7.186   2.535  1.8470  0.6355 -1.2771
   72MOL   H11310195   2.917   7.058   2.576  1.3342  1.2972 -0.0023
   72MOL   C11410196   2.906   7.084   2.962 -0.3813  0.2014 -0.8468
   72MOL   C11510197   2.868   6.931   2.950  0.2406 -0.1500 -0.0551
   72MOL   O11610198   3.007   7.075   3.057 -0.5615 -0.2163 -0.6985
   72MOL   H11710199   2.823   7.142   3.003  0.0450 -1.2209  2.1169
   72MOL   H11810200   2.955   6.867   2.964  0.7028  0.7719  1.4385
   72MOL   H11910201   2.816   6.909   2.857 -0.8582 -0.2902  0.5860
   72MOL   H12010202   2.802   6.909   3.034  0.2793  1.6361  0.4754
   72MOL   C12110203   3.046   7.205   3.103  0.5828  0.0674 -0.2918
   72MOL   C12210204   2.997   7.221   3.247  0.6580  0.4781 -0.2726
   72MOL   O12310205   3.183   7.218   3.106 -1.0421 -0.0457  0.1671
   72MOL   H12410206   2.993   7.278   3.042  1.7411  3.0807  2.1640
   72MOL   H12510207   3.056   7.304   3.284 -0.5401  2.3909 -2.5127
   72MOL   H12610208   3.016   7.132   3.307  0.9555  0.0131 -1.0448
   72MOL   H12710209   2.891   7.246   3.251  0.5420 -0.1519  1.0090
   72MOL   C12810210   3.247   7.222   2.981  0.7837  0.3374  0.0703
   72MOL   C12910211   3.319   7.356   2.975  0.1609  0.0144  0.1385
   72MOL   O13010212   3.337   7.121   2.968 -0.8380 -0.4894 -0.2634
   72MOL   H13110213   3.178   7.224   2.897 -0.6905  0.1692  1.2467
   72MOL   H13210214   3.248   7.438   2.984 -0.7565 -0.6809 -0.6850
   72MOL   H13310215   3.370   7.374   2.880 -0.5833  1.2623 -0.0295
   72MOL   H13410216   3.396   7.360   3.052 -0.3201 -0.0701  0.6236
   72MOL   C13510217   3.279   6.998   2.920  0.0855  0.2333  0.8250
   72MOL   C13610218   3.393   6.911   2.860 -0.4448 -0.1662 -0.0610
   72MOL   O13710219   3.231   6.936   3.036 -0.0844 -0.1070 -0.9653
   72MOL   H13810220   3.190   7.008   2.859  0.1302  2.8238  1.1302
   72MOL   H13910221   3.459   6.965   2.792 -0.4460  0.6760  0.5943
   72MOL   H14010222   3.348   6.821   2.818 -0.3006 -0.0699 -0.4239
   72MOL   H14110223   3.454   6.876   2.943 -2.3197  0.4240  1.6091
   72MOL   H14210224   3.149   6.983   3.039 -0.3186 -0.5375 -0.6074
   73MOL     C110225   5.641   4.227   1.031  0.2599  0.2709  0.4865
   73MOL     C210226   5.640   4.144   0.897 -0.1260  0.1458 -0.2357
   73MOL     O310227   5.655   4.132   1.138  0.1534 -0.0048  0.0934
   73MOL     H410228   5.543   4.274   1.042 -1.2031 -2.1249 -1.7082
   73MOL     H510229   5.554   4.077   0.894  0.6439 -1.0106  2.2782
   73MOL     H610230   5.733   4.088   0.892  0.2370  0.8227 -1.2216
   73MOL     H710231   5.631   4.213   0.813 -1.9264  0.8093  0.4743
   73MOL     H810232   5.715   4.307   1.035 -0.2994  0.9491 -1.9254
   73MOL     C910233   5.663   4.187   1.261  0.2474  0.5636  0.7164
   73MOL    C1010234   5.537   4.150   1.332  0.8396 -0.1078 -0.6184
   73MOL    O1110235   5.771   4.127   1.331 -0.0636  0.1764  0.2452
   73MOL    H1210236   5.673   4.295   1.259 -2.5589  0.8148 -1.2232
   73MOL    H1310237   5.550   4.201   1.428  1.4262  0.0242 -0.7633
   73MOL    H1410238   5.535   4.041   1.342 -1.8506 -0.2675 -2.4159
   73MOL    H1510239   5.450   4.187   1.278 -0.8730 -2.8056  0.2158
   73MOL    C1610240   5.898   4.176   1.299  1.1680  0.5523 -0.0639
   73MOL    C1710241   5.939   4.261   1.423  0.2571 -0.6838 -0.1951
   73MOL    O1810242   5.976   4.066   1.292 -0.0619 -0.1257 -0.0534
   73MOL    H1910243   5.906   4.238   1.210 -1.8984  0.1818 -0.6468
   73MOL    H2010244   5.862   4.337   1.432  0.9420 -0.2428  2.0752
   73MOL    H2110245   6.044   4.289   1.429  0.1952 -0.9176  2.2800
   73MOL    H2210246   5.924   4.203   1.514  1.5414  1.1968  1.2619
   73MOL    C2310247   5.958   3.992   1.179 -0.7200  0.2872  0.3390
   73MOL    C2410248   6.052   4.042   1.071  0.1988  0.0363 -0.4350
   73MOL    O2510249   5.982   3.859   1.201  0.6944 -0.5597  0.1355
   73MOL    H2610250   5.854   3.991   1.148 -0.4262 -1.2710 -0.6259
   73MOL    H2710251   6.151   3.997   1.075  0.2592  0.3808  3.2234
   73MOL    H2810252   6.067   4.150   1.077 -0.3398  0.1486 -1.0020
   73MOL    H2910253   6.017   4.012   0.972  0.1896 -1.6504  0.0615
   73MOL    C3010254   5.902   3.789   1.294  0.3724  0.3336  0.7139
   73MOL    C3110255   5.846   3.664   1.225  0.5549  0.2492 -0.4653
   73MOL    O3210256   5.985   3.742   1.396 -0.6542  0.3390  0.0480
   73MOL    H3310257   5.819   3.854   1.325  0.4231  0.7147  0.0462
   73MOL    H3410258   5.786   3.693   1.138  1.0337 -1.0078 -1.2299
   73MOL    H3510259   5.784   3.616   1.300  0.0145 -0.1009 -1.1299
   73MOL    H3610260   5.936   3.606   1.205 -1.0877 -2.0955 -1.2740
   73MOL    C3710261   5.958   3.811   1.515  0.2299 -0.6534  0.2733
   73MOL    C3810262   5.866   3.715   1.592 -0.6347 -0.0028  0.4474
   73MOL    O3910263   6.070   3.830   1.598  0.2326 -0.1631  0.2698
   73MOL    H4010264   5.915   3.910   1.501  3.2112  0.5714 -0.4602
   73MOL    H4110265   5.858   3.753   1.694 -2.1484  1.9143 -0.3463
   73MOL    H4210266   5.908   3.615   1.578 -3.1714 -1.2464  1.3495
   73MOL    H4310267   5.766   3.717   1.549 -0.4622  1.1612  0.0834
   73MOL    C4410268   6.154   3.937   1.555 -0.4861  0.0921  0.5387
   73MOL    C4510269   6.177   4.019   1.680  0.1850 -0.6932 -1.2033
   73MOL    O4610270   6.276   3.902   1.500  0.3967  0.3715  0.6906
   73MOL    H4710271   6.109   4.002   1.481 -0.0938 -1.9311 -1.5612
   73MOL    H4810272   6.226   4.111   1.648  1.3190 -0.6450  0.6063
   73MOL    H4910273   6.229   3.963   1.758  0.1573  2.4668  1.1566
   73MOL    H5010274   6.077   4.041   1.715 -0.5310 -3.0146 -1.6973
   73MOL    C5110275   6.282   3.887   1.360  0.2690  0.5705  0.2540
   73MOL    C5210276   6.326   4.024   1.307 -0.5924  0.4491 -0.8906
   73MOL    O5310277   6.385   3.802   1.313  0.1804 -0.1278  0.2306
   73MOL    H5410278   6.189   3.859   1.311 -0.0186  0.3272  0.9362
   73MOL    H5510279   6.434   4.039   1.319 -1.3091  4.3044  1.4563
   73MOL    H5610280   6.259   4.102   1.342  0.1789 -0.3276  2.6071
   73MOL    H5710281   6.313   4.029   1.199 -1.4290 -2.3038 -0.9526
   73MOL    C5810282   6.336   3.681   1.277  0.0550  0.1965  0.3938
   73MOL    C5910283   6.315   3.668   1.126 -0.3044 -0.1319  0.8359
   73MOL    O6010284   6.430   3.581   1.318 -0.0963 -0.1200  0.2584
   73MOL    H6110285   6.240   3.659   1.323 -1.0923  1.9139 -1.0878
   73MOL    H6210286   6.288   3.571   1.084  2.1899 -0.3725 -0.3199
   73MOL    H6310287   6.415   3.689   1.087 -0.4404 -1.2855 -0.1772
   73MOL    H6410288   6.253   3.752   1.094  0.9237  0.6916  0.5792
   73MOL    C6510289   6.433   3.556   1.459  0.6108 -0.6309 -0.5547
   73MOL    C6610290   6.379   3.411   1.500  0.4391 -0.0741 -0.1931
   73MOL    O6710291   6.566   3.558   1.506 -0.4431 -0.1612 -0.5053
   73MOL    H6810292   6.369   3.625   1.514  3.4006  1.1004  0.6200
   73MOL    H6910293   6.273   3.405   1.474  0.2343  0.9070  0.3745
   73MOL    H7010294   6.399   3.394   1.606 -1.8809 -0.3287  0.2446
   73MOL    H7110295   6.434   3.337   1.442 -0.7782  0.3354 -1.9001
   73MOL    C7210296   6.613   3.681   1.545 -0.9626 -0.5297 -0.1381
   73MOL    C7310297   6.621   3.684   1.695  0.6307  0.1125 -0.3557
   73MOL    O7410298   6.735   3.710   1.483  0.1851 -0.0647  0.1533
   73MOL    H7510299   6.542   3.758   1.515  0.1393  1.9048  3.1324
   73MOL    H7610300   6.676   3.773   1.726 -1.5124  0.7760  1.7047
   73MOL    H7710301   6.677   3.595   1.723  1.6865  0.6997 -0.5893
   73MOL    H7810302   6.523   3.702   1.740  1.1464 -0.0655  0.8664
   73MOL    C7910303   6.727   3.758   1.354  0.2595  0.8486  0.3985
   73MOL    C8010304   6.758   3.912   1.347 -0.0769  0.5800 -0.1357
   73MOL    O8110305   6.823   3.699   1.273  0.1564  0.2571  0.7024
   73MOL    H8210306   6.633   3.742   1.301  0.4337  1.1745 -0.0039
   73MOL    H8310307   6.703   3.965   1.425  1.3983 -0.7378  1.8662
   73MOL    H8410308   6.736   3.950   1.248  1.3326 -0.0540 -0.7130
   73MOL    H8510309   6.865   3.926   1.362 -0.0773  0.4673 -0.0328
   73MOL    C8610310   6.792   3.569   1.234 -0.2591 -0.3122 -0.1099
   73MOL    C8710311   6.757   3.566   1.089 -0.0578  0.0120 -0.5346
   73MOL    O8810312   6.897   3.483   1.241  0.2934 -0.3076  0.1607
   73MOL    H8910313   6.706   3.527   1.286 -0.8650  2.0489  0.8372
   73MOL    H9010314   6.715   3.474   1.049 -0.1764 -0.6026  0.9700
   73MOL    H9110315   6.843   3.609   1.037  0.7105 -0.4674  0.3264
   73MOL    H9210316   6.689   3.649   1.067 -0.2329 -0.2216 -0.8928
   73MOL    C9310317   6.932   3.438   1.365 -0.8470  0.4314  0.1403
   73MOL    C9410318   6.937   3.281   1.360  0.3026  0.1312 -0.0803
   73MOL    O9510319   7.071   3.466   1.387 -0.3018  0.2798 -0.0012
   73MOL    H9610320   6.871   3.481   1.445 -2.3189  0.3829 -0.9477
   73MOL    H9710321   6.841   3.229   1.353  0.5825 -0.8367  2.8219
   73MOL    H9810322   6.989   3.240   1.446  1.2566 -0.1129 -0.7698
   73MOL    H9910323   7.004   3.237   1.286 -1.6148 -2.6021 -0.2564
   73MOL   C10010324   7.101   3.598   1.404 -0.2465 -0.1585 -0.7136
   73MOL   C10110325   7.108   3.625   1.552  0.3723 -1.3169 -0.3717
   73MOL   O10210326   7.229   3.630   1.349 -0.4799 -0.4610 -0.6344
   73MOL   H10310327   7.031   3.669   1.360  1.9645  0.4595 -3.3521
   73MOL   H10410328   7.146   3.726   1.570  0.0060 -1.1639 -0.4523
   73MOL   H10510329   7.170   3.557   1.610 -1.6867 -0.7259  2.6783
   73MOL   H10610330   7.003   3.632   1.582  0.6718  2.3138  0.1380
   73MOL   C10710331   7.226   3.638   1.207 -0.6815  0.3686 -0.2606
   73MOL   C10810332   7.248   3.783   1.179 -0.4920  0.2472  0.3751
   73MOL   O10910333   7.335   3.567   1.149  0.2773  0.0630 -0.1055
   73MOL   H11010334   7.127   3.616   1.167 -0.6648  1.3095 -0.8192
   73MOL   H11110335   7.350   3.818   1.194 -0.0866 -0.7169 -0.1107
   73MOL   H11210336   7.178   3.844   1.236 -2.0315 -1.9357  0.8788
   73MOL   H11310337   7.225   3.791   1.072  0.7366 -3.7443 -0.2626
   73MOL   C11410338   7.304   3.436   1.119  0.0971  0.6518  0.9290
   73MOL   C11510339   7.324   3.424   0.962  0.0579 -0.2773  0.2379
   73MOL   O11610340   7.408   3.359   1.181  0.6530  0.2047  0.5782
   73MOL   H11710341   7.202   3.409   1.146  0.3690  0.0085  1.3244
   73MOL   H11810342   7.237   3.472   0.918 -1.0359  0.1696  2.7712
   73MOL   H11910343   7.319   3.317   0.942 -2.8738 -0.4803  1.7700
   73MOL   H12010344   7.412   3.478   0.927 -1.2604  0.7864 -1.4752
   73MOL   C12110345   7.370   3.313   1.308  0.5546 -0.2752  0.0230
   73MOL   C12210346   7.305   3.181   1.287 -0.0384 -0.1073 -0.4942
   73MOL   O12310347   7.479   3.300   1.390 -0.7130  0.1927  0.3506
   73MOL   H12410348   7.302   3.386   1.351  0.1323 -0.5598 -0.1638
   73MOL   H12510349   7.379   3.101   1.277  0.7584  0.2843  1.9146
   73MOL   H12610350   7.235   3.184   1.204 -1.9547  0.9499  1.1330
   73MOL   H12710351   7.256   3.156   1.381 -0.3710 -0.8232 -0.8566
   73MOL   C12810352   7.503   3.402   1.483 -0.1817  0.7456  0.3812
   73MOL   C12910353   7.460   3.338   1.619 -0.0487  0.0353 -0.0722
   73MOL   O13010354   7.637   3.429   1.489 -0.1337  0.0868  0.2401
   73MOL   H13110355   7.440   3.487   1.459 -0.5383 -0.1472 -2.0537
   73MOL   H13210356   7.447   3.415   1.695  0.3465 -2.9650  3.1840
   73MOL   H13310357   7.524   3.262   1.663  1.5414  1.4911  0.1838
   73MOL   H13410358   7.357   3.302   1.622 -0.4765  1.3206  1.7688
   73MOL   C13510359   7.690   3.511   1.385  0.6303  0.5090 -0.1343
   73MOL   C13610360   7.823   3.565   1.412 -0.0666 -0.0285  0.1663
   73MOL   O13710361   7.695   3.443   1.256  0.9453 -0.2405 -0.3157
   73MOL   H13810362   7.625   3.597   1.372  2.3900  1.3687 -4.0456
   73MOL   H13910363   7.803   3.629   1.498 -1.6010  0.7698 -0.7500
   73MOL   H14010364   7.862   3.631   1.334 -3.9541  1.5601 -0.5581
   73MOL   H14110365   7.891   3.483   1.436 -2.8750 -2.7532 -0.8787
   73MOL   H14210366   7.605   3.430   1.230  1.0084  2.3004 -1.9713
   74MOL     C110367   6.592   7.737   1.248  0.8388  0.2853  0.3008
   74MOL     C210368   6.674   7.846   1.316 -0.4430 -0.2018  0.0158
   74MOL     O310369   6.469   7.794   1.208 -0.1553 -0.2739  0.0714
   74MOL     H410370   6.561   7.662   1.320 -1.1033  2.4856  1.8327
   74MOL     H510371   6.717   0.000   1.242  0.7010 -2.2846 -1.2854
   74MOL     H610372   6.758   7.805   1.372 -0.4932  1.6223  1.4987
   74MOL     H710373   6.618   7.905   1.389 -0.7470 -1.8631  1.1548
   74MOL     H810374   6.656   7.711   1.164  1.1445 -2.3984  1.3031
   74MOL     C910375   6.391   7.720   1.125  0.2825  0.3312 -0.2406
   74MOL    C1010376   6.283   7.808   1.075  0.0829 -0.1230  0.2676
   74MOL    O1110377   6.459   7.676   1.012  0.0964 -0.7875 -0.1911
   74MOL    H1210378   6.343   7.642   1.185 -0.4528 -0.9920 -2.4781
   74MOL    H1310379   6.325   7.886   1.012 -0.8911  0.3442  0.1950
   74MOL    H1410380   6.234   7.857   1.159  0.9813  0.5887  0.3891
   74MOL    H1510381   6.208   7.754   1.018 -0.2262  0.9814 -0.3739
   74MOL    C1610382   6.457   7.532   1.003  0.1745 -0.4677 -0.5285
   74MOL    C1710383   6.503   7.490   0.862 -0.2380  0.7387  0.9505
   74MOL    O1810384   6.545   7.467   1.087  0.1188  0.1152 -0.4479
   74MOL    H1910385   6.358   7.487   1.008  0.4790 -1.2856 -1.6648
   74MOL    H2010386   6.464   7.394   0.828  1.1588  1.2579 -2.3095
   74MOL    H2110387   6.611   7.483   0.844 -0.5907 -3.7206 -0.2229
   74MOL    H2210388   6.474   7.563   0.787 -0.5025 -0.1279  0.1959
   74MOL    C2310389   6.484   7.374   1.178 -0.0020  0.0496 -0.4666
   74MOL    C2410390   6.603   7.322   1.261 -1.2761 -1.4853 -0.5414
   74MOL    O2510391   6.400   7.430   1.267  0.0263 -0.6066 -0.1207
   74MOL    H2610392   6.444   7.300   1.109 -2.3006 -0.9492  1.8353
   74MOL    H2710393   6.651   7.394   1.328  0.7925 -2.1466 -1.2616
   74MOL    H2810394   6.683   7.287   1.196 -0.3370 -2.0638  0.9080
   74MOL    H2910395   6.572   7.231   1.311 -0.8896 -1.7916 -0.8507
   74MOL    C3010396   6.269   7.389   1.263 -0.1946 -0.5226  0.1282
   74MOL    C3110397   6.190   7.439   1.385  0.1885 -0.5397  0.1173
   74MOL    O3210398   6.194   7.428   1.149  0.8042 -0.1380 -0.0620
   74MOL    H3310399   6.273   7.281   1.279  0.8637 -0.3271  1.3098
   74MOL    H3410400   6.195   7.548   1.391 -1.0152 -0.4097 -1.0079
   74MOL    H3510401   6.229   7.396   1.477  2.5359  1.3753  0.0803
   74MOL    H3610402   6.085   7.411   1.376  0.2024 -0.6820  0.4107
   74MOL    C3710403   6.138   7.323   1.089 -0.0478 -0.5650 -0.2571
   74MOL    C3810404   6.025   7.370   1.007 -0.3601  0.2232  0.7819
   74MOL    O3910405   6.224   7.260   0.998 -0.2782  0.0392 -0.5685
   74MOL    H4010406   6.090   7.260   1.163 -2.0277 -3.1452 -3.6194
   74MOL    H4110407   6.058   7.455   0.947  0.7346 -1.1122 -0.5662
   74MOL    H4210408   5.947   7.411   1.071 -0.7091  0.8520 -0.0373
   74MOL    H4310409   5.996   7.282   0.949 -1.6369  0.2287  1.4017
   74MOL    C4410410   6.227   7.124   1.010 -0.1735  0.7657  0.3501
   74MOL    C4510411   6.302   7.079   0.882 -0.3367  0.4598  0.3982
   74MOL    O4610412   6.297   7.087   1.123 -0.1511  0.3274 -0.4364
   74MOL    H4710413   6.124   7.088   1.004 -0.1615  0.7459  0.2519
   74MOL    H4810414   6.316   6.973   0.901 -1.0247  0.4542  0.8821
   74MOL    H4910415   6.405   7.113   0.885  0.1811 -0.7607 -1.9110
   74MOL    H5010416   6.243   7.103   0.793 -0.2246 -1.7736 -0.3058
   74MOL    C5110417   6.231   6.992   1.198  0.6498  0.0732 -0.2759
   74MOL    C5210418   6.337   6.936   1.293  0.2886  0.9591 -0.1093
   74MOL    O5310419   6.148   7.049   1.284  0.5088  0.2646  0.5597
   74MOL    H5410420   6.186   6.910   1.141 -1.9830 -0.6481  2.7268
   74MOL    H5510421   6.413   6.879   1.238 -0.3245  1.3630 -1.4008
   74MOL    H5610422   6.287   6.868   1.361  1.4009  0.5901  0.3468
   74MOL    H5710423   6.399   7.010   1.345  0.6422  0.9355 -0.4889
   74MOL    C5810424   6.024   6.981   1.292 -0.5605  0.1600  0.2721
   74MOL    C5910425   5.952   7.056   1.401 -0.5919  0.2024 -1.1017
   74MOL    O6010426   5.953   6.975   1.168  0.7018 -0.1339  0.2445
   74MOL    H6110427   6.053   6.880   1.322 -1.5493  0.5836  2.7888
   74MOL    H6210428   6.020   7.076   1.484 -1.4445  4.9377 -1.4538
   74MOL    H6310429   5.871   6.990   1.434  1.6621 -2.9241 -1.5184
   74MOL    H6410430   5.915   7.151   1.364 -0.7199 -0.1762 -1.9658
   74MOL    C6510431   5.894   6.855   1.138 -0.3691  0.1195  0.2586
   74MOL    C6610432   5.824   6.878   1.004  0.8060 -0.3441 -0.0727
   74MOL    O6710433   5.984   6.754   1.122  0.3045 -0.5391  0.2440
   74MOL    H6810434   5.820   6.828   1.214 -1.0916 -2.4090 -1.2726
   74MOL    H6910435   5.790   6.781   0.968  0.1610  0.1163 -0.7231
   74MOL    H7010436   5.889   6.916   0.924  1.4977 -0.3684  0.4695
   74MOL    H7110437   5.739   6.945   1.009  0.5538 -0.8430  2.5310
   74MOL    C7210438   5.935   6.624   1.144 -0.3151 -0.4351  0.2583
   74MOL    C7310439   6.039   6.522   1.102  0.3758 -0.0063 -0.3402
   74MOL    O7410440   5.904   6.608   1.283  0.0031 -0.3678 -0.5439
   74MOL    H7510441   5.842   6.609   1.090 -0.2731  0.1358  0.0184
   74MOL    H7610442   6.051   6.525   0.994 -0.0278  2.6747 -0.3567
   74MOL    H7710443   6.002   6.425   1.136  0.3795  0.8386  2.2255
   74MOL    H7810444   6.132   6.528   1.160  0.1690  1.4097 -0.1348
   74MOL    C7910445   5.804   6.514   1.317 -0.9262  0.0736 -0.1315
   74MOL    C8010446   5.791   6.491   1.468 -0.2606  0.0165  0.2001
   74MOL    O8110447   5.677   6.555   1.266 -0.5022  0.1092  0.1608
   74MOL    H8210448   5.826   6.422   1.263 -0.0660  0.2559 -0.1066
   74MOL    H8310449   5.889   6.470   1.511  0.2112  1.2361 -0.2724
   74MOL    H8410450   5.736   6.400   1.490 -0.0156 -0.3646 -0.7523
   74MOL    H8510451   5.736   6.574   1.513 -0.8161  1.0225 -2.2578
   74MOL    C8610452   5.615   6.457   1.198 -0.1769 -0.5656  0.0559
   74MOL    C8710453   5.474   6.505   1.166 -0.2307 -0.2467  0.7184
   74MOL    O8810454   5.680   6.423   1.077 -0.3397 -0.0416 -0.5533
   74MOL    H8910455   5.605   6.372   1.265 -0.0040 -0.5286  0.1282
   74MOL    H9010456   5.479   6.596   1.107 -2.7340 -2.1678 -2.5934
   74MOL    H9110457   5.423   6.518   1.261 -1.0268 -3.4276  0.7925
   74MOL    H9210458   5.423   6.432   1.104  2.7252  0.1228 -2.3291
   74MOL    C9310459   5.653   6.293   1.039  0.3292  0.4362  0.2333
   74MOL    C9410460   5.686   6.282   0.888 -0.1242 -0.5715 -0.2227
   74MOL    O9510461   5.736   6.204   1.103  0.4291 -0.3724 -0.4359
   74MOL    H9610462   5.548   6.269   1.058  0.8392 -1.5555  0.7265
   74MOL    H9710463   5.794   6.289   0.874  0.2096  0.3262  2.5500
   74MOL    H9810464   5.630   6.349   0.822 -1.4223  0.2394  1.6513
   74MOL    H9910465   5.653   6.183   0.859  0.8452 -0.4606 -1.8001
   74MOL   C10010466   5.666   6.092   1.151 -0.4999 -0.0563 -0.3025
   74MOL   C10110467   5.762   5.966   1.171 -0.4429  0.7795 -0.0132
   74MOL   O10210468   5.620   6.118   1.278  0.0186 -0.5319  0.0715
   74MOL   H10310469   5.588   6.064   1.081 -1.6946  0.8661  0.6339
   74MOL   H10410470   5.835   5.987   1.249 -0.9381 -1.0402  0.9632
   74MOL   H10510471   5.820   5.967   1.078 -1.2722 -1.0908 -0.5682
   74MOL   H10610472   5.698   5.878   1.174  1.3038 -0.5534 -1.0115
   74MOL   C10710473   5.492   6.067   1.293  0.1006  0.0747  0.7063
   74MOL   C10810474   5.463   6.091   1.438  0.1842 -0.4112  1.2424
   74MOL   O10910475   5.394   6.147   1.220  0.5511 -0.1143  0.2164
   74MOL   H11010476   5.494   5.962   1.264 -0.3165  0.6819 -1.6106
   74MOL   H11110477   5.543   6.042   1.493  0.9390 -0.4050  0.1846
   74MOL   H11210478   5.366   6.046   1.460  0.3896 -1.6260 -0.2236
   74MOL   H11310479   5.463   6.198   1.458  0.0495 -0.2573  0.4367
   74MOL   C11410480   5.301   6.070   1.150  0.2499  0.4219  0.3665
   74MOL   C11510481   5.181   6.167   1.115 -0.2107  0.9809  0.7143
   74MOL   O11610482   5.354   6.029   1.026  0.0333  0.4092  0.3109
   74MOL   H11710483   5.272   5.984   1.209  1.9197  1.3482  2.5838
   74MOL   H11810484   5.094   6.115   1.077  0.2852  0.5676  0.1310
   74MOL   H11910485   5.229   6.238   1.049  1.8529 -1.8762 -0.9738
   74MOL   H12010486   5.147   6.223   1.202 -2.5346  1.0987 -0.2624
   74MOL   C12110487   5.323   5.896   0.995 -0.2455 -0.4545  0.0480
   74MOL   C12210488   5.376   5.883   0.852  0.2848  0.1059  0.0860
   74MOL   O12310489   5.402   5.811   1.077 -0.0113  0.3501 -0.0847
   74MOL   H12410490   5.217   5.870   0.998 -0.3888 -0.0550 -1.1085
   74MOL   H12510491   5.349   5.785   0.812 -1.3842  0.5228  0.1330
   74MOL   H12610492   5.484   5.885   0.857  0.2273  0.6524  1.2512
   74MOL   H12710493   5.348   5.960   0.780  0.8121  1.0324  0.8726
   74MOL   C12810494   5.349   5.685   1.088 -1.1903 -0.4510  0.6079
   74MOL   C12910495   5.439   5.605   1.186  0.4717  0.0267  0.0736
   74MOL   O13010496   5.226   5.695   1.150  0.1358  0.6555  0.1425
   74MOL   H13110497   5.338   5.638   0.990 -0.4600 -1.9111  1.2098
   74MOL   H13210498   5.452   5.652   1.284 -1.9948  0.3725  0.2578
   74MOL   H13310499   5.539   5.607   1.143  0.4600  1.0121  0.0691
   74MOL   H13410500   5.404   5.509   1.223 -0.3347  0.5797  0.7583
   74MOL   C13510501   5.134   5.599   1.111  0.0981 -0.3596 -0.2463
   74MOL   C13610502   5.007   5.607   1.194  0.1294  0.3119 -0.6817
   74MOL   O13710503   5.092   5.616   0.976  0.0552  0.1009 -0.1053
   74MOL   H13810504   5.178   5.499   1.119 -1.9913 -1.1286  2.5647
   74MOL   H13910505   5.043   5.601   1.297  0.4294 -0.7838 -0.8407
   74MOL   H14010506   4.924   5.540   1.173  0.1243  0.0191  0.2632
   74MOL   H14110507   4.975   5.711   1.194 -1.4013 -0.1436 -0.7230
   74MOL   H14210508   5.060   5.705   0.971  0.7395  0.2555 -3.7745
   75MOL     C110509   0.172   0.776   7.493  0.2994 -0.8173  1.1667
   75MOL     C210510   0.108   0.743   7.360 -0.3761 -0.5867 -0.2960
   75MOL     O310511   0.063   0.815   7.587 -0.1073  0.0667 -0.1446
   75MOL     H410512   0.241   0.858   7.473  0.0110 -0.7415  0.4651
   75MOL     H510513   0.187   0.705   7.294 -0.7761  1.1469 -1.8044
   75MOL     H610514   0.066   0.832   7.314  0.5809 -0.6533 -1.3277
   75MOL     H710515   0.031   0.667   7.372 -0.9049  0.0334  0.2437
   75MOL     H810516   0.220   0.689   7.536  2.0094  0.5468  2.0931
   75MOL     C910517   0.108   0.864   7.710 -0.8953  0.3220 -0.7034
   75MOL    C1010518   0.185   0.754   7.778  0.9891  0.2575 -0.1169
   75MOL    O1110519   0.182   0.974   7.710  0.3839 -0.0475  0.2656
   75MOL    H1210520   0.019   0.876   7.771 -1.7249 -0.8584 -1.6622
   75MOL    H1310521   0.189   0.774   7.885 -0.2088  0.2594 -0.0625
   75MOL    H1410522   0.283   0.742   7.732  1.6985 -1.1895  1.6535
   75MOL    H1510523   0.120   0.668   7.760  3.1410 -1.3239 -0.6106
   75MOL    C1610524   0.123   1.085   7.648 -0.5008  0.2053  0.1171
   75MOL    C1710525   0.008   1.147   7.732 -0.0968 -0.0320  0.4330
   75MOL    O1810526   0.218   1.187   7.641  0.5714 -0.2557 -1.0010
   75MOL    H1910527   0.096   1.066   7.544 -0.3100  0.0046  0.1036
   75MOL    H2010528   7.844   1.075   7.755 -0.9688  0.8279  0.1958
   75MOL    H2110529   7.889   1.242   7.690  1.5099  1.0522  1.5518
   75MOL    H2210530   0.054   1.178   7.826  0.5375 -2.4598  0.9437
   75MOL    C2310531   0.332   1.162   7.567 -0.3138  0.0965  0.2575
   75MOL    C2410532   0.309   1.255   7.443  0.5460 -0.1731  0.0965
   75MOL    O2510533   0.447   1.209   7.638 -0.3552 -0.2501  0.2425
   75MOL    H2610534   0.342   1.055   7.550  3.2361  0.4808 -0.4671
   75MOL    H2710535   0.228   1.220   7.379  0.8335  0.2567 -0.5083
   75MOL    H2810536   0.402   1.253   7.386  0.3184 -3.9738 -0.2772
   75MOL    H2910537   0.283   1.353   7.482 -1.7505 -0.0670 -1.5770
   75MOL    C3010538   0.465   1.120   7.749  0.9064 -0.6372  0.3210
   75MOL    C3110539   0.564   1.009   7.715 -0.3626 -0.0261 -0.3322
   75MOL    O3210540   0.533   1.191   7.853 -0.6276 -0.3909  0.0856
   75MOL    H3310541   0.373   1.075   7.787 -0.1323  2.3743  1.5094
   75MOL    H3410542   0.581   0.955   7.807 -0.8260  1.3961  0.6110
   75MOL    H3510543   0.662   1.047   7.685 -0.6753  0.3450 -0.9031
   75MOL    H3610544   0.519   0.936   7.647  0.6751 -0.2110 -0.8331
   75MOL    C3710545   0.444   1.281   0.001 -0.2386  0.2540  0.5224
   75MOL    C3810546   0.412   1.243   0.147  0.2100  0.0775 -1.0370
   75MOL    O3910547   0.500   1.407   0.015 -0.1115 -0.1552 -0.5072
   75MOL    H4010548   0.348   1.297   7.865  0.4246  1.9050 -0.2543
   75MOL    H4110549   0.365   1.145   0.142  0.0056  0.0335  1.1159
   75MOL    H4210550   0.356   1.319   0.202 -0.9659 -1.2711 -0.3373
   75MOL    H4310551   0.507   1.228   0.198  0.0370  0.3700 -0.6228
   75MOL    C4410552   0.530   1.470   7.808  0.5437  0.3586 -0.2527
   75MOL    C4510553   0.443   1.590   7.809  0.4218  0.5081  0.0559
   75MOL    O4610554   0.663   1.510   7.811 -0.1313 -0.2671 -0.1951
   75MOL    H4710555   0.503   1.414   7.719 -1.2096 -1.1918  1.2008
   75MOL    H4810556   0.470   1.652   7.894  1.2474  0.1707  0.0434
   75MOL    H4910557   0.341   1.560   7.833  1.1538 -2.2244 -0.0916
   75MOL    H5010558   0.454   1.652   7.720 -1.7777  0.5364 -0.2166
   75MOL    C5110559   0.745   1.447   7.718 -0.5140  0.5530  0.4039
   75MOL    C5210560   0.747   1.526   7.589  0.2052  0.2008  0.2528
   75MOL    O5310561   0.875   1.436   7.758 -0.3317  0.4507  0.3183
   75MOL    H5410562   0.709   1.348   7.692 -0.5572  0.0874  2.1734
   75MOL    H5510563   0.738   1.633   7.609 -0.4897 -0.0551  1.3816
   75MOL    H5610564   0.655   1.492   7.541  0.5492  0.2000 -0.4088
   75MOL    H5710565   0.839   1.514   7.533  0.1078  1.1098 -0.1162
   75MOL    C5810566   0.890   1.367   7.878 -0.2021  0.5056 -0.3277
   75MOL    C5910567   0.964   1.236   7.852  0.2458 -0.4433 -0.0327
   75MOL    O6010568   0.970   1.440   0.051  0.3613 -0.5704  0.8435
   75MOL    H6110569   0.796   1.348   0.015 -0.4461  0.8708 -0.6371
   75MOL    H6210570   0.902   1.178   7.784 -1.7130 -1.8160  2.8319
   75MOL    H6310571   0.979   1.168   0.021  1.1576  0.7233  0.7803
   75MOL    H6410572   1.064   1.258   7.813 -0.6672 -0.4735 -2.4759
   75MOL    C6510573   0.907   1.559   0.109  0.1310  0.2868 -0.2517
   75MOL    C6610574   0.809   1.506   0.217 -0.1976 -0.3233  0.2423
   75MOL    O6710575   1.006   1.636   0.171 -0.2121  0.3213  0.2238
   75MOL    H6810576   0.858   1.613   0.028  0.7080 -0.0452 -0.8297
   75MOL    H6910577   0.846   1.433   0.289  0.7185  1.1650  1.3084
   75MOL    H7010578   0.716   1.471   0.173  1.0435  0.3262 -3.0771
   75MOL    H7110579   0.775   1.590   0.278 -1.7044 -1.0020  0.3479
   75MOL    C7210580   1.100   1.678   0.078  0.2495  0.6091 -0.1291
   75MOL    C7310581   1.075   1.829   0.041 -0.1395 -0.6680 -0.3759
   75MOL    O7410582   1.220   1.677   0.135 -0.0724 -0.0601  0.4601
   75MOL    H7510583   1.102   1.630   7.894 -2.0330 -0.3903  0.2955
   75MOL    H7610584   1.090   1.891   0.129 -0.1024  0.0026 -0.8504
   75MOL    H7710585   0.975   1.855   0.006 -0.1343 -2.1020 -1.4847
   75MOL    H7810586   1.147   1.859   7.878 -1.3304 -0.9005 -1.5951
   75MOL    C7910587   1.276   1.548   0.158 -0.3175 -0.4936 -0.0883
   75MOL    C8010588   1.382   1.530   0.052 -0.4661  0.3966  0.2310
   75MOL    O8110589   1.346   1.540   0.275  0.0615  0.0743 -0.5934
   75MOL    H8210590   1.200   1.471   0.168 -1.8175  1.0769  0.8201
   75MOL    H8310591   1.339   1.541   7.867  0.2790  1.8541  0.0645
   75MOL    H8410592   1.436   1.435   0.055 -0.1592  0.5977  2.2792
   75MOL    H8510593   1.464   1.599   0.071  0.7736 -0.9544 -0.1088
   75MOL    C8610594   1.268   1.509   0.387 -0.4147 -0.2844 -0.0853
   75MOL    C8710595   1.302   1.369   0.431  0.2378  0.4795 -0.1833
   75MOL    O8810596   1.311   1.589   0.488 -0.5156 -0.1298 -0.7920
   75MOL    H8910597   1.163   1.535   0.377 -0.1233  0.8189 -0.3877
   75MOL    H9010598   1.404   1.369   0.470 -0.3043 -2.6825  1.3930
   75MOL    H9110599   1.294   1.300   0.347 -3.1167 -0.2890  0.7149
   75MOL    H9210600   1.237   1.347   0.515  1.3709  0.3326  0.6732
   75MOL    C9310601   1.253   1.716   0.490 -0.0562 -0.3709  0.3236
   75MOL    C9410602   1.160   1.705   0.607  0.7219 -0.2236 -0.3670
   75MOL    O9510603   1.350   1.818   0.509  0.0542 -0.3141 -0.1739
   75MOL    H9610604   1.198   1.739   0.399  1.2669 -0.8141 -0.6242
   75MOL    H9710605   1.201   1.675   0.704 -0.1022  0.9916  0.3753
   75MOL    H9810606   1.083   1.639   0.569  1.3580 -1.5450  0.5882
   75MOL    H9910607   1.110   1.801   0.620 -0.8443 -0.9112 -1.2753
   75MOL   C10010608   1.433   1.844   0.403 -0.2724 -0.1590 -0.4971
   75MOL   C10110609   1.406   1.991   0.358  0.2248  0.0468  0.0206
   75MOL   O10210610   1.561   1.839   0.447  0.2022 -0.0971  0.2762
   75MOL   H10310611   1.405   1.775   0.323 -1.6971 -0.7337  0.4736
   75MOL   H10410612   1.434   2.054   0.443 -0.3103 -1.4565  1.3527
   75MOL   H10510613   1.300   2.004   0.337  0.0331 -0.8496  0.3952
   75MOL   H10610614   1.454   2.019   0.265  1.9977 -0.0205  0.8953
   75MOL   C10710615   1.614   1.709   0.451 -0.1828  0.4922 -0.3703
   75MOL   C10810616   1.713   1.686   0.340  0.2534  0.0161  0.8958
   75MOL   O10910617   1.675   1.679   0.568  0.0067  0.2007  0.0452
   75MOL   H11010618   1.552   1.620   0.449 -1.7107  1.5405 -1.0648
   75MOL   H11110619   1.662   1.711   0.247 -0.7268  1.9213  1.9028
   75MOL   H11210620   1.748   1.583   0.342  2.2295  0.6319 -0.5620
   75MOL   H11310621   1.803   1.744   0.359  0.1434 -0.4425  2.9728
   75MOL   C11410622   1.588   1.676   0.682  0.3639 -0.3325 -0.6793
   75MOL   C11510623   1.583   1.539   0.737 -0.4058 -0.5801  0.3448
   75MOL   O11610624   1.637   1.751   0.781  0.6191 -0.1356  0.6369
   75MOL   H11710625   1.485   1.707   0.662 -0.3822 -1.5224  1.1329
   75MOL   H11810626   1.518   1.535   0.824  1.6458  1.6648  2.0462
   75MOL   H11910627   1.687   1.516   0.760 -0.7245 -3.6864 -1.0334
   75MOL   H12010628   1.559   1.468   0.658 -1.1508  1.9641 -1.8252
   75MOL   C12110629   1.608   1.887   0.776  0.1046 -0.3090 -0.9293
   75MOL   C12210630   1.508   1.911   0.891 -0.0833 -0.0303  0.6636
   75MOL   O12310631   1.720   1.963   0.818  0.1209 -0.3194 -0.4372
   75MOL   H12410632   1.570   1.917   0.679 -0.0213 -1.4172 -1.2311
   75MOL   H12510633   1.525   2.006   0.941  2.3283 -1.3078  2.3916
   75MOL   H12610634   1.520   1.829   0.962  0.4514  0.0977  0.7242
   75MOL   H12710635   1.404   1.911   0.859  0.5165 -0.6961 -1.3286
   75MOL   C12810636   1.833   1.959   0.734  0.8021 -0.0868 -0.4502
   75MOL   C12910637   1.875   2.104   0.697  0.7882  0.2167 -0.1233
   75MOL   O13010638   1.946   1.903   0.801 -0.0918 -0.4298  0.2934
   75MOL   H13110639   1.812   1.907   0.640 -1.6974  0.4389 -0.2182
   75MOL   H13210640   1.904   2.158   0.788 -0.9251  0.4626  0.2881
   75MOL   H13310641   1.797   2.154   0.640  0.6337 -0.9701 -0.9667
   75MOL   H13410642   1.953   2.102   0.622 -0.2595 -1.6506 -1.1866
   75MOL   C13510643   1.939   1.762   0.813  0.2032 -0.0855  0.0025
   75MOL   C13610644   2.080   1.706   0.834 -0.0464  0.2119 -0.6520
   75MOL   O13710645   1.857   1.711   0.917  0.8974 -0.1344 -0.0768
   75MOL   H13810646   1.898   1.725   0.719  0.5993  1.4133 -0.7793
   75MOL   H13910647   2.076   1.599   0.850 -1.0783  0.5190  1.2547
   75MOL   H14010648   2.118   1.761   0.920  1.1588  1.1341 -1.7550
   75MOL   H14110649   2.147   1.747   0.758  1.8025  0.0337  0.8614
   75MOL   H14210650   1.768   1.726   0.887  0.7537  0.2730  0.5505
   76MOL     C110651   3.193   5.651   7.575  0.1561  0.7426  0.1782
   76MOL     C210652   3.157   5.738   7.461  0.6062 -0.1669  0.1235
   76MOL     O310653   3.251   5.747   7.669  0.6694 -0.2560 -0.6722
   76MOL     H410654   3.266   5.582   7.533  0.6332  1.1900  0.2563
   76MOL     H510655   3.107   5.674   7.388 -0.7534  0.2795  0.6424
   76MOL     H610656   3.234   5.792   7.407 -1.3378 -1.3076 -4.0214
   76MOL     H710657   3.085   5.817   7.484  1.1557  0.5018 -0.4617
   76MOL     H810658   3.116   5.587   7.617 -0.6470  0.7008 -1.3529
   76MOL     C910659   3.299   5.691   7.788 -0.6197 -0.9030 -0.7070
   76MOL    C1010660   3.435   5.621   7.771  0.3220 -0.3720 -0.4829
   76MOL    O1110661   3.322   5.787   7.884 -0.4293 -0.7286  0.5005
   76MOL    H1210662   3.225   5.623   7.832 -2.0874 -0.4183 -2.4067
   76MOL    H1310663   3.497   5.613   7.860 -1.1389 -1.4330  0.4681
   76MOL    H1410664   3.499   5.676   7.702  1.7559 -1.1450  0.2196
   76MOL    H1510665   3.417   5.522   7.730  1.9016  0.4209 -3.2214
   76MOL    C1610666   3.222   5.869   0.011  0.5871  0.5609 -0.0344
   76MOL    C1710667   3.200   5.838   0.164 -0.0274 -0.5173  0.1176
   76MOL    O1810668   3.251   6.007   0.004  0.3489 -0.4370 -0.7701
   76MOL    H1910669   3.135   5.840   7.867  0.9127  0.4217 -0.4520
   76MOL    H2010670   3.290   5.862   0.221 -0.2077 -0.2143  0.2792
   76MOL    H2110671   3.173   5.733   0.167 -0.8520 -0.4058 -2.0809
   76MOL    H2210672   3.122   5.904   0.203 -1.1191 -1.4362 -0.4636
   76MOL    C2310673   3.282   6.049   7.790  0.0514  0.5184  0.0122
   76MOL    C2410674   3.150   6.108   7.740  0.5436  0.3010 -0.1555
   76MOL    O2510675   3.373   6.152   7.794 -0.0738  0.0001  0.5318
   76MOL    H2610676   3.317   5.979   7.714  0.6933  0.6528  0.1826
   76MOL    H2710677   3.083   6.022   7.730 -0.8708  1.1930  1.5008
   76MOL    H2810678   3.155   6.160   7.644  1.2912  2.8852  1.2500
   76MOL    H2910679   3.109   6.181   7.810 -0.1498  1.2949 -1.5584
   76MOL    C3010680   3.493   6.112   7.852 -0.0243  0.1590  0.1717
   76MOL    C3110681   3.582   6.062   7.735 -0.1195  0.2058 -0.1699
   76MOL    O3210682   3.555   6.221   0.002  0.2675  0.6069 -0.0202
   76MOL    H3310683   3.477   6.035   0.013  0.0632 -1.8214 -1.7835
   76MOL    H3410684   3.583   6.134   7.653  1.3133  1.6952  1.1394
   76MOL    H3510685   3.558   5.961   7.700 -0.9140  0.1953  0.4115
   76MOL    H3610686   3.687   6.063   7.764  0.4947 -1.0868 -2.2015
   76MOL    C3710687   3.476   6.285   0.094 -0.3497  0.5262  0.6430
   76MOL    C3810688   3.537   6.265   0.231 -0.5609 -0.4214  0.0913
   76MOL    O3910689   3.486   6.424   0.080 -0.0375 -0.1564 -0.6143
   76MOL    H4010690   3.373   6.249   0.088 -0.1325  0.1636 -1.1743
   76MOL    H4110691   3.478   6.320   0.304  0.3427  0.0109  0.4987
   76MOL    H4210692   3.641   6.299   0.232 -0.4677 -0.7031  0.1394
   76MOL    H4310693   3.533   6.159   0.258 -1.3253 -0.5814 -0.6259
   76MOL    C4410694   3.419   6.466   7.880 -0.2158 -0.2834  0.5805
   76MOL    C4510695   3.287   6.519   0.014 -0.2347  0.1134  0.3877
   76MOL    O4610696   3.490   6.569   7.815  0.4296  0.4557  0.2088
   76MOL    H4710697   3.402   6.390   7.804 -1.4494  0.4000  0.1472
   76MOL    H4810698   3.256   6.610   7.877  0.3552 -0.4762 -1.0629
   76MOL    H4910699   3.281   6.532   0.122 -0.8092 -0.7124  0.4562
   76MOL    H5010700   3.215   6.442   7.901 -2.4881  2.0947  0.6306
   76MOL    C5110701   3.613   6.522   7.766 -0.8204 -0.4042 -0.2788
   76MOL    C5210702   3.616   6.546   7.610 -0.4040  0.7080 -0.1440
   76MOL    O5310703   3.714   6.599   7.828  0.0894 -0.0225  0.0775
   76MOL    H5410704   3.612   6.415   7.785 -0.8945  0.1001  2.7227
   76MOL    H5510705   3.615   6.655   7.601  0.4822  0.8517  1.3003
   76MOL    H5610706   3.528   6.497   7.568 -0.6328  0.5162  0.5553
   76MOL    H5710707   3.713   6.512   7.573 -0.7704  0.4498 -0.8726
   76MOL    C5810708   3.796   6.534   0.003 -0.3730  0.1705 -0.6468
   76MOL    C5910709   3.923   6.500   7.844 -0.0403  0.4557 -0.0584
   76MOL    O6010710   3.824   6.616   0.113  0.2386  0.1181  0.3305
   76MOL    H6110711   3.754   6.444   0.048 -0.3076  0.9414  0.9964
   76MOL    H6210712   3.975   6.421   7.896  0.0774 -0.4955 -1.5772
   76MOL    H6310713   3.980   6.593   7.842 -2.0502  1.7092 -0.5495
   76MOL    H6410714   3.911   6.453   7.746 -0.6829 -1.7060  1.0354
   76MOL    C6510715   3.729   6.635   0.205 -0.1066  0.1471 -0.0178
   76MOL    C6610716   3.795   6.586   0.333 -0.1701  0.4659  0.0738
   76MOL    O6710717   3.672   6.763   0.230  0.0002 -0.3294 -0.6017
   76MOL    H6810718   3.647   6.567   0.183 -2.3609  1.5581  3.5824
   76MOL    H6910719   3.712   6.575   0.402  0.0155 -0.7346  0.1342
   76MOL    H7010720   3.857   6.664   0.378  0.1499  0.1292  0.2222
   76MOL    H7110721   3.851   6.492   0.327  1.0009  1.0817  1.1376
   76MOL    C7210722   3.596   6.819   0.128  0.3996  0.3244 -0.4180
   76MOL    C7310723   3.456   6.849   0.192 -0.3899  0.3102  0.3507
   76MOL    O7410724   3.648   6.938   0.077  0.3899  0.4994  0.4118
   76MOL    H7510725   3.579   6.747   0.048 -0.1715 -1.8748  1.6271
   76MOL    H7610726   3.476   6.923   0.270  2.6408 -1.2196  1.1268
   76MOL    H7710727   3.410   6.755   0.222  1.6424 -0.4393  1.2112
   76MOL    H7810728   3.390   6.886   0.114 -0.9013 -0.8219  0.2459
   76MOL    C7910729   3.748   6.922   7.902 -0.5818  0.7155  0.5280
   76MOL    C8010730   3.692   6.941   7.759  0.5112  0.1227 -0.2760
   76MOL    O8110731   3.843   7.022   0.008  0.7883 -0.0117 -0.2365
   76MOL    H8210732   3.798   6.826   7.913 -0.3508  0.9865  1.9531
   76MOL    H8310733   3.762   6.967   7.679  0.9132  0.9401  0.3336
   76MOL    H8410734   3.624   7.027   7.759  2.1458  1.4511  1.5863
   76MOL    H8510735   3.629   6.857   7.729 -2.3502  2.6943 -1.8767
   76MOL    C8610736   3.914   7.000   0.129 -0.0874  0.0448 -0.1894
   76MOL    C8710737   4.057   6.956   0.088 -0.3610 -0.6972  0.3644
   76MOL    O8810738   3.928   7.119   0.203  0.2739 -0.2630 -0.5210
   76MOL    H8910739   3.874   6.919   0.190 -1.9883 -0.3487 -1.9415
   76MOL    H9010740   4.108   7.031   0.029 -0.6613  0.9489  2.1599
   76MOL    H9110741   4.043   6.858   0.042 -1.4052 -0.5976  0.4595
   76MOL    H9210742   4.103   6.927   0.182 -1.2777 -1.8383  0.4781
   76MOL    C9310743   3.811   7.152   0.266  0.3807 -0.2001  0.3174
   76MOL    C9410744   3.806   7.097   0.405 -0.4503  0.3417 -0.5901
   76MOL    O9510745   3.812   7.296   0.277 -0.5630  0.3310  0.2387
   76MOL    H9610746   3.725   7.128   0.204  0.3503  1.0239 -0.1258
   76MOL    H9710747   3.885   7.123   0.476 -1.7021  1.5775  0.3740
   76MOL    H9810748   3.794   6.989   0.399  1.0383  0.0340  1.2812
   76MOL    H9910749   3.717   7.141   0.449  0.5034  1.1704  0.5417
   76MOL   C10010750   3.774   7.359   0.160 -0.8830  0.2089  0.1441
   76MOL   C10110751   3.637   7.416   0.182 -0.2167  0.1691  0.4314
   76MOL   O10210752   3.865   7.460   0.132 -0.5835  0.2045  0.0412
   76MOL   H10310753   3.783   7.285   0.080  1.0355 -0.5912  1.0720
   76MOL   H10410754   3.643   7.492   0.261 -1.0783  0.5969  0.0895
   76MOL   H10510755   3.561   7.344   0.213  1.0670 -0.6530  1.7431
   76MOL   H10610756   3.595   7.465   0.095 -1.2923 -1.9888 -0.2926
   76MOL   C10710757   3.991   7.421   0.100 -0.4409  0.2543 -0.4094
   76MOL   C10810758   4.014   7.457   7.862  0.1267 -0.4104 -0.5948
   76MOL   O10910759   4.087   7.496   0.162 -0.0092 -0.2723 -0.0869
   76MOL   H11010760   4.003   7.314   0.117 -1.5377  0.2523  0.3193
   76MOL   H11110761   3.942   7.414   7.792 -1.3885  2.2929 -0.7547
   76MOL   H11210762   4.114   7.423   7.837 -0.0249 -0.5155 -1.0605
   76MOL   H11310763   4.012   7.565   7.856 -0.4296 -0.2603  1.5693
   76MOL   C11410764   4.106   7.460   0.295 -0.2368  0.4650 -0.0211
   76MOL   C11510765   4.254   7.437   0.302 -0.0332  0.3266 -0.2516
   76MOL   O11610766   4.084   7.568   0.380  0.0513 -0.5578  0.6512
   76MOL   H11710767   4.052   7.373   0.332  0.6261  0.0990  0.3964
   76MOL   H11810768   4.263   7.356   0.230  1.0445 -2.1637  2.5276
   76MOL   H11910769   4.287   7.394   0.397  1.2990 -1.8541 -1.6456
   76MOL   H12010770   4.312   7.526   0.278 -0.3052 -0.0233 -2.2701
   76MOL   C12110771   3.954   7.576   0.434  0.4256  0.5731 -0.5387
   76MOL   C12210772   3.937   7.504   0.566  0.6868  0.4182  1.0146
   76MOL   O12310773   3.923   7.711   0.453 -0.1916  0.2012 -0.0384
   76MOL   H12410774   3.878   7.526   0.375  0.2333 -0.0973  0.2552
   76MOL   H12510775   3.988   7.552   0.650 -1.1069  2.0156  1.2136
   76MOL   H12610776   3.961   7.399   0.550 -1.3110  0.0448  0.3668
   76MOL   H12710777   3.833   7.512   0.598 -0.1465  1.6668 -1.8866
   76MOL   C12810778   3.911   7.777   0.334 -0.0488  0.3706  0.1284
   76MOL   C12910779   3.766   7.828   0.343  0.0777  0.5145  0.6638
   76MOL   O13010780   3.988   7.894   0.326 -0.3367 -0.0984 -0.2131
   76MOL   H13110781   3.917   7.720   0.242  3.8126  0.6552  0.1284
   76MOL   H13210782   3.696   7.755   0.385  1.2224 -0.4105  0.9975
   76MOL   H13310783   3.723   7.870   0.253  0.4412 -0.8310 -0.1528
   76MOL   H13410784   3.773   7.911   0.413  1.1129  3.0054 -2.3177
   76MOL   C13510785   4.121   7.869   0.313 -0.0164  0.1796  0.7845
   76MOL   C13610786   4.177   0.076   0.253 -0.1693  0.0881  0.2779
   76MOL   O13710787   4.182   7.844   0.436  0.4952  0.1898 -0.0719
   76MOL   H13810788   4.144   7.787   0.244 -0.6745  1.6241 -1.2155
   76MOL   H13910789   4.285   0.066   0.241 -0.0674  0.1239  1.1489
   76MOL   H14010790   4.167   0.154   0.328  2.0350 -2.1329  3.0253
   76MOL   H14110791   4.124   0.112   0.165 -1.3621  2.6614  1.9956
   76MOL   H14210792   4.139   7.764   0.464 -1.9753  1.3916 -0.3161
   77MOL     C110793   3.574   2.974   2.927  0.2520  0.5539  0.2600
   77MOL     C210794   3.489   2.882   3.010 -0.0395  0.6931 -0.8185
   77MOL     O310795   3.674   3.027   3.010  0.3853  0.0530  0.1285
   77MOL     H410796   3.505   3.049   2.888 -0.5759  0.0651  0.7492
   77MOL     H510797   3.427   2.813   2.954  0.4630  0.2685 -0.8520
   77MOL     H610798   3.425   2.934   3.082  0.7511  0.3017  0.1797
   77MOL     H710799   3.551   2.809   3.062 -0.9179  0.3074 -0.3024
   77MOL     H810800   3.608   2.924   2.836  1.3864 -1.1988  1.6062
   77MOL     C910801   3.772   3.104   2.953  1.0638 -0.2658  0.3028
   77MOL    C1010802   3.749   3.243   3.017 -0.1960 -0.2915  0.3302
   77MOL    O1110803   3.903   3.071   2.984 -0.7566  0.6402 -0.2672
   77MOL    H1210804   3.758   3.113   2.845 -0.9776 -1.0751  0.4753
   77MOL    H1310805   3.650   3.277   2.989  0.3541  0.2484 -0.9693
   77MOL    H1410806   3.809   3.327   2.982 -0.6927 -0.6779 -1.4472
   77MOL    H1510807   3.755   3.234   3.126 -2.8175  0.1172  0.5382
   77MOL    C1610808   3.940   2.949   2.928 -0.1837 -0.6713 -0.0104
   77MOL    C1710809   4.038   2.987   2.812  0.5788  0.6451 -0.1857
   77MOL    O1810810   4.016   2.879   3.025  0.0980 -0.1296 -0.0141
   77MOL    H1910811   3.862   2.877   2.903  1.5937 -2.2309 -1.2074
   77MOL    H2010812   4.096   3.077   2.830  0.6167  0.5661  0.0895
   77MOL    H2110813   3.972   3.021   2.733 -0.2437  2.0686  1.0925
   77MOL    H2210814   4.091   2.898   2.778 -0.6693 -0.9121  1.7793
   77MOL    C2310815   3.941   2.831   3.135  0.2435  0.0114  0.0325
   77MOL    C2410816   3.901   2.684   3.104  0.1565  0.4231 -0.2301
   77MOL    O2510817   3.992   2.834   3.258 -0.0758 -0.2663 -0.3828
   77MOL    H2610818   3.849   2.889   3.145 -0.6246 -1.0218 -1.6456
   77MOL    H2710819   3.850   2.636   3.187  1.4620 -0.0304  0.3143
   77MOL    H2810820   3.992   2.627   3.092  0.3518  0.7524 -0.3158
   77MOL    H2910821   3.838   2.680   3.015 -1.3131  0.7773  0.7676
   77MOL    C3010822   4.027   2.969   3.298  0.0914  0.4682  0.4532
   77MOL    C3110823   3.953   2.989   3.430 -0.9345 -0.6981 -0.0051
   77MOL    O3210824   4.160   2.992   3.323  0.0217 -0.3508 -0.7536
   77MOL    H3310825   3.997   3.044   3.225  0.6998  0.3983  0.1233
   77MOL    H3410826   3.970   3.086   3.477 -2.4930 -0.7697  0.7245
   77MOL    H3510827   3.987   2.912   3.501 -0.4975 -1.5554 -1.1311
   77MOL    H3610828   3.846   2.975   3.415 -1.1657  0.3397  0.6449
   77MOL    C3710829   4.232   3.031   3.205 -0.4361 -0.1421 -0.1665
   77MOL    C3810830   4.274   3.174   3.233 -0.2685  0.1424 -0.0508
   77MOL    O3910831   4.349   2.956   3.195 -0.4482  0.5931 -0.2986
   77MOL    H4010832   4.177   3.031   3.111  0.6240  0.1100 -0.7969
   77MOL    H4110833   4.186   3.238   3.240 -0.5547 -0.1310 -1.0056
   77MOL    H4210834   4.345   3.211   3.159  2.5569 -2.2569  1.3515
   77MOL    H4310835   4.326   3.185   3.328 -0.2372 -0.1671 -0.0312
   77MOL    C4410836   4.331   2.847   3.126  0.4490  0.4689  0.0987
   77MOL    C4510837   4.404   2.872   2.991  0.0975  0.1562 -0.1749
   77MOL    O4610838   4.404   2.740   3.175 -0.0127  0.6773 -0.5528
   77MOL    H4710839   4.229   2.810   3.115  1.0957 -1.8818  1.7457
   77MOL    H4810840   4.358   2.959   2.945  1.4101  1.4423  0.9121
   77MOL    H4910841   4.398   2.787   2.922 -1.5159 -0.6319  0.9037
   77MOL    H5010842   4.509   2.897   3.010  0.0952  0.6765 -0.8343
   77MOL    C5110843   4.352   2.682   3.287  0.3267 -0.1397 -0.4589
   77MOL    C5210844   4.311   2.541   3.233  0.3947 -0.1263 -0.2912
   77MOL    O5310845   4.451   2.669   3.384 -0.0501  0.0648  0.2829
   77MOL    H5410846   4.265   2.730   3.332 -0.7553 -0.5350 -2.0709
   77MOL    H5510847   4.271   2.480   3.314  1.5281 -1.9148 -1.0430
   77MOL    H5610848   4.396   2.485   3.194  0.1990 -1.2484  0.8996
   77MOL    H5710849   4.237   2.549   3.153 -0.8750  0.0282  0.8812
   77MOL    C5810850   4.494   2.787   3.440  0.1624 -0.3363  0.8835
   77MOL    C5910851   4.452   2.785   3.586  0.3214  0.3932  0.1365
   77MOL    O6010852   4.633   2.794   3.440 -0.1456 -0.4508  0.2608
   77MOL    H6110853   4.445   2.873   3.393 -0.3697 -0.2089  1.6561
   77MOL    H6210854   4.344   2.774   3.582  0.3418  0.6747 -1.2999
   77MOL    H6310855   4.484   2.868   3.648  0.4568  1.6090 -1.5310
   77MOL    H6410856   4.498   2.699   3.635  0.8561  0.5951 -0.0120
   77MOL    C6510857   4.690   2.853   3.326 -0.0053 -0.1558 -0.7466
   77MOL    C6610858   4.771   2.976   3.372 -0.6585  0.2921  0.7709
   77MOL    O6710859   4.779   2.768   3.253  0.0250 -0.3732 -0.8880
   77MOL    H6810860   4.613   2.885   3.256  1.1802  0.8842 -1.6029
   77MOL    H6910861   4.710   3.040   3.436 -0.4763  2.3605 -1.0478
   77MOL    H7010862   4.800   3.033   3.284 -1.3427 -0.8977 -0.2363
   77MOL    H7110863   4.858   2.943   3.428 -1.4790 -1.0713  1.2621
   77MOL    C7210864   4.725   2.656   3.191 -0.4945  0.1564 -0.1177
   77MOL    C7310865   4.743   2.682   3.042  0.2096 -0.6175  1.0213
   77MOL    O7410866   4.798   2.541   3.216  0.3906  0.3811  0.3115
   77MOL    H7510867   4.619   2.633   3.201 -0.5716 -0.7109 -2.4249
   77MOL    H7610868   4.708   2.588   2.998  0.6086 -1.3561  2.2425
   77MOL    H7710869   4.840   2.717   3.005 -1.0430  2.3477  0.4254
   77MOL    H7810870   4.664   2.753   3.020  1.7141  1.8577  3.3765
   77MOL    C7910871   4.812   2.515   3.348  0.1890  0.3496 -0.0520
   77MOL    C8010872   4.717   2.401   3.385  0.9239  0.1452  0.3702
   77MOL    O8110873   4.937   2.489   3.384 -0.5393  0.7186  0.1198
   77MOL    H8210874   4.805   2.603   3.413  0.4272  0.8037 -0.6362
   77MOL    H8310875   4.615   2.433   3.362  0.3210 -1.8197  0.2026
   77MOL    H8410876   4.706   2.365   3.487 -1.4845 -0.0671  0.0859
   77MOL    H8510877   4.745   2.318   3.321  0.0955 -0.3213  0.6061
   77MOL    C8610878   5.032   2.592   3.361 -0.3575 -0.1903  0.9464
   77MOL    C8710879   5.078   2.641   3.494  0.5297  0.3946  0.0454
   77MOL    O8810880   5.142   2.542   3.304  0.1596  0.6690  0.5965
   77MOL    H8910881   4.993   2.677   3.307  0.3679 -1.4546 -1.6399
   77MOL    H9010882   5.121   2.566   3.561  0.0855 -1.5311 -1.7714
   77MOL    H9110883   4.994   2.683   3.549  0.3640  0.0399  0.0671
   77MOL    H9210884   5.148   2.720   3.469 -0.6994  1.6322  0.4768
   77MOL    C9310885   5.127   2.531   3.165 -0.7345  0.2363  0.2913
   77MOL    C9410886   5.215   2.641   3.105 -0.0667  0.0376 -0.1265
   77MOL    O9510887   5.181   2.407   3.120  0.5127 -0.2984  0.3151
   77MOL    H9610888   5.024   2.532   3.132 -0.7414 -1.3114  0.2532
   77MOL    H9710889   5.263   2.614   3.010 -0.0275  1.9521 -0.6775
   77MOL    H9810890   5.281   2.683   3.180 -1.2000  2.5014 -0.4712
   77MOL    H9910891   5.152   2.725   3.076  0.2727  0.1291 -0.6089
   77MOL   C10010892   5.097   2.298   3.146  0.1069  0.1807  0.0986
   77MOL   C10110893   5.022   2.268   3.018 -0.7573  0.7079  0.3175
   77MOL   O10210894   5.170   2.184   3.160  0.5588 -0.1397 -0.0763
   77MOL   H10310895   5.020   2.312   3.222 -1.3609 -0.7189 -1.1941
   77MOL   H10410896   4.965   2.176   3.030 -1.2685  0.7482 -1.6322
   77MOL   H10510897   5.098   2.257   2.941  0.5936 -1.1219  1.8571
   77MOL   H10610898   4.954   2.348   2.989 -2.0616 -0.6143 -0.3393
   77MOL   C10710899   5.263   2.189   3.267 -0.2247  0.3330 -0.0177
   77MOL   C10810900   5.211   2.097   3.380 -0.4875 -0.2341 -0.6605
   77MOL   O10910901   5.381   2.138   3.221  1.2731 -1.2012  0.0078
   77MOL   H11010902   5.274   2.291   3.305 -1.3467  0.4579 -0.0039
   77MOL   H11110903   5.191   2.003   3.327  1.0246 -1.3462  0.6743
   77MOL   H11210904   5.122   2.144   3.422  2.0605  1.7938  2.7215
   77MOL   H11310905   5.285   2.093   3.460  0.5614 -0.6394 -1.6422
   77MOL   C11410906   5.447   2.227   3.138 -0.2390 -0.5018  0.0057
   77MOL   C11510907   5.542   2.299   3.239 -0.1909 -1.1921  0.1428
   77MOL   O11610908   5.539   2.159   3.054  0.3408 -0.4074  0.1095
   77MOL   H11710909   5.378   2.280   3.072 -1.0412 -0.6466  0.7146
   77MOL   H11810910   5.487   2.364   3.306  1.0123  1.1039 -1.0451
   77MOL   H11910911   5.609   2.365   3.183 -1.3889  1.4969  1.8134
   77MOL   H12010912   5.600   2.224   3.294 -0.3812 -1.5684 -0.1646
   77MOL   C12110913   5.475   2.055   2.978  0.4205 -0.5172 -0.3254
   77MOL   C12210914   5.461   2.110   2.837  0.0712 -0.7639  0.2915
   77MOL   O12310915   5.564   1.947   2.962 -0.0425  0.2513  0.4599
   77MOL   H12410916   5.379   2.018   3.013 -1.2695  2.5846 -1.4743
   77MOL   H12510917   5.547   2.139   2.777  0.2460 -3.0879 -0.5953
   77MOL   H12610918   5.387   2.191   2.842  0.4377 -0.2522 -1.9209
   77MOL   H12710919   5.408   2.032   2.783  0.4303 -1.4463  0.9191
   77MOL   C12810920   5.589   1.884   3.083 -0.1908  0.1292  0.1687
   77MOL   C12910921   5.531   1.745   3.073  0.6819  0.1061  1.1320
   77MOL   O13010922   5.725   1.864   3.091 -0.1941  0.0271  0.3339
   77MOL   H13110923   5.552   1.939   3.170 -1.5931 -1.6519  0.7222
   77MOL   H13210924   5.423   1.753   3.057  1.0456  2.9382 -0.3228
   77MOL   H13310925   5.541   1.697   3.170 -0.6537 -1.4227  0.5172
   77MOL   H13410926   5.578   1.700   2.986 -1.8896 -0.5060  0.0176
   77MOL   C13510927   5.807   1.974   3.075 -0.3973  0.2689 -0.2224
   77MOL   C13610928   5.957   1.927   3.114 -0.4753 -0.1649 -0.4865
   77MOL   O13710929   5.809   2.014   2.937  0.6612 -0.1068  0.0852
   77MOL   H13810930   5.776   2.063   3.129  0.5302 -0.0512  0.8646
   77MOL   H13910931   5.949   1.901   3.220  0.3750  2.7324  0.3237
   77MOL   H14010932   6.029   2.009   3.108  0.4435 -0.8197  1.1385
   77MOL   H14110933   5.994   1.845   3.053  0.9420  2.5670 -3.4508
   77MOL   H14210934   5.720   2.007   2.904  0.6337  2.6880 -0.5892
   78MOL     C110935   5.215   7.111   5.293  0.8152 -0.3349 -0.2220
   78MOL     C210936   5.113   7.225   5.318  0.3596 -0.6609 -0.9629
   78MOL     O310937   5.205   7.080   5.154  0.3467 -0.2655 -0.7202
   78MOL     H410938   5.194   7.034   5.367  1.1661 -1.7278 -1.5385
   78MOL     H510939   5.132   7.304   5.245 -0.8107 -0.1772 -0.7519
   78MOL     H610940   5.102   7.258   5.421 -0.7274 -3.1093 -0.2456
   78MOL     H710941   5.011   7.197   5.288  0.1530 -1.8692  0.7473
   78MOL     H810942   5.319   7.139   5.314  0.4699 -0.4430  1.7050
   78MOL     C910943   5.284   6.970   5.112  0.5335 -0.3067  0.2055
   78MOL    C1010944   5.256   6.929   4.966 -0.0485 -0.4543 -0.2653
   78MOL    O1110945   5.418   6.995   5.124 -0.2981 -0.1944  0.2754
   78MOL    H1210946   5.257   6.889   5.179  0.6590 -0.8330 -0.3791
   78MOL    H1310947   5.331   6.854   4.938 -0.5132 -1.6190  1.5315
   78MOL    H1410948   5.267   7.016   4.902 -0.5919 -0.4133 -0.3047
   78MOL    H1510949   5.152   6.899   4.966  0.3918 -2.0296  0.5063
   78MOL    C1610950   5.492   6.890   5.175 -0.3223  0.0835  0.2773
   78MOL    C1710951   5.638   6.941   5.165 -0.6486 -0.2039 -0.5028
   78MOL    O1810952   5.463   6.870   5.307  0.5373 -0.2754 -0.4160
   78MOL    H1910953   5.476   6.804   5.111  0.5844 -0.0867  0.2637
   78MOL    H2010954   5.707   6.861   5.195 -4.7210 -3.6082  0.3157
   78MOL    H2110955   5.650   7.017   5.242  1.2246 -1.2994  0.3375
   78MOL    H2210956   5.666   6.997   5.076  1.0048  0.7792  0.6110
   78MOL    C2310957   5.453   6.741   5.350 -0.6477 -0.3578  0.3785
   78MOL    C2410958   5.475   6.737   5.504 -0.6802  0.0173 -0.7486
   78MOL    O2510959   5.331   6.681   5.313  0.3952 -0.0782 -0.4584
   78MOL    H2610960   5.537   6.688   5.305  0.3722  0.9929  0.6485
   78MOL    H2710961   5.395   6.789   5.558 -0.2495 -1.2454  1.1527
   78MOL    H2810962   5.567   6.793   5.522  0.7917 -2.2486 -1.0658
   78MOL    H2910963   5.498   6.636   5.536 -2.7255  0.0382  0.9667
   78MOL    C3010964   5.336   6.556   5.260  0.5772  0.1306 -0.3699
   78MOL    C3110965   5.188   6.526   5.231 -0.1350  0.3565 -0.3642
   78MOL    O3210966   5.398   6.564   5.135  0.1815 -0.5073  0.1474
   78MOL    H3310967   5.384   6.477   5.318  1.8800  0.5214 -0.8807
   78MOL    H3410968   5.131   6.617   5.212 -0.2103  0.5114  0.6065
   78MOL    H3510969   5.142   6.479   5.317  0.2811  0.2271 -0.2130
   78MOL    H3610970   5.181   6.465   5.140  1.1807 -1.5438  0.7789
   78MOL    C3710971   5.486   6.462   5.096  0.0065 -0.1091 -0.1009
   78MOL    C3810972   5.511   6.476   4.949  0.0773  0.5814 -0.0601
   78MOL    O3910973   5.610   6.483   5.157  0.4834 -0.2018  0.4752
   78MOL    H4010974   5.440   6.365   5.118  0.3156 -0.3753 -0.6197
   78MOL    H4110975   5.580   6.558   4.927  1.1503 -0.6037 -1.1727
   78MOL    H4210976   5.425   6.473   4.883 -1.3521 -1.0714  1.8181
   78MOL    H4310977   5.569   6.390   4.915 -0.2891 -0.0462  0.8816
   78MOL    C4410978   5.666   6.367   5.204 -0.1558 -0.6885 -0.6149
   78MOL    C4510979   5.813   6.397   5.216  0.2635 -0.3768 -0.6183
   78MOL    O4610980   5.620   6.334   5.332 -0.3684 -0.6543 -0.5096
   78MOL    H4710981   5.651   6.280   5.140  1.5390 -1.0268 -0.5894
   78MOL    H4810982   5.855   6.445   5.128  0.8522 -0.4847 -0.3944
   78MOL    H4910983   5.871   6.305   5.209  1.2214  0.2927 -1.5602
   78MOL    H5010984   5.834   6.450   5.308 -1.2143 -0.8382  0.0114
   78MOL    C5110985   5.593   6.200   5.348 -0.0487  0.5920  0.9895
   78MOL    C5210986   5.560   6.167   5.500 -0.6627 -0.8581 -0.7421
   78MOL    O5310987   5.470   6.180   5.288 -0.3164  0.0863 -0.2063
   78MOL    H5410988   5.670   6.134   5.306 -1.1642  1.4643 -2.5413
   78MOL    H5510989   5.649   6.174   5.563 -0.4043 -1.8535 -0.9917
   78MOL    H5610990   5.526   6.068   5.528 -0.7837 -0.4198  0.7184
   78MOL    H5710991   5.482   6.236   5.530  0.8311  0.9698 -0.9407
   78MOL    C5810992   5.467   6.052   5.223  0.3212 -0.7835 -0.1061
   78MOL    C5910993   5.321   6.033   5.174 -0.1009 -0.5572  0.5895
   78MOL    O6010994   5.542   6.049   5.105 -0.1438 -0.1626 -0.2685
   78MOL    H6110995   5.483   5.972   5.295 -2.5535 -1.3658 -0.0627
   78MOL    H6210996   5.287   6.103   5.098 -1.0232 -1.0397  0.5510
   78MOL    H6310997   5.258   6.036   5.263 -0.5917  0.7039  0.2171
   78MOL    H6410998   5.312   5.930   5.141 -1.4432  0.9814 -4.1919
   78MOL    C6510999   5.649   5.953   5.104  0.0371 -0.5309  0.2878
   78MOL    C6611000   5.693   5.951   4.954 -0.1126  0.5629 -0.1839
   78MOL    O6711001   5.759   5.991   5.173  0.4698  0.8489  0.0907
   78MOL    H6811002   5.606   5.858   5.135 -4.0384  1.0041 -0.3553
   78MOL    H6911003   5.633   5.881   4.897 -1.0712 -2.1745  3.9668
   78MOL    H7011004   5.798   5.923   4.944 -0.5786 -2.0647  1.7209
   78MOL    H7111005   5.677   6.050   4.910 -0.0902  0.4775 -0.3862
   78MOL    C7211006   5.807   5.891   5.260 -0.0816 -0.1475 -0.7031
   78MOL    C7311007   5.939   5.941   5.313 -0.0271 -0.4744  0.0861
   78MOL    O7411008   5.726   5.886   5.375 -0.4080 -0.3068 -0.2474
   78MOL    H7511009   5.815   5.797   5.204 -0.1894 -0.8106  0.3710
   78MOL    H7611010   5.988   5.864   5.373  0.2948 -0.6162 -0.3620
   78MOL    H7711011   5.926   6.036   5.366 -0.0790 -0.6201  0.3314
   78MOL    H7811012   5.993   5.950   5.219 -0.4923  0.0997 -0.1341
   78MOL    C7911013   5.721   5.760   5.435  0.5032 -0.1380 -0.5636
   78MOL    C8011014   5.693   5.796   5.577 -0.5202 -0.1206 -0.0703
   78MOL    O8111015   5.600   5.709   5.381  0.0668 -0.4834  0.3745
   78MOL    H8211016   5.811   5.699   5.428  0.3722 -0.4268  0.2138
   78MOL    H8311017   5.595   5.845   5.583  1.0040  2.9771  0.5765
   78MOL    H8411018   5.771   5.870   5.597  0.7421 -0.9649 -1.7511
   78MOL    H8511019   5.688   5.714   5.648  0.6531  0.5780  0.8199
   78MOL    C8611020   5.610   5.585   5.324 -0.0746 -0.4677 -0.5748
   78MOL    C8711021   5.472   5.535   5.300 -0.2272 -0.3432 -0.4334
   78MOL    O8811022   5.676   5.582   5.206  0.7633 -0.5550  0.3685
   78MOL    H8911023   5.658   5.521   5.399 -1.9520 -0.3640  0.7432
   78MOL    H9011024   5.479   5.437   5.253 -2.3153 -0.3137 -0.8595
   78MOL    H9111025   5.424   5.608   5.236 -1.6351 -0.6920  0.2105
   78MOL    H9211026   5.414   5.523   5.391  0.9741 -0.4546  0.3268
   78MOL    C9311027   5.756   5.473   5.189  0.4421  0.4051 -0.6563
   78MOL    C9411028   5.799   5.479   5.041  0.1192 -0.8610  0.8282
   78MOL    O9511029   5.865   5.508   5.264  1.0191 -0.1363  0.7076
   78MOL    H9611030   5.716   5.375   5.215 -0.9315  0.9476 -0.6927
   78MOL    H9711031   5.822   5.582   5.014 -1.6015 -0.9093 -0.9572
   78MOL    H9811032   5.717   5.448   4.977 -0.7465  4.1134 -0.7074
   78MOL    H9911033   5.879   5.407   5.024 -1.8154 -2.6673 -1.0152
   78MOL   C10011034   5.937   5.407   5.316  0.3616 -0.3671 -0.3637
   78MOL   C10111035   6.060   5.466   5.382  0.3664 -0.7843  0.2031
   78MOL   O10211036   5.869   5.348   5.425 -0.6200  0.0239 -0.4594
   78MOL   H10311037   5.959   5.337   5.236  2.2131  1.9555 -1.9489
   78MOL   H10411038   6.131   5.500   5.307  1.5137 -0.5747  1.3804
   78MOL   H10511039   6.099   5.386   5.445  0.2447 -0.2432  0.9690
   78MOL   H10611040   6.040   5.557   5.437 -0.7123 -0.5996 -0.4695
   78MOL   C10711041   5.862   5.205   5.408  0.0093 -0.1657  0.5348
   78MOL   C10811042   5.830   5.144   5.547  0.4224  0.0096  0.9858
   78MOL   O10911043   5.754   5.174   5.325  0.3668 -0.0500  0.2890
   78MOL   H11011044   5.961   5.165   5.384  0.6731  0.9409  1.3494
   78MOL   H11111045   5.726   5.169   5.567 -0.2569 -1.5613 -0.3962
   78MOL   H11211046   5.898   5.189   5.618  1.8295  2.8290 -1.9882
   78MOL   H11311047   5.845   5.037   5.530 -0.4981  0.2047 -1.3019
   78MOL   C11411048   5.801   5.079   5.231 -0.0177 -0.6479  0.1964
   78MOL   C11511049   5.672   5.030   5.157  0.2638 -0.4962  0.4072
   78MOL   O11611050   5.880   5.134   5.131  0.0596  0.0506  0.6383
   78MOL   H11711051   5.840   4.996   5.290  1.2812  0.4466  0.9086
   78MOL   H11811052   5.695   4.960   5.076  1.3317  1.3894 -0.9527
   78MOL   H11911053   5.613   5.109   5.112  0.3875 -1.3273 -1.2684
   78MOL   H12011054   5.610   4.979   5.231 -0.4127 -1.6394 -0.9132
   78MOL   C12111055   5.994   5.051   5.101  0.4375  0.5187 -0.1792
   78MOL   C12211056   6.039   5.089   4.966 -0.2300 -0.2312  0.1791
   78MOL   O12311057   6.093   5.073   5.199  0.6049  0.3914  0.0937
   78MOL   H12411058   5.956   4.949   5.106  1.2194  0.3019  1.5822
   78MOL   H12511059   5.945   5.090   4.910  1.6839  2.4800 -3.1537
   78MOL   H12611060   6.115   5.016   4.939 -1.5785 -0.3267 -3.5449
   78MOL   H12711061   6.090   5.185   4.970  0.5525 -0.4802 -2.9156
   78MOL   C12811062   6.147   4.953   5.248 -0.3819  1.0387  0.4548
   78MOL   C12911063   6.286   4.981   5.300 -0.5186 -0.3344 -0.2176
   78MOL   O13011064   6.073   4.900   5.361  0.4070 -0.2714 -0.8331
   78MOL   H13111065   6.151   4.876   5.171 -0.0761  0.0868  1.4065
   78MOL   H13211066   6.355   5.024   5.227  0.7336  0.3835  1.3530
   78MOL   H13311067   6.329   4.885   5.329 -1.3165 -1.5420 -2.8880
   78MOL   H13411068   6.278   5.055   5.380  2.2083 -1.9632  1.6600
   78MOL   C13511069   6.040   4.765   5.357 -0.3985 -0.8939  0.3786
   78MOL   C13611070   6.158   4.675   5.401 -0.8738  0.3186  0.2036
   78MOL   O13711071   5.936   4.737   5.449  0.0741  0.4098  0.2432
   78MOL   H13811072   6.008   4.731   5.259  3.2509  0.5691 -1.4080
   78MOL   H13911073   6.190   4.722   5.494  1.7410  2.3363 -1.6351
   78MOL   H14011074   6.239   4.675   5.329  0.2994 -0.0853  1.5101
   78MOL   H14111075   6.117   4.575   5.412  1.2601 -0.6236 -0.2375
   78MOL   H14211076   5.858   4.704   5.407 -0.6119 -1.1677  2.6369
   79MOL     C111077   1.185   4.655   6.992 -0.3283 -0.0923  0.9842
   79MOL     C211078   1.056   4.733   6.982 -0.1754 -0.7030  0.5713
   79MOL     O311079   1.212   4.595   6.870  0.1464  0.0811  0.5954
   79MOL     H411080   1.175   4.578   7.068 -0.1277 -1.1545 -0.0619
   79MOL     H511081   1.030   4.797   7.066  1.7584 -1.3995  1.7356
   79MOL     H611082   0.978   4.658   6.969 -2.1459  1.3320  0.5154
   79MOL     H711083   1.068   4.797   6.895 -3.8505 -0.1416  0.4113
   79MOL     H811084   1.268   4.722   7.017  0.2557 -0.0995 -0.8837
   79MOL     C911085   1.329   4.517   6.869 -0.1807 -0.0606  0.1866
   79MOL    C1011086   1.287   4.368   6.831  0.0338 -0.5537 -0.6678
   79MOL    O1111087   1.413   4.555   6.760  0.6468  0.6920 -0.4893
   79MOL    H1211088   1.381   4.511   6.964 -2.3730 -0.5418  1.4012
   79MOL    H1311089   1.238   4.375   6.734 -0.6019  0.8394 -0.2463
   79MOL    H1411090   1.217   4.332   6.906 -0.3519  0.6452 -0.4558
   79MOL    H1511091   1.369   4.295   6.837  1.8650  1.2590 -2.6913
   79MOL    C1611092   1.483   4.675   6.785  0.2493  0.0118  0.1610
   79MOL    C1711093   1.636   4.644   6.802  0.9754 -0.4276 -0.8794
   79MOL    O1811094   1.475   4.758   6.672 -0.3715  0.1670  1.0890
   79MOL    H1911095   1.437   4.739   6.861 -2.5822 -2.7196  0.8536
   79MOL    H2011096   1.685   4.741   6.804  2.4055 -1.1612  0.8036
   79MOL    H2111097   1.691   4.595   6.722  1.4678 -2.8981  0.9075
   79MOL    H2211098   1.641   4.591   6.897 -2.7014 -0.6070 -0.7294
   79MOL    C2311099   1.339   4.802   6.651  0.1567  0.3155  0.1153
   79MOL    C2411100   1.330   4.940   6.703 -0.1658  0.3726  0.5177
   79MOL    O2511101   1.313   4.798   6.515  0.4706 -0.3076 -0.2251
   79MOL    H2611102   1.255   4.739   6.683  0.3654 -0.2936 -0.5385
   79MOL    H2711103   1.385   4.955   6.796  1.2017  2.6858 -0.6038
   79MOL    H2811104   1.230   4.962   6.740 -1.1691 -0.7758 -1.4029
   79MOL    H2911105   1.366   5.014   6.632 -0.4347 -1.3743 -1.4947
   79MOL    C3011106   1.308   4.676   6.453  0.9700  0.9209 -0.4196
   79MOL    C3111107   1.162   4.653   6.423 -0.0517  0.1098 -0.1536
   79MOL    O3211108   1.371   4.678   6.332 -0.3575  0.4938  0.4568
   79MOL    H3311109   1.349   4.599   6.518 -0.9027  0.3183  0.0772
   79MOL    H3411110   1.106   4.668   6.515  1.0111  0.0594  0.5094
   79MOL    H3511111   1.142   4.549   6.399 -1.7965 -0.2091  2.5047
   79MOL    H3611112   1.130   4.720   6.343  1.5283  1.1580  0.0636
   79MOL    C3711113   1.508   4.687   6.338  0.4837  0.4213 -0.4103
   79MOL    C3811114   1.568   4.549   6.361 -0.2953 -0.1619  0.4704
   79MOL    O3911115   1.561   4.732   6.220  0.2771  0.2686  0.9494
   79MOL    H4011116   1.534   4.756   6.418 -1.1842 -0.5736  1.0062
   79MOL    H4111117   1.676   4.558   6.350 -0.3886 -0.5014 -0.8399
   79MOL    H4211118   1.537   4.477   6.285 -0.0326 -0.7698  0.9396
   79MOL    H4311119   1.544   4.517   6.462 -0.2907  0.8374  0.7955
   79MOL    C4411120   1.542   4.872   6.195 -0.7720 -0.0006 -0.0001
   79MOL    C4511121   1.671   4.944   6.233  0.5677  0.5870  0.5092
   79MOL    O4611122   1.508   4.907   6.063  0.1880 -0.3635 -0.2042
   79MOL    H4711123   1.461   4.909   6.258  1.1496  0.2067  2.3992
   79MOL    H4811124   1.695   4.914   6.335 -1.6703 -0.3932  0.7592
   79MOL    H4911125   1.663   5.053   6.239 -2.3990  0.3372  1.7297
   79MOL    H5011126   1.754   4.921   6.165  1.4389  1.0107  1.4103
   79MOL    C5111127   1.394   4.845   6.020  0.7748 -0.1878  0.1984
   79MOL    C5211128   1.281   4.946   6.004  0.2873 -0.4122 -0.5254
   79MOL    O5311129   1.419   4.792   5.888  0.0109 -0.3561 -0.2486
   79MOL    H5411130   1.370   4.763   6.088  1.0034  0.7205  1.3873
   79MOL    H5511131   1.202   4.890   5.953  0.8131 -1.4451 -0.2239
   79MOL    H5611132   1.312   5.031   5.943 -1.8868 -0.8320 -2.3004
   79MOL    H5711133   1.246   4.982   6.100  1.0493  0.8960 -0.7200
   79MOL    C5811134   1.517   4.691   5.887  0.2289 -0.4848 -0.4241
   79MOL    C5911135   1.458   4.560   5.926  0.5498 -0.4754 -0.4948
   79MOL    O6011136   1.581   4.684   5.764 -0.4403 -0.0937 -0.2634
   79MOL    H6111137   1.596   4.711   5.958  1.3737 -0.0853 -1.7776
   79MOL    H6211138   1.374   4.544   5.858  1.4013 -0.6265 -1.5109
   79MOL    H6311139   1.431   4.562   6.032  3.0066  0.3406  0.1452
   79MOL    H6411140   1.532   4.481   5.909  0.1688 -0.9206 -0.1229
   79MOL    C6511141   1.671   4.783   5.743  0.6069  0.7998  0.4143
   79MOL    C6611142   1.806   4.719   5.758 -0.5021 -0.9634 -0.3526
   79MOL    O6711143   1.663   4.837   5.621 -0.6406 -0.4068  0.6544
   79MOL    H6811144   1.657   4.864   5.814 -0.6378  1.8421 -1.0179
   79MOL    H6911145   1.886   4.793   5.751 -0.3920 -0.7143  2.7608
   79MOL    H7011146   1.813   4.639   5.684  0.2328 -1.1978 -0.0389
   79MOL    H7111147   1.805   4.673   5.857 -0.5183 -0.6130 -0.1909
   79MOL    C7211148   1.541   4.892   5.581 -0.1827 -0.3264 -0.5258
   79MOL    C7311149   1.547   5.046   5.606 -0.0951 -0.2706 -0.0560
   79MOL    O7411150   1.528   4.870   5.445 -0.1840  0.0823  1.0614
   79MOL    H7511151   1.457   4.849   5.636 -0.0414 -1.5992 -1.2939
   79MOL    H7611152   1.524   5.065   5.711  1.6075 -1.3928  0.5420
   79MOL    H7711153   1.479   5.114   5.554 -1.4853 -0.5495  1.3605
   79MOL    H7811154   1.645   5.085   5.579 -0.8641 -0.9514 -4.0704
   79MOL    C7911155   1.496   4.733   5.418 -0.0262  0.5645  1.0156
   79MOL    C8011156   1.344   4.699   5.414  0.9818 -0.3782  0.1772
   79MOL    O8111157   1.538   4.705   5.283 -0.0189 -0.3431 -0.4304
   79MOL    H8211158   1.551   4.672   5.489  0.5215  1.3742  1.2994
   79MOL    H8311159   1.331   4.592   5.398 -0.0422 -0.0028 -1.6525
   79MOL    H8411160   1.294   4.749   5.331  2.3912  0.0955 -0.4072
   79MOL    H8511161   1.301   4.722   5.511  0.6895  1.2951 -0.3257
   79MOL    C8611162   1.680   4.710   5.264  0.4242 -0.0093 -0.1247
   79MOL    C8711163   1.740   4.571   5.295 -1.0076 -0.0283 -0.5495
   79MOL    O8811164   1.702   4.741   5.128 -0.0017  0.0582 -0.7509
   79MOL    H8911165   1.732   4.789   5.317  1.9355 -2.1382  1.6877
   79MOL    H9011166   1.687   4.493   5.241 -0.2622  0.0041 -1.3370
   79MOL    H9111167   1.735   4.552   5.402  0.3888 -3.6548 -1.0486
   79MOL    H9211168   1.842   4.561   5.260 -0.7550 -1.4495  0.5510
   79MOL    C9311169   1.651   4.863   5.085  0.1999 -0.0246 -0.0384
   79MOL    C9411170   1.769   4.961   5.072 -0.4686 -0.3551 -0.1455
   79MOL    O9511171   1.593   4.854   4.964 -0.5365 -0.2655 -0.3668
   79MOL    H9611172   1.579   4.904   5.156 -1.1168 -0.6477 -0.9676
   79MOL    H9711173   1.831   4.926   4.990  1.4011  1.5994  0.3757
   79MOL    H9811174   1.822   4.961   5.167  1.0813 -2.1370 -0.9779
   79MOL    H9911175   1.731   5.063   5.056  0.6766  0.1404  0.2722
   79MOL   C10011176   1.470   4.773   4.952  0.6634 -0.0330  0.0249
   79MOL   C10111177   1.353   4.870   4.950  0.1440 -0.0318 -0.4144
   79MOL   O10211178   1.460   4.699   4.830 -0.1739  0.0011  0.1038
   79MOL   H10311179   1.450   4.698   5.028 -1.0167 -0.0298 -0.4067
   79MOL   H10411180   1.346   4.908   5.052 -2.3357  1.8832 -1.2794
   79MOL   H10511181   1.256   4.821   4.942  0.5564 -0.5176 -2.7595
   79MOL   H10611182   1.366   4.945   4.873 -0.5191 -0.4368 -0.9171
   79MOL   C10711183   1.549   4.588   4.823  0.4482 -0.4247 -0.3202
   79MOL   C10811184   1.472   4.457   4.819 -0.2390  0.3168 -0.2998
   79MOL   O10911185   1.626   4.593   4.706  0.3146 -0.0305 -0.0730
   79MOL   H11011186   1.614   4.600   4.910 -1.4025  0.4497  0.9673
   79MOL   H11111187   1.410   4.448   4.730 -1.5520 -0.9388  0.7206
   79MOL   H11211188   1.395   4.450   4.896 -1.2405  0.3207 -1.2886
   79MOL   H11311189   1.540   4.374   4.838  1.0113  1.6884  1.3498
   79MOL   C11411190   1.726   4.691   4.700  0.6829  0.3211 -0.3430
   79MOL   C11511191   1.857   4.608   4.681  0.2931 -0.2996  0.2099
   79MOL   O11611192   1.703   4.770   4.585  0.1241  0.0574 -0.4358
   79MOL   H11711193   1.730   4.747   4.793  2.2448  1.0705 -0.8381
   79MOL   H11811194   1.835   4.548   4.592  2.3488 -0.2837 -0.3277
   79MOL   H11911195   1.890   4.548   4.765  0.2084  0.8696  1.0842
   79MOL   H12011196   1.934   4.681   4.660 -0.3321 -0.5774 -3.5447
   79MOL   C12111197   1.614   4.876   4.594 -0.2397 -0.2403 -0.1952
   79MOL   C12211198   1.701   5.002   4.575 -0.8369 -0.2385 -0.0525
   79MOL   O12311199   1.524   4.865   4.483  0.8813 -0.5261  0.2084
   79MOL   H12411200   1.549   4.890   4.680 -0.3998  1.5850 -0.5885
   79MOL   H12511201   1.641   5.093   4.568  1.1015  1.1904  1.4263
   79MOL   H12611202   1.752   4.996   4.479  0.8452  0.3417  0.7941
   79MOL   H12711203   1.774   5.009   4.656 -1.0775 -0.5898  0.1982
   79MOL   C12811204   1.416   4.774   4.502 -0.0279  0.2393 -0.1505
   79MOL   C12911205   1.286   4.847   4.496 -0.5078 -1.4430 -0.0184
   79MOL   O13011206   1.401   4.681   4.398  0.1208 -0.7404 -0.1949
   79MOL   H13111207   1.432   4.712   4.591 -2.0671 -1.7851 -1.1275
   79MOL   H13211208   1.290   4.919   4.577 -0.1782 -0.5457 -0.8165
   79MOL   H13311209   1.206   4.779   4.527 -0.6172 -0.3392  2.1795
   79MOL   H13411210   1.266   4.904   4.405  0.0079 -1.6959 -0.2949
   79MOL   C13511211   1.510   4.596   4.391 -0.2767  0.2166  0.1153
   79MOL   C13611212   1.473   4.470   4.309 -0.1110  0.2078 -0.5070
   79MOL   O13711213   1.624   4.650   4.331  0.1002 -0.2902 -0.4432
   79MOL   H13811214   1.541   4.567   4.492  1.1645  1.6627  0.1100
   79MOL   H13911215   1.453   4.480   4.202 -0.7109  1.3168 -0.2972
   79MOL   H14011216   1.384   4.429   4.356 -2.3012  2.4139 -2.6037
   79MOL   H14111217   1.549   4.393   4.327  0.0236  0.3378 -0.5190
   79MOL   H14211218   1.664   4.703   4.398 -0.7955  1.5514 -1.3370
   80MOL     C111219   0.381   1.747   4.572  1.1531 -0.0575 -0.5646
   80MOL     C211220   0.255   1.739   4.661  0.3979 -0.2863  0.3602
   80MOL     O311221   0.459   1.632   4.579 -0.3470 -0.2752  0.3901
   80MOL     H411222   0.441   1.835   4.593  1.2198 -0.5000  1.1981
   80MOL     H511223   0.206   1.643   4.643  2.4220 -1.4322  0.7829
   80MOL     H611224   0.184   1.820   4.645  0.3523 -0.6893 -1.6703
   80MOL     H711225   0.277   1.748   4.767 -1.8681 -1.1945  0.9282
   80MOL     H811226   0.352   1.755   4.467 -1.1839  1.5562  0.1614
   80MOL     C911227   0.577   1.623   4.508 -0.0842 -0.8518 -0.0303
   80MOL    C1011228   0.680   1.653   4.614  0.5482 -0.4253 -0.2520
   80MOL    O1111229   0.600   1.494   4.454  0.1624 -0.3582 -0.5623
   80MOL    H1211230   0.572   1.686   4.420 -1.5666  2.4003  2.2700
   80MOL    H1311231   0.679   1.569   4.683 -1.8172  0.0662  0.3381
   80MOL    H1411232   0.662   1.751   4.658  1.0288  0.7478 -2.5501
   80MOL    H1511233   0.779   1.666   4.570  0.8866 -0.5612  0.4623
   80MOL    C1611234   0.508   1.450   4.355 -0.2068  0.1623  0.2531
   80MOL    C1711235   0.581   1.422   4.222  0.1827  0.2224  0.0834
   80MOL    O1811236   0.446   1.326   4.389  0.1822  0.2028 -0.3035
   80MOL    H1911237   0.427   1.519   4.335 -1.3920 -1.7200 -1.6509
   80MOL    H2011238   0.680   1.378   4.234  0.8448  1.7408  0.3375
   80MOL    H2111239   0.592   1.523   4.181  1.0833  0.4838  0.9729
   80MOL    H2211240   0.524   1.356   4.157 -1.3397  2.0230 -0.4669
   80MOL    C2311241   0.331   1.330   4.474  0.4419  0.7231  0.2910
   80MOL    C2411242   0.205   1.295   4.384  0.2549  0.6189 -0.3552
   80MOL    O2511243   0.342   1.239   4.576  0.1515  0.4434 -0.6308
   80MOL    H2611244   0.316   1.427   4.522 -2.3805  0.0955  0.7603
   80MOL    H2711245   0.185   1.374   4.312 -1.2617  0.3655 -0.2301
   80MOL    H2811246   0.119   1.287   4.451  0.8986  0.1441  0.4237
   80MOL    H2911247   0.217   1.203   4.327  2.0158  1.2074 -0.9829
   80MOL    C3011248   0.427   1.279   4.677  0.7978 -0.0892  0.1925
   80MOL    C3111249   0.331   1.320   4.789  0.1810  0.2679  0.5408
   80MOL    O3211250   0.517   1.185   4.727  0.6043 -0.3678 -0.7065
   80MOL    H3311251   0.494   1.358   4.644  2.1750 -2.5310 -3.1538
   80MOL    H3411252   0.298   1.228   4.837 -2.3128 -0.0364 -1.6309
   80MOL    H3511253   0.250   1.372   4.736  0.2751  0.7900  0.9065
   80MOL    H3611254   0.378   1.381   4.866 -0.8101  1.5754  0.1466
   80MOL    C3711255   0.632   1.165   4.650  0.8496  0.5338 -0.3073
   80MOL    C3811256   0.752   1.190   4.740 -0.1615  0.2649 -0.3336
   80MOL    O3911257   0.639   1.037   4.602  0.4729 -0.8204 -0.0711
   80MOL    H4011258   0.631   1.235   4.566 -1.1128  2.5528  1.3281
   80MOL    H4111259   0.737   1.293   4.773 -0.3694  0.3661 -0.7415
   80MOL    H4211260   0.835   1.193   4.670 -0.5696 -1.6141 -0.9192
   80MOL    H4311261   0.746   1.125   4.827 -1.2956  0.4872 -0.2410
   80MOL    C4411262   0.556   1.010   4.500  0.5864 -0.0729 -0.1176
   80MOL    C4511263   0.645   0.993   4.373 -0.3372  0.8650  0.2004
   80MOL    O4611264   0.496   0.880   4.524  0.0391  0.2159  0.0669
   80MOL    H4711265   0.482   1.086   4.475  2.6914  2.6767  1.5970
   80MOL    H4811266   0.706   1.081   4.355  0.8675 -0.0367 -0.2383
   80MOL    H4911267   0.569   0.984   4.296  0.2604 -0.6429 -0.2397
   80MOL    H5011268   0.720   0.915   4.385 -0.9421  0.3656  0.7927
   80MOL    C5111269   0.386   0.878   4.614  0.1044  0.6370 -0.5023
   80MOL    C5211270   0.264   0.818   4.536  0.1781  0.2189 -0.3912
   80MOL    O5311271   0.434   0.797   4.717  0.5353 -0.6220  0.8167
   80MOL    H5411272   0.367   0.977   4.656  0.4903 -0.5373  2.5490
   80MOL    H5511273   0.287   0.718   4.499  2.2242  0.2300  0.7276
   80MOL    H5611274   0.230   0.887   4.460 -0.9422  0.6955  0.5301
   80MOL    H5711275   0.182   0.818   4.608  0.7170 -2.3223  0.2610
   80MOL    C5811276   0.467   0.867   4.839 -0.5260  0.3255  0.7541
   80MOL    C5911277   0.336   0.905   4.909  0.1666 -0.2240  0.3147
   80MOL    O6011278   0.538   0.782   4.927 -0.0621 -0.1365  0.1239
   80MOL    H6111279   0.525   0.958   4.820 -0.6251 -0.1148 -1.7979
   80MOL    H6211280   0.286   0.982   4.850  1.3570 -1.9645 -3.1183
   80MOL    H6311281   0.359   0.941   5.009 -0.1581  0.3027  0.2009
   80MOL    H6411282   0.274   0.815   4.912  0.2629 -0.3213 -0.3798
   80MOL    C6511283   0.674   0.758   4.887 -0.6930 -0.2928  0.2763
   80MOL    C6611284   0.765   0.833   4.985 -0.2720  0.3668  0.6390
   80MOL    O6711285   0.709   0.629   4.888  0.4646  0.2937 -0.4307
   80MOL    H6811286   0.695   0.814   4.796  2.2270 -1.2170  0.3392
   80MOL    H6911287   0.747   0.941   4.982 -0.8875  0.2490 -0.1314
   80MOL    H7011288   0.868   0.825   4.950 -0.3650  1.0300  0.2100
   80MOL    H7111289   0.749   0.785   5.081  1.8348 -0.5984  0.5251
   80MOL    C7211290   0.667   0.552   4.783  0.2151  0.0101 -0.0406
   80MOL    C7311291   0.795   0.485   4.733 -0.3090 -0.3308  0.0774
   80MOL    O7411292   0.583   0.444   4.822  0.3679  0.6212  0.1042
   80MOL    H7511293   0.623   0.609   4.701 -0.2076 -2.0119 -1.2587
   80MOL    H7611294   0.775   0.420   4.648  0.7320 -1.6817  0.8358
   80MOL    H7711295   0.833   0.411   4.805 -0.3050  0.3862  0.8197
   80MOL    H7811296   0.873   0.553   4.701  1.1451 -2.4798 -1.0787
   80MOL    C7911297   0.451   0.479   4.836  0.3994  0.1937 -0.3640
   80MOL    C8011298   0.369   0.411   4.726 -1.2258  0.2218  0.1123
   80MOL    O8111299   0.398   0.421   4.950 -0.2172 -0.0905  0.3017
   80MOL    H8211300   0.424   0.584   4.839 -4.3992 -0.9376  0.5002
   80MOL    H8311301   0.399   0.429   4.623 -0.9539 -1.0246 -0.0410
   80MOL    H8411302   0.267   0.448   4.734 -0.3247  2.7551  0.3710
   80MOL    H8511303   0.364   0.302   4.729  0.5749  0.1637  2.0576
   80MOL    C8611304   0.391   0.495   5.066 -0.3487  0.8366  0.0496
   80MOL    C8711305   0.237   0.489   5.101 -0.5130 -0.3169  0.0688
   80MOL    O8811306   0.461   0.427   5.172 -0.5326 -0.4995  0.5660
   80MOL    H8911307   0.418   0.600   5.056 -1.8235  1.3772  1.5557
   80MOL    H9011308   0.175   0.538   5.025  2.2569  2.0748 -0.7339
   80MOL    H9111309   0.221   0.535   5.199  0.6566 -1.7030  0.9237
   80MOL    H9211310   0.199   0.387   5.108 -0.2537 -0.5339 -1.5043
   80MOL    C9311311   0.591   0.460   5.186 -0.6766 -0.9685  0.4277
   80MOL    C9411312   0.597   0.525   5.318 -0.3161 -0.0861 -0.2137
   80MOL    O9511313   0.669   0.344   5.206  0.7967 -0.2362  0.3592
   80MOL    H9611314   0.634   0.520   5.106 -2.8550 -0.6390 -0.5512
   80MOL    H9711315   0.698   0.551   5.350 -0.2221  0.2453 -0.7703
   80MOL    H9811316   0.565   0.464   5.402 -1.4662  1.5536  0.5752
   80MOL    H9911317   0.529   0.610   5.322 -2.5234 -1.8657  3.1491
   80MOL   C10011318   0.723   0.299   5.087 -0.2392 -0.4723  0.3257
   80MOL   C10111319   0.870   0.307   5.114 -0.9404  0.0886  0.1895
   80MOL   O10211320   0.693   0.172   5.054  0.4363  0.0701 -0.1911
   80MOL   H10311321   0.712   0.362   4.998  0.3565  0.2471  0.7510
   80MOL   H10411322   0.896   0.413   5.117 -0.7082  0.0124  1.0826
   80MOL   H10511323   0.922   0.265   5.029 -1.9008 -1.9651  0.5862
   80MOL   H10611324   0.890   0.256   5.208 -0.9481 -0.6365 -0.1997
   80MOL   C10711325   0.565   0.145   5.019  0.2098  0.1929  0.4031
   80MOL   C10811326   0.572   0.100   4.872 -0.0062  0.3929  0.0058
   80MOL   O10911327   0.509   0.044   5.091 -0.8167 -0.1885  0.0946
   80MOL   H11011328   0.497   0.230   5.029  1.2289  1.0613  0.0860
   80MOL   H11111329   0.642   0.016   4.867 -0.9541 -0.4089 -0.0467
   80MOL   H11211330   0.606   0.182   4.809 -1.9205  1.7684  0.7296
   80MOL   H11311331   0.469   0.079   4.843 -0.2931  1.2375  0.3993
   80MOL   C11411332   0.455   0.082   5.215  0.0296  0.1627  0.5989
   80MOL   C11511333   0.303   0.059   5.212  0.4891 -0.3928 -0.3865
   80MOL   O11611334   0.503   0.006   5.320 -0.0879 -0.9297  0.3655
   80MOL   H11711335   0.457   0.188   5.240  1.4828  0.4417 -0.6236
   80MOL   H11811336   0.264   0.129   5.138  2.8764 -0.6594 -1.9465
   80MOL   H11911337   0.257   0.086   5.308 -0.1085  0.5876 -0.9355
   80MOL   H12011338   0.284   7.868   5.191  2.0709 -0.9427  0.8517
   80MOL   C12111339   0.621   0.065   5.363  0.1608  0.2701 -0.6068
   80MOL   C12211340   0.591   0.154   5.485  0.0835 -0.3146  0.3448
   80MOL   O12311341   0.706   7.879   5.409  0.2940 -0.4973 -0.1096
   80MOL   H12411342   0.674   0.124   5.289  0.7581  0.3669 -0.1119
   80MOL   H12511343   0.535   0.100   5.561  0.5077  2.0265  2.3629
   80MOL   H12611344   0.540   0.248   5.464  0.3158  0.1763  1.9092
   80MOL   H12711345   0.691   0.168   5.526  1.2429 -3.1285 -1.3673
   80MOL   C12811346   0.762   7.812   5.297 -0.0453 -0.2322 -0.3532
   80MOL   C12911347   0.922   7.824   5.316 -0.0020 -1.0491 -0.3750
   80MOL   O13011348   0.726   7.671   5.304 -0.3321  0.0951 -0.3898
   80MOL   H13111349   0.736   7.854   5.200  2.0368  0.2560 -0.7124
   80MOL   H13211350   0.960   7.818   5.418  0.7982 -2.5153 -0.7403
   80MOL   H13311351   0.946   0.005   5.267 -0.0498 -0.3222  0.9965
   80MOL   H13411352   0.985   7.748   5.270  1.3133  0.3971 -1.0328
   80MOL   C13511353   0.594   7.650   5.261  0.7644  0.6691 -0.3287
   80MOL   C13611354   0.584   7.521   5.178 -0.4509 -0.1195  0.4477
   80MOL   O13711355   0.516   7.650   5.381  0.0023  0.0799  0.3666
   80MOL   H13811356   0.563   7.731   5.196 -1.7979  0.6678  0.7997
   80MOL   H13911357   0.615   7.532   5.074  1.9737  1.0710  1.2629
   80MOL   H14011358   0.481   7.484   5.178 -0.5434  0.1258 -0.4923
   80MOL   H14111359   0.653   7.450   5.223 -0.8223 -0.4775  0.4460
   80MOL   H14211360   0.509   7.743   5.396  0.3296  0.1024  0.3973
   81MOL     C111361   0.103   4.352   2.128  0.1826 -0.1994 -0.1994
   81MOL     C211362   0.144   4.320   1.985  0.4605 -0.7645  0.2504
   81MOL     O311363   7.913   4.446   2.112 -0.2241 -0.0523  0.1455
   81MOL     H411364   0.180   4.399   2.190  0.3330  0.0286 -0.5549
   81MOL     H511365   0.219   4.240   1.989  0.7591 -0.4978 -0.0872
   81MOL     H611366   0.177   4.409   1.933  0.1395  0.7574  2.5950
   81MOL     H711367   0.059   4.282   1.929 -0.0849 -0.9767  1.2057
   81MOL     H811368   0.080   4.262   2.185  1.2863 -0.1630  0.3215
   81MOL     C911369   7.831   4.471   2.223  0.0407 -0.0140 -0.1091
   81MOL    C1011370   7.749   4.596   2.194 -0.5876 -0.1921  0.0871
   81MOL    O1111371   7.753   4.360   2.265 -0.0177 -0.3062 -0.1177
   81MOL    H1211372   7.898   4.484   2.308  0.9905  0.5551 -0.9432
   81MOL    H1311373   7.680   4.611   2.276  0.2613  1.0851  0.5825
   81MOL    H1411374   7.696   4.596   2.098 -0.6909  2.8893  0.1080
   81MOL    H1511375   7.816   4.681   2.189 -0.1566 -0.6267 -2.2852
   81MOL    C1611376   7.642   4.327   2.182  0.0744  0.3369  0.4669
   81MOL    C1711377   7.670   4.262   2.046 -0.3900  0.0508 -0.7760
   81MOL    O1811378   7.565   4.225   2.239  0.1137  0.5448  0.3330
   81MOL    H1911379   7.576   4.414   2.179  0.4753  0.6653  1.0382
   81MOL    H2011380   7.579   4.235   1.992 -0.7607  0.1463 -0.1935
   81MOL    H2111381   7.743   4.182   2.056  1.3741  1.3131 -2.9764
   81MOL    H2211382   7.715   4.340   1.984 -1.5291  0.1369 -1.5129
   81MOL    C2311383   7.484   4.260   2.350  0.6708 -0.3557 -1.1660
   81MOL    C2411384   7.330   4.272   2.311 -0.1921  0.7523 -0.0153
   81MOL    O2511385   7.510   4.176   2.464  0.6495 -0.3319  0.3676
   81MOL    H2611386   7.509   4.362   2.378  0.6365  0.1121 -2.8036
   81MOL    H2711387   7.317   4.352   2.237 -0.8376 -0.2257 -0.9738
   81MOL    H2811388   7.271   4.296   2.399  0.0657  0.4681  0.2330
   81MOL    H2911389   7.289   4.182   2.265  0.3984  0.8026 -0.6472
   81MOL    C3011390   7.649   4.181   2.508  0.3628  0.3483 -0.1367
   81MOL    C3111391   7.657   4.242   2.648 -0.4130  0.4444 -0.6403
   81MOL    O3211392   7.701   4.053   2.506  0.0512  0.3815  0.0330
   81MOL    H3311393   7.724   4.228   2.445  1.9380 -2.3340 -0.3464
   81MOL    H3411394   7.593   4.188   2.718  0.6800  1.6615  1.3404
   81MOL    H3511395   7.621   4.345   2.649 -2.0446 -0.1086  1.2146
   81MOL    H3611396   7.762   4.246   2.677 -0.4218  1.8167 -0.8004
   81MOL    C3711397   7.735   3.997   2.383 -0.6331  0.0604  0.6433
   81MOL    C3811398   7.889   4.003   2.376  0.3645 -0.9580  0.0829
   81MOL    O3911399   7.701   3.863   2.376  0.2897 -0.5155 -0.3792
   81MOL    H4011400   7.700   4.038   2.289  0.6648 -1.2561 -0.4353
   81MOL    H4111401   0.002   4.108   2.382 -0.2921 -0.7748 -0.0774
   81MOL    H4211402   0.013   3.960   2.283 -1.0330 -2.2914  0.0905
   81MOL    H4311403   0.024   3.951   2.458 -1.8774 -3.3873 -0.0345
   81MOL    C4411404   7.563   3.839   2.383 -0.2558 -0.0799 -0.0427
   81MOL    C4511405   7.516   3.769   2.256  0.0118  0.1313 -0.1068
   81MOL    O4611406   7.527   3.753   2.486 -0.0977 -0.4703  0.0523
   81MOL    H4711407   7.504   3.930   2.389 -0.7814 -0.4025 -0.2956
   81MOL    H4811408   7.408   3.762   2.250 -0.1248  1.5555  0.4480
   81MOL    H4911409   7.581   3.682   2.243 -0.5836 -0.3949  0.4392
   81MOL    H5011410   7.548   3.841   2.180 -0.4660 -0.5298 -0.9451
   81MOL    C5111411   7.480   3.824   2.594 -0.0464 -0.5500 -0.2405
   81MOL    C5211412   7.328   3.832   2.599  0.3370  0.1812 -0.6990
   81MOL    O5311413   7.527   3.763   2.719 -0.4967 -0.2504 -0.2148
   81MOL    H5411414   7.521   3.924   2.605 -2.5285  0.5534 -0.7095
   81MOL    H5511415   7.294   3.904   2.674 -0.2585 -1.6033  0.7945
   81MOL    H5611416   7.279   3.736   2.615  1.9010 -0.8502 -1.9085
   81MOL    H5711417   7.307   3.856   2.495 -0.0363 -2.9224 -1.3695
   81MOL    C5811418   7.668   3.765   2.728  0.3691  0.1269 -0.0278
   81MOL    C5911419   7.708   3.823   2.860 -0.2543 -0.7277  0.8502
   81MOL    O6011420   7.731   3.630   2.729  0.8717 -0.4944  0.5797
   81MOL    H6111421   7.722   3.818   2.649 -0.6766  0.0132 -0.8465
   81MOL    H6211422   7.697   3.754   2.944 -0.9277 -0.7127  0.7797
   81MOL    H6311423   7.651   3.915   2.874 -0.8421 -1.0862  0.8384
   81MOL    H6411424   7.813   3.848   2.869  0.2000 -2.6980  1.2692
   81MOL    C6511425   7.763   3.571   2.608  0.9058  0.2598  0.1191
   81MOL    C6611426   7.911   3.542   2.594  0.1587  0.7045 -0.9746
   81MOL    O6711427   7.695   3.447   2.586  0.1961 -0.4853  0.1295
   81MOL    H6811428   7.742   3.639   2.525 -0.9237 -0.3844  0.0354
   81MOL    H6911429   0.028   3.492   2.503 -0.8134 -0.2158 -0.8152
   81MOL    H7011430   0.026   3.471   2.671  0.3535  0.1443 -1.5621
   81MOL    H7111431   0.055   3.629   2.624 -0.3636  0.9688 -0.7183
   81MOL    C7211432   7.560   3.448   2.582  0.3416 -0.2051 -0.0475
   81MOL    C7311433   7.509   3.414   2.440 -0.3263 -0.3259 -0.1611
   81MOL    O7411434   7.506   3.344   2.659 -0.2730 -0.0080 -0.0723
   81MOL    H7511435   7.520   3.541   2.622 -0.3681 -0.3347 -0.4533
   81MOL    H7611436   7.509   3.506   2.381 -1.0678  0.5311  1.1658
   81MOL    H7711437   7.408   3.374   2.427 -0.0805 -0.6178 -1.2528
   81MOL    H7811438   7.568   3.338   2.389 -2.5646 -2.8557  0.9071
   81MOL    C7911439   7.492   3.383   2.791  0.3288  0.2136  0.3751
   81MOL    C8011440   7.347   3.408   2.816  0.1609  0.4072  0.0635
   81MOL    O8111441   7.531   3.279   2.883  0.1990 -0.1940 -0.3333
   81MOL    H8211442   7.546   3.475   2.815 -0.8552  1.2538 -0.8562
   81MOL    H8311443   7.339   3.453   2.915  0.1643 -1.0654  0.7527
   81MOL    H8411444   7.285   3.318   2.815  2.1100 -0.9629 -1.8278
   81MOL    H8511445   7.311   3.473   2.736 -1.8399 -1.2238 -0.4167
   81MOL    C8611446   7.670   3.265   2.885 -0.5082  0.3648 -0.3209
   81MOL    C8711447   7.719   3.285   3.028  0.2132  0.0930 -0.1444
   81MOL    O8811448   7.695   3.133   2.855  0.5379  0.4571  0.2561
   81MOL    H8911449   7.719   3.335   2.817  0.5974  0.9776  1.0746
   81MOL    H9011450   7.828   3.285   3.026  0.2097  0.1376 -0.5055
   81MOL    H9111451   7.679   3.226   3.110  0.9032 -0.3058 -0.0883
   81MOL    H9211452   7.689   3.385   3.061  0.7669  0.0721  0.4281
   81MOL    C9311453   7.721   3.102   2.719  0.3005 -0.1315  0.1031
   81MOL    C9411454   7.871   3.134   2.687 -0.9982  0.4690 -0.7785
   81MOL    O9511455   7.695   2.971   2.696 -0.2460 -0.0603  0.7535
   81MOL    H9611456   7.656   3.165   2.658  2.2187 -1.5646 -3.5415
   81MOL    H9711457   0.006   3.227   2.716  3.6321 -1.7508 -1.0714
   81MOL    H9811458   7.880   3.116   2.580  0.3146 -1.1736 -0.3969
   81MOL    H9911459   0.025   3.067   2.739 -1.3431 -0.5972 -1.6859
   81MOL   C10011460   7.565   2.926   2.710  0.0594  0.8326 -0.3601
   81MOL   C10111461   7.519   2.863   2.579  0.1567  0.9621  0.2608
   81MOL   O10211462   7.553   2.819   2.804  0.3743 -0.2170  0.0080
   81MOL   H10311463   7.494   3.004   2.740  0.4080  1.3446 -0.8502
   81MOL   H10411464   7.411   2.874   2.571 -0.0781 -1.0102  0.5430
   81MOL   H10511465   7.540   2.756   2.575  1.9288  1.2273  1.7446
   81MOL   H10611466   7.557   2.910   2.488  1.8826 -1.7733 -0.4796
   81MOL   C10711467   7.527   2.857   2.936 -0.1181  0.8287 -0.4059
   81MOL   C10811468   7.387   2.807   2.960  0.0014  0.4128 -0.7367
   81MOL   O10911469   7.608   2.796   3.031  0.3429 -0.1766 -0.1443
   81MOL   H11011470   7.531   2.963   2.962 -1.6138  0.5744  0.9073
   81MOL   H11111471   7.381   2.705   2.920 -0.1264  1.0532 -2.3682
   81MOL   H11211472   7.323   2.868   2.897 -1.1645  0.3747  0.3806
   81MOL   H11311473   7.357   2.814   3.065  0.7133  0.7075 -0.5510
   81MOL   C11411474   7.745   2.831   3.018 -0.0336  0.2183 -0.3855
   81MOL   C11511475   7.796   2.925   3.127  0.1196  0.2879 -0.6146
   81MOL   O11611476   7.824   2.713   3.011 -0.5927  0.4039 -0.1674
   81MOL   H11711477   7.768   2.878   2.922  1.3099  0.5470  0.0957
   81MOL   H11811478   7.886   2.978   3.096  0.8436  0.3688  1.5437
   81MOL   H11911479   7.827   2.856   3.206  0.7391  1.7143  0.3917
   81MOL   H12011480   7.715   2.994   3.151  0.8838  0.6552  0.9242
   81MOL   C12111481   7.794   2.623   2.903  0.4156  0.5540 -0.9292
   81MOL   C12211482   7.867   2.663   2.780  0.2735  0.1984 -0.1718
   81MOL   O12311483   7.835   2.494   2.930  0.3360  0.9033 -0.0669
   81MOL   H12411484   7.686   2.619   2.891  0.7250 -1.3153 -3.7415
   81MOL   H12511485   0.059   2.679   2.799 -0.2813  1.5353  1.8708
   81MOL   H12611486   7.837   2.762   2.745  0.1801 -0.1084 -0.9765
   81MOL   H12711487   7.852   2.592   2.698  1.2314  0.2684 -0.4128
   81MOL   C12811488   7.782   2.448   3.052  0.3721 -0.5973 -0.3955
   81MOL   C12911489   7.678   2.345   3.016 -0.1115 -0.4006  0.1486
   81MOL   O13011490   7.886   2.381   3.112 -0.4510 -0.1141  0.6448
   81MOL   H13111491   7.743   2.527   3.116 -0.0326  0.7618 -2.2822
   81MOL   H13211492   7.640   2.300   3.107 -1.0930  3.7677  1.9077
   81MOL   H13311493   7.727   2.264   2.961 -0.4960  0.3954 -1.3839
   81MOL   H13411494   7.602   2.383   2.947  0.2077  1.0818  0.6077
   81MOL   C13511495   0.080   2.457   3.155  0.6196  0.1963  0.3091
   81MOL   C13611496   0.161   2.374   3.245 -0.2221 -0.3208 -0.1140
   81MOL   O13711497   0.160   2.506   3.052 -0.0987  0.3951 -0.4258
   81MOL   H13811498   0.034   2.543   3.203 -2.1449 -0.9057 -0.2169
   81MOL   H13911499   0.099   2.349   3.331 -1.6858  0.4905 -0.9143
   81MOL   H14011500   0.245   2.434   3.279  0.3880 -0.0726 -2.0064
   81MOL   H14111501   0.196   2.284   3.195 -0.1171  1.0660 -2.5952
   81MOL   H14211502   0.095   2.551   3.000  0.8304  3.1911  0.7058
   82MOL     C111503   6.050   5.411   3.835 -0.3559 -0.3784  0.0617
   82MOL     C211504   5.941   5.451   3.746  0.1311 -0.2293  0.7867
   82MOL     O311505   6.146   5.521   3.851  0.1748  0.1280 -0.0872
   82MOL     H411506   6.100   5.325   3.790 -1.1635 -1.8152  1.8034
   82MOL     H511507   5.985   5.479   3.651 -0.2812 -1.4138  0.2266
   82MOL     H611508   5.877   5.539   3.757  0.9908  0.3828  0.8668
   82MOL     H711509   5.884   5.360   3.725 -0.6978  0.0806  1.6519
   82MOL     H811510   6.012   5.370   3.929 -0.5853 -0.8341 -0.2282
   82MOL     C911511   6.208   5.522   3.971 -0.7716 -0.2881 -0.3056
   82MOL    C1011512   6.325   5.419   3.970  0.4683 -0.4143 -0.2602
   82MOL    O1111513   6.271   5.640   4.002  0.3455  0.3376 -0.5407
   82MOL    H1211514   6.145   5.506   4.059  1.2091  0.3501  1.2618
   82MOL    H1311515   6.284   5.319   3.957  0.6211 -0.4234 -0.6602
   82MOL    H1411516   6.370   5.429   4.069 -1.9310  0.7154  0.7871
   82MOL    H1511517   6.388   5.433   3.883  0.8876 -1.0953 -0.0659
   82MOL    C1611518   6.183   5.745   4.003  1.2614 -0.5595 -0.5010
   82MOL    C1711519   6.150   5.765   4.147 -0.2205 -0.3580  0.0993
   82MOL    O1811520   6.240   5.865   3.959  0.1927 -0.0344  1.0818
   82MOL    H1911521   6.086   5.717   3.963  0.9127 -2.1922  1.4014
   82MOL    H2011522   6.079   5.848   4.152  0.8796  0.8415 -3.1206
   82MOL    H2111523   6.233   5.791   4.212  1.2456 -1.6720 -1.2343
   82MOL    H2211524   6.102   5.678   4.192  0.8463 -0.8143  0.3453
   82MOL    C2311525   6.274   5.866   3.819  0.5083 -0.5968  0.3072
   82MOL    C2411526   6.151   5.925   3.740  0.5085  0.4695 -0.0885
   82MOL    O2511527   6.389   5.942   3.801 -0.1754  0.0487 -0.5981
   82MOL    H2611528   6.305   5.770   3.777  0.0440  0.2232 -1.9717
   82MOL    H2711529   6.067   5.856   3.731  0.7116  0.2118 -0.0094
   82MOL    H2811530   6.182   5.970   3.645  1.0993 -0.3131 -0.2651
   82MOL    H2911531   6.114   6.005   3.805  1.7689  0.6354  0.4236
   82MOL    C3011532   6.505   5.882   3.861 -0.2255 -0.4595  0.1316
   82MOL    C3111533   6.603   5.856   3.752 -0.0433 -0.2208 -0.7413
   82MOL    O3211534   6.575   5.973   3.933 -0.0549 -1.0575  0.0922
   82MOL    H3311535   6.484   5.791   3.918 -2.5112 -0.1276 -0.1375
   82MOL    H3411536   6.619   5.943   3.688  2.4658  0.4371  0.6840
   82MOL    H3511537   6.565   5.774   3.691 -1.7167 -0.9313  1.1963
   82MOL    H3611538   6.689   5.822   3.809 -0.6967  0.1732  0.4861
   82MOL    C3711539   6.524   5.987   4.064 -0.1070 -0.2192 -0.2756
   82MOL    C3811540   6.606   5.900   4.154 -0.5335  0.6987  0.3173
   82MOL    O3911541   6.530   6.121   4.102 -0.0848  0.1099  0.0392
   82MOL    H4011542   6.421   5.954   4.072 -0.5236  1.4816  2.1730
   82MOL    H4111543   6.567   5.906   4.255  2.1484  2.7309  1.2770
   82MOL    H4211544   6.708   5.937   4.158  0.3601 -1.4605 -1.2863
   82MOL    H4311545   6.624   5.802   4.110 -1.0655  0.8010 -0.1472
   82MOL    C4411546   6.419   6.194   4.048  0.1904 -0.4185  1.2444
   82MOL    C4511547   6.336   6.225   4.171 -0.1371 -0.4097  0.1866
   82MOL    O4611548   6.456   6.318   3.999 -0.9741 -0.4178  0.8115
   82MOL    H4711549   6.361   6.135   3.976  1.0692  1.7014 -1.2897
   82MOL    H4811550   6.314   6.133   4.226  1.6723  0.1760  1.9314
   82MOL    H4911551   6.239   6.268   4.147  1.2878  2.8693  0.0622
   82MOL    H5011552   6.393   6.291   4.236 -0.7776  0.4674 -0.1414
   82MOL    C5111553   6.527   6.304   3.883  0.5030 -0.6153  0.1210
   82MOL    C5211554   6.439   6.334   3.762 -0.8535 -0.0621  0.4608
   82MOL    O5311555   6.624   6.400   3.884 -0.9776 -0.3368  0.1874
   82MOL    H5411556   6.579   6.208   3.873  1.5033 -0.2117  1.3719
   82MOL    H5511557   6.358   6.261   3.757 -2.4368  1.7653 -2.3514
   82MOL    H5611558   6.494   6.316   3.669  0.9716 -0.8637  1.6825
   82MOL    H5711559   6.393   6.433   3.767  0.1424  0.2961  2.6015
   82MOL    C5811560   6.722   6.364   3.972 -0.1253 -0.4557 -0.6827
   82MOL    C5911561   6.844   6.316   3.897 -0.1619 -0.6623 -0.4542
   82MOL    O6011562   6.769   6.479   4.046 -0.1328 -0.5674 -0.2569
   82MOL    H6111563   6.690   6.300   4.055 -0.1061 -0.6471 -0.8236
   82MOL    H6211564   6.817   6.237   3.827  0.2190 -0.0755 -1.2602
   82MOL    H6311565   6.922   6.283   3.967  0.9944  2.0020 -0.4333
   82MOL    H6411566   6.889   6.397   3.840  1.1154 -1.2244 -0.2623
   82MOL    C6511567   6.675   6.529   4.139 -0.2461 -0.2928 -0.1105
   82MOL    C6611568   6.757   6.562   4.266 -0.6541  0.3079  0.4959
   82MOL    O6711569   6.642   6.657   4.089 -0.4343 -0.3486 -0.2955
   82MOL    H6811570   6.584   6.472   4.153  0.8353 -2.3116 -1.1679
   82MOL    H6911571   6.851   6.608   4.236 -0.1463 -0.8096  0.3638
   82MOL    H7011572   6.781   6.466   4.310  0.5652  0.9610  1.2781
   82MOL    H7111573   6.698   6.626   4.332 -0.4108  2.1724 -1.0499
   82MOL    C7211574   6.516   6.676   4.033 -0.5022  0.0592 -0.0999
   82MOL    C7311575   6.420   6.726   4.142 -0.4546  0.6728  0.0302
   82MOL    O7411576   6.521   6.777   3.943 -0.3211 -0.1770 -0.0559
   82MOL    H7511577   6.477   6.582   3.992 -2.4478  1.3314 -1.2787
   82MOL    H7611578   6.414   6.652   4.222  0.3534 -1.2969 -1.7200
   82MOL    H7711579   6.324   6.754   4.098 -0.4434 -2.0780 -1.8369
   82MOL    H7811580   6.467   6.811   4.193 -0.8435  0.1921  1.2235
   82MOL    C7911581   6.588   6.756   3.823  0.8307 -0.1499 -0.0038
   82MOL    C8011582   6.482   6.738   3.711 -0.0881  0.5678 -0.0395
   82MOL    O8111583   6.666   6.863   3.789  0.3054 -1.0707 -0.2253
   82MOL    H8211584   6.647   6.665   3.822 -2.1130 -2.1350 -0.5065
   82MOL    H8311585   6.535   6.696   3.626  0.1326  1.6777 -0.4598
   82MOL    H8411586   6.434   6.835   3.696 -3.0366 -0.8373 -0.0757
   82MOL    H8511587   6.417   6.660   3.750  0.1599  0.3686 -0.0286
   82MOL    C8611588   6.787   6.858   3.856  0.5723 -0.7694  0.2344
   82MOL    C8711589   6.891   6.812   3.752  0.0752  0.4216 -0.2386
   82MOL    O8811590   6.825   6.984   3.908 -0.4564 -0.2392 -0.4131
   82MOL    H8911591   6.781   6.796   3.945 -1.5571  0.0117  0.6624
   82MOL    H9011592   6.991   6.822   3.795 -0.5633  0.2155  1.3250
   82MOL    H9111593   6.899   6.879   3.666  0.0304  1.6063  0.6671
   82MOL    H9211594   6.866   6.713   3.715  1.3935  0.2286 -0.6452
   82MOL    C9311595   6.744   7.039   4.008 -0.3848  0.8656 -0.0064
   82MOL    C9411596   6.839   7.070   4.129  0.1388  0.0164  0.2450
   82MOL    O9511597   6.693   7.161   3.960  0.0739  0.1174  0.1294
   82MOL    H9611598   6.658   6.979   4.037  0.4938 -0.4128 -0.0476
   82MOL    H9711599   6.934   7.114   4.100 -0.3054  0.6610 -0.2206
   82MOL    H9811600   6.871   6.974   4.171  1.0287 -0.3078 -1.1489
   82MOL    H9911601   6.785   7.131   4.201 -0.3049 -1.0536  0.8404
   82MOL   C10011602   6.587   7.155   3.859 -1.0513  0.3570 -0.5495
   82MOL   C10111603   6.461   7.218   3.923  0.3427 -0.4486 -0.4526
   82MOL   O10211604   6.621   7.234   3.750  0.1760 -0.1495  0.5894
   82MOL   H10311605   6.561   7.058   3.815  0.7136  0.5419 -2.0538
   82MOL   H10411606   6.434   7.171   4.018  2.4152 -0.8117 -0.0187
   82MOL   H10511607   6.382   7.208   3.849  0.7056 -0.2121 -0.8692
   82MOL   H10611608   6.466   7.325   3.944 -2.3953 -0.2235 -0.7707
   82MOL   C10711609   6.678   7.163   3.641  0.2142  0.5509  0.4178
   82MOL   C10811610   6.573   7.124   3.537 -0.7968 -0.1723 -0.4003
   82MOL   O10911611   6.758   7.252   3.563 -0.3906 -0.0284 -0.7658
   82MOL   H11011612   6.739   7.078   3.670 -0.7953 -0.1188  0.5755
   82MOL   H11111613   6.522   7.039   3.583  2.5691 -1.9765  0.1903
   82MOL   H11211614   6.618   7.091   3.443  1.1229  0.2719  0.3532
   82MOL   H11311615   6.499   7.202   3.519 -0.3814 -0.0195 -1.5430
   82MOL   C11411616   6.893   7.252   3.604 -0.4256 -0.1205  0.4195
   82MOL   C11511617   6.976   7.195   3.492  0.8898  0.0421 -0.1229
   82MOL   O11611618   6.940   7.384   3.636 -0.5206  0.3690  0.2627
   82MOL   H11711619   6.918   7.186   3.687  2.7343  0.4088 -0.0500
   82MOL   H11811620   7.080   7.196   3.524  0.7688  0.9484  0.2756
   82MOL   H11911621   6.957   7.265   3.410 -2.4357  0.0691  0.5801
   82MOL   H12011622   6.938   7.097   3.464  1.1314  0.7810 -3.1932
   82MOL   C12111623   6.875   7.434   3.753  0.3666 -0.1744 -0.6115
   82MOL   C12211624   6.973   7.404   3.872 -0.1654  0.4761  0.6148
   82MOL   O12311625   6.866   7.563   3.747  0.2809  0.0539 -0.5679
   82MOL   H12411626   6.776   7.399   3.781 -0.3010  2.6365  0.7548
   82MOL   H12511627   6.918   7.439   3.960 -2.0186 -2.8051  0.8463
   82MOL   H12611628   7.068   7.455   3.856  1.1552 -2.1870 -0.3360
   82MOL   H12711629   6.988   7.297   3.889 -1.2190  0.1121 -0.6375
   82MOL   C12811630   6.762   7.601   3.659 -0.0904  0.0576  0.6805
   82MOL   C12911631   6.642   7.642   3.749 -0.9820  1.1376 -0.0502
   82MOL   O13011632   6.800   7.713   3.584  0.3044 -0.0170 -0.4275
   82MOL   H13111633   6.730   7.523   3.591  1.9545 -1.5564  1.4813
   82MOL   H13211634   6.572   7.700   3.689 -0.8974 -0.5473 -1.8299
   82MOL   H13311635   6.678   7.716   3.821  0.0585  1.1992 -0.6210
   82MOL   H13411636   6.593   7.555   3.791  1.8240 -0.1057  0.7836
   82MOL   C13511637   6.924   7.697   3.511  0.6742  0.2921 -0.4245
   82MOL   C13611638   6.946   7.812   3.410  0.3493  0.0355 -0.3821
   82MOL   O13711639   7.029   7.714   3.604 -0.5969  0.5271 -0.1643
   82MOL   H13811640   6.934   7.601   3.462  0.5001  1.2267 -2.3429
   82MOL   H13911641   7.044   7.794   3.365 -1.1581 -3.0477 -2.5833
   82MOL   H14011642   6.935   7.906   3.465 -1.4161 -0.2429 -0.2538
   82MOL   H14111643   6.884   7.800   3.322  1.0347  2.4033 -1.2314
   82MOL   H14211644   6.997   7.667   3.679  0.8805 -0.1395  0.0709
   83MOL     C111645   0.436   5.355   6.131 -0.5719  0.1724  0.3644
   83MOL     C211646   0.300   5.419   6.134  0.6414  0.2154 -0.3282
   83MOL     O311647   0.420   5.213   6.109 -0.9636 -0.0693  0.6033
   83MOL     H411648   0.502   5.357   6.217  0.8577  0.4564 -0.7270
   83MOL     H511649   0.293   5.526   6.154 -3.1095 -0.0648  0.3299
   83MOL     H611650   0.237   5.370   6.208  0.3449  0.8225 -0.1799
   83MOL     H711651   0.235   5.396   6.049 -0.9274 -1.9845  1.4082
   83MOL     H811652   0.498   5.388   6.048 -0.1213 -0.3178  0.5099
   83MOL     C911653   0.538   5.136   6.111  0.5093 -0.0716  0.0370
   83MOL    C1011654   0.495   4.990   6.109  0.0475 -0.3577 -0.8129
   83MOL    O1111655   0.613   5.164   5.991 -0.2385  0.0973 -0.2892
   83MOL    H1211656   0.593   5.155   6.204 -0.7811  0.2862  0.7416
   83MOL    H1311657   0.422   4.971   6.187  0.7190  0.7726  0.1138
   83MOL    H1411658   0.584   4.929   6.123  0.1864 -0.4574 -2.0811
   83MOL    H1511659   0.453   4.971   6.010 -0.0164 -1.2944 -0.6090
   83MOL    C1611660   0.751   5.184   6.014 -0.1363 -0.1327 -0.2742
   83MOL    C1711661   0.820   5.140   5.888 -0.1133  0.2206  0.3809
   83MOL    O1811662   0.777   5.322   6.024  0.3619 -0.3874  0.5131
   83MOL    H1911663   0.790   5.123   6.095 -0.4587 -0.9761 -0.7390
   83MOL    H2011664   0.794   5.187   5.794  3.0509  1.2124 -0.0652
   83MOL    H2111665   0.824   5.031   5.891  0.4125  0.1832 -1.1636
   83MOL    H2211666   0.924   5.170   5.900 -0.1530  0.6710 -0.4134
   83MOL    C2311667   0.836   5.363   6.134  0.4013 -0.2317  0.4446
   83MOL    C2411668   0.869   5.509   6.113 -0.4355  0.6614 -0.9679
   83MOL    O2511669   0.748   5.349   6.239  0.0443 -0.1084  0.2409
   83MOL    H2611670   0.933   5.313   6.141 -0.2106 -1.6106 -0.4960
   83MOL    H2711671   0.781   5.565   6.081 -1.8437 -1.3274 -0.6460
   83MOL    H2811672   0.957   5.522   6.048  0.2941  3.3469  0.4719
   83MOL    H2911673   0.902   5.564   6.201  1.8886 -0.7452 -0.8947
   83MOL    C3011674   0.809   5.299   6.351 -0.3153 -0.1892 -0.5713
   83MOL    C3111675   0.704   5.305   6.469  0.4387  0.1531 -0.2604
   83MOL    O3211676   0.836   5.166   6.326 -0.2913 -0.6868  0.1885
   83MOL    H3311677   0.905   5.347   6.370 -0.0776 -0.7952 -0.2209
   83MOL    H3411678   0.620   5.240   6.447 -0.3587  0.2143  2.5032
   83MOL    H3511679   0.664   5.405   6.486 -1.6110 -0.4580 -1.3988
   83MOL    H3611680   0.745   5.267   6.563  1.4677  1.2594 -0.2502
   83MOL    C3711681   0.947   5.101   6.392 -0.4462  0.0493  0.1485
   83MOL    C3811682   0.931   4.950   6.362 -0.2400  0.0559 -0.5792
   83MOL    O3911683   1.068   5.145   6.328 -0.7917  0.0782  0.0662
   83MOL    H4011684   0.944   5.109   6.500 -1.4970 -1.8689  0.2892
   83MOL    H4111685   0.909   4.929   6.257 -0.2584 -3.0209 -0.0046
   83MOL    H4211686   0.865   4.902   6.434  2.7588 -1.9327  0.9174
   83MOL    H4311687   1.014   4.890   6.398  0.7801  1.4260 -0.6167
   83MOL    C4411688   1.163   5.181   6.421  0.7522 -0.0946  0.2480
   83MOL    C4511689   1.282   5.114   6.363 -0.6680 -0.2467 -0.6097
   83MOL    O4611690   1.166   5.321   6.425  0.3196  0.3794 -0.4037
   83MOL    H4711691   1.150   5.140   6.521 -0.1687 -0.2878  0.0541
   83MOL    H4811692   1.364   5.135   6.432 -1.7132 -0.5389  0.7481
   83MOL    H4911693   1.301   5.159   6.266 -1.8157 -0.4454 -0.9329
   83MOL    H5011694   1.259   5.007   6.371 -1.8019  0.0051 -0.4159
   83MOL    C5111695   1.166   5.378   6.556  0.6783  0.6588 -0.4058
   83MOL    C5211696   1.184   5.528   6.535  0.3070  0.2251  0.9102
   83MOL    O5311697   1.037   5.362   6.612  0.1487  0.6310  0.2844
   83MOL    H5411698   1.249   5.343   6.617  1.8005 -2.2593 -3.4248
   83MOL    H5511699   1.269   5.530   6.467 -0.7479  1.6999 -0.4069
   83MOL    H5611700   1.212   5.583   6.625  0.3834  0.7191  0.5869
   83MOL    H5711701   1.096   5.568   6.484  0.7572  2.3018  1.6988
   83MOL    C5811702   1.027   5.414   6.745 -0.2160  0.1016 -0.6069
   83MOL    C5911703   0.880   5.385   6.797 -0.3231 -0.6304  0.2051
   83MOL    O6011704   1.107   5.339   6.824  0.1263 -0.4149 -0.4421
   83MOL    H6111705   1.044   5.520   6.765 -1.1412  0.1106  0.1874
   83MOL    H6211706   0.855   5.280   6.781 -0.6019 -0.6726  0.8978
   83MOL    H6311707   0.806   5.452   6.752  0.8605  2.2579  2.4259
   83MOL    H6411708   0.869   5.402   6.904 -1.4758  5.4348 -0.7170
   83MOL    C6511709   1.168   5.393   6.935  0.3554 -0.2915  0.3036
   83MOL    C6611710   1.200   5.280   7.032  0.2368  0.7080 -0.2923
   83MOL    O6711711   1.280   5.473   6.899  0.2984  0.5425 -0.0283
   83MOL    H6811712   1.104   5.452   7.000 -1.2904 -0.0816 -1.4643
   83MOL    H6911713   1.111   5.220   7.051  0.0355  1.4604  1.1475
   83MOL    H7011714   1.241   5.323   7.123  1.8421 -0.7767 -0.2871
   83MOL    H7111715   1.286   5.222   6.998  0.1944 -0.5229  1.6248
   83MOL    C7211716   1.283   5.607   6.944  0.1340  0.0275  0.0721
   83MOL    C7311717   1.407   5.677   6.882  0.0824 -0.1455 -0.4225
   83MOL    O7411718   1.173   5.678   6.902  0.0381  0.0023 -0.3172
   83MOL    H7511719   1.298   5.597   7.052 -0.1458 -1.5921 -0.0228
   83MOL    H7611720   1.395   5.680   6.774  0.9970  2.1592 -0.4943
   83MOL    H7711721   1.494   5.617   6.908 -0.2571  0.4000  2.1453
   83MOL    H7811722   1.419   5.779   6.917 -0.4705  0.5438 -2.2009
   83MOL    C7911723   1.095   5.744   7.001 -0.0459 -0.2580 -0.2466
   83MOL    C8011724   0.997   5.845   6.929 -0.6560  0.6799 -0.1268
   83MOL    O8111725   1.012   5.655   7.069 -0.3601 -0.2920  0.1923
   83MOL    H8211726   1.166   5.798   7.065  2.1768 -3.4312  0.0563
   83MOL    H8311727   0.929   5.788   6.866 -1.0320 -0.1586  1.0179
   83MOL    H8411728   1.054   5.911   6.863  0.4576  0.0154  0.1612
   83MOL    H8511729   0.938   5.909   6.994 -1.3472 -1.7322  1.6937
   83MOL    C8611730   0.997   5.680   7.205 -0.0404 -0.0237 -0.9541
   83MOL    C8711731   0.897   5.577   7.254 -0.3071  0.5617  0.0808
   83MOL    O8811732   1.121   5.672   7.271  0.2375  0.4052 -0.1656
   83MOL    H8911733   0.960   5.783   7.211  3.1556  1.1655 -0.8716
   83MOL    H9011734   0.950   5.484   7.234 -1.6611 -0.1359 -0.2994
   83MOL    H9111735   0.808   5.586   7.192  0.6403  1.2804 -1.2070
   83MOL    H9211736   0.860   5.570   7.357  1.2531 -1.1280  0.5578
   83MOL    C9311737   1.126   5.729   7.395 -0.0108 -0.1799 -0.1446
   83MOL    C9411738   1.235   5.663   7.471  0.0377 -0.4654  0.3197
   83MOL    O9511739   1.159   5.866   7.374  0.4365 -0.3829  0.2057
   83MOL    H9611740   1.030   5.706   7.442 -0.5330  0.4485 -0.8768
   83MOL    H9711741   1.321   5.665   7.405 -0.7914 -0.7888 -0.7786
   83MOL    H9811742   1.215   5.559   7.499  1.8212 -0.7841  0.4859
   83MOL    H9911743   1.260   5.720   7.561  0.4402 -2.2235  1.3539
   83MOL   C10011744   1.066   5.949   7.423 -0.3296  0.1831  0.0500
   83MOL   C10111745   1.138   6.085   7.462  0.6067  0.0288 -0.2377
   83MOL   O10211746   0.961   5.979   7.335 -0.2646  0.1121 -0.0993
   83MOL   H10311747   1.018   5.901   7.509 -0.3336 -1.7508 -1.0009
   83MOL   H10411748   1.209   6.061   7.541 -2.5479 -2.8794  1.8703
   83MOL   H10511749   1.055   6.146   7.498  2.4254  1.0680  2.3023
   83MOL   H10611750   1.181   6.141   7.379 -1.3588  1.7377 -0.1560
   83MOL   C10711751   0.829   5.990   7.382  0.5918 -0.0013  0.2405
   83MOL   C10811752   0.745   6.049   7.262  0.1364  0.2701  0.1030
   83MOL   O10911753   0.776   5.871   7.416 -0.4185  0.8197 -0.0836
   83MOL   H11011754   0.830   6.061   7.465 -0.6054  1.6824 -1.1629
   83MOL   H11111755   0.762   6.157   7.257 -0.5157  0.5323  2.6893
   83MOL   H11211756   0.638   6.036   7.276  0.3449 -3.2627 -1.0029
   83MOL   H11311757   0.766   5.994   7.170 -0.2954 -0.5267  0.4834
   83MOL   C11411758   0.680   5.879   7.514  0.5672 -0.4653  0.6515
   83MOL   C11511759   0.612   5.739   7.509  0.6319  0.1303  0.1604
   83MOL   O11611760   0.735   5.898   7.641  0.0778 -0.1408  0.2504
   83MOL   H11711761   0.598   5.944   7.485 -0.0800 -0.7582  1.7863
   83MOL   H11811762   0.538   5.736   7.589 -1.0639 -0.9001 -1.4082
   83MOL   H11911763   0.677   5.653   7.527 -0.2573 -0.1961  1.9211
   83MOL   H12011764   0.569   5.712   7.413  1.9505 -3.8392  0.6115
   83MOL   C12111765   0.670   6.010   7.702 -0.6915  0.2050 -0.0281
   83MOL   C12211766   0.730   6.015   7.845 -0.6286  0.0530 -0.1298
   83MOL   O12311767   0.699   6.137   7.654 -0.9646 -0.1752 -0.5565
   83MOL   H12411768   0.564   5.996   7.719 -0.5478  2.2447  3.0044
   83MOL   H12511769   0.668   6.076   7.911  0.4709  0.2979  0.6936
   83MOL   H12611770   0.832   6.052   7.853 -0.7451  0.0054  1.6601
   83MOL   H12711771   0.725   5.916   7.891 -0.0441 -0.5493 -1.3352
   83MOL   C12811772   0.585   6.205   7.626 -0.3425 -0.4752 -0.1596
   83MOL   C12911773   0.618   6.338   7.553  0.4884 -0.6291 -0.7280
   83MOL   O13011774   0.491   6.143   7.541  0.1391  0.1011  0.4871
   83MOL   H13111775   0.533   6.220   7.721  2.4008 -2.7753  1.7728
   83MOL   H13211776   0.527   6.399   7.551 -0.9936 -2.8401 -2.4322
   83MOL   H13311777   0.650   6.322   7.450 -0.2374  0.2043 -1.1010
   83MOL   H13411778   0.698   6.391   7.605 -0.0901  0.5301 -0.9916
   83MOL   C13511779   0.363   6.193   7.551  0.1419 -0.4350  0.4665
   83MOL   C13611780   0.329   6.251   7.407 -0.1637 -0.2662  0.1972
   83MOL   O13711781   0.279   6.087   7.587 -0.1504 -1.0228  0.7688
   83MOL   H13811782   0.350   6.273   7.623  0.8439 -0.5353  0.7060
   83MOL   H13911783   0.338   6.169   7.335 -0.5233  0.3717 -0.5809
   83MOL   H14011784   0.394   6.331   7.370 -0.2073 -0.2098  0.2448
   83MOL   H14111785   0.229   6.289   7.390 -0.1908 -0.4213  0.0016
   83MOL   H14211786   0.289   6.080   7.681  2.0004  1.5741  0.7968
   84MOL     C111787   6.682   6.772   6.844  0.4580 -0.0828  0.6176
   84MOL     C211788   6.771   6.873   6.915 -0.3019 -0.5586  0.5639
   84MOL     O311789   6.553   6.796   6.894  0.0976 -0.1326  0.4082
   84MOL     H411790   6.707   6.668   6.869  1.1648  0.1505  0.9006
   84MOL     H511791   6.753   6.870   7.023 -0.0203  0.7361  0.6554
   84MOL     H611792   6.755   6.975   6.882  0.7026  0.3593  2.7992
   84MOL     H711793   6.875   6.857   6.885 -0.0118 -0.5789  1.5390
   84MOL     H811794   6.685   6.794   6.738 -1.8360 -0.7170  0.3868
   84MOL     C911795   6.462   6.698   6.853  0.5420 -0.2457 -0.3396
   84MOL    C1011796   6.460   6.673   6.701 -0.4356  0.4657  0.1538
   84MOL    O1111797   6.483   6.576   6.922 -0.7647 -0.1100  0.2951
   84MOL    H1211798   6.364   6.732   6.886 -0.8146 -2.7008 -1.6752
   84MOL    H1311799   6.363   6.640   6.664 -1.2846  2.1600  0.8119
   84MOL    H1411800   6.538   6.597   6.690 -1.7776 -0.7808 -0.8991
   84MOL    H1511801   6.489   6.759   6.641  2.8320  0.9082  2.2013
   84MOL    C1611802   6.439   6.565   7.055 -0.0179  0.0992  0.0852
   84MOL    C1711803   6.307   6.495   7.040 -0.7483 -0.3153  0.2927
   84MOL    O1811804   6.527   6.487   7.127  0.0490 -0.1382 -0.2537
   84MOL    H1911805   6.412   6.662   7.097  1.4376  0.4712  0.2094
   84MOL    H2011806   6.243   6.559   6.980 -0.4147 -1.1613 -0.9809
   84MOL    H2111807   6.270   6.463   7.138  2.1665 -0.4805  1.4007
   84MOL    H2211808   6.338   6.406   6.986 -0.4911 -0.5034  0.7501
   84MOL    C2311809   6.655   6.547   7.147 -0.2591 -0.9388  0.3333
   84MOL    C2411810   6.658   6.603   7.288 -0.1761 -0.0097 -1.0737
   84MOL    O2511811   6.752   6.449   7.130  0.6991  0.2995  0.1405
   84MOL    H2611812   6.682   6.629   7.080  0.6691  0.8887  2.8664
   84MOL    H2711813   6.754   6.651   7.309 -0.1383 -0.7880  0.6025
   84MOL    H2811814   6.626   6.521   7.352 -2.3774  0.7269 -1.1758
   84MOL    H2911815   6.582   6.681   7.297  0.7800  1.0055 -1.5717
   84MOL    C3011816   6.767   6.420   7.000  0.3015 -0.6064  0.5483
   84MOL    C3111817   6.898   6.488   6.953  0.9901  0.0229  0.5347
   84MOL    O3211818   6.788   6.283   6.982  0.3078  0.1961  0.2707
   84MOL    H3311819   6.682   6.442   6.936  1.4280 -1.0765 -1.1617
   84MOL    H3411820   6.920   6.449   6.854 -1.0888  2.2002 -0.8224
   84MOL    H3511821   6.981   6.474   7.022 -0.5138  0.5090  2.5036
   84MOL    H3611822   6.898   6.597   6.954 -0.2378  0.0387 -0.4103
   84MOL    C3711823   6.672   6.201   6.979  0.3004  0.3817 -0.7038
   84MOL    C3811824   6.672   6.126   6.842 -0.3453  0.3963  0.2017
   84MOL    O3911825   6.685   6.096   7.078  0.1972 -0.3694 -0.2355
   84MOL    H4011826   6.581   6.255   7.005  0.3245 -1.1220  2.7667
   84MOL    H4111827   6.596   6.048   6.846 -0.8167  0.7590 -1.3437
   84MOL    H4211828   6.770   6.079   6.831 -1.1622 -0.9732 -1.3433
   84MOL    H4311829   6.662   6.202   6.765  1.2595  1.5940  1.1496
   84MOL    C4411830   6.663   6.139   7.213 -0.0980  0.5225  0.1904
   84MOL    C4511831   6.536   6.063   7.253 -0.0146 -1.0556  0.2117
   84MOL    O4611832   6.761   6.092   7.297  0.2568  0.1833  0.0494
   84MOL    H4711833   6.636   6.243   7.229 -1.9544  0.7138 -3.4778
   84MOL    H4811834   6.547   5.956   7.239 -1.7551 -1.2229  0.0213
   84MOL    H4911835   6.450   6.092   7.191  0.3023 -1.5084 -0.4436
   84MOL    H5011836   6.517   6.084   7.358 -2.5415  0.1192 -0.4137
   84MOL    C5111837   6.887   6.148   7.285  0.2314  0.1600  0.3063
   84MOL    C5211838   6.907   6.237   7.405  0.3608 -0.4595 -0.2097
   84MOL    O5311839   6.975   6.041   7.293 -0.1043  0.6615  0.4457
   84MOL    H5411840   6.913   6.198   7.192 -0.1304  0.4688  0.3716
   84MOL    H5511841   6.874   6.183   7.493 -0.4495 -0.2822 -0.4013
   84MOL    H5611842   6.846   6.324   7.384 -0.1803 -0.6204  0.7140
   84MOL    H5711843   7.013   6.265   7.411  0.1268  0.1254  1.4347
   84MOL    C5811844   7.005   5.975   7.175 -0.1533 -0.4001 -0.4443
   84MOL    C5911845   7.151   6.011   7.151  0.3803 -0.6102 -0.2977
   84MOL    O6011846   6.993   5.838   7.184  0.3909 -0.3693  0.0757
   84MOL    H6111847   6.929   5.997   7.099 -2.1305 -0.8957  1.3307
   84MOL    H6211848   7.169   6.118   7.138 -0.1311 -0.6931 -1.8153
   84MOL    H6311849   7.179   5.962   7.058 -0.4125  3.9303 -3.0741
   84MOL    H6411850   7.217   5.980   7.232  0.2406  1.8207  0.8140
   84MOL    C6511851   6.861   5.783   7.175 -0.9089 -0.1036  0.2595
   84MOL    C6611852   6.856   5.725   7.042  0.2270  0.5521  0.1795
   84MOL    O6711853   6.850   5.690   7.270 -0.0517 -0.1176 -0.1725
   84MOL    H6811854   6.778   5.854   7.186 -1.2400 -0.5400  0.6000
   84MOL    H6911855   6.874   5.794   6.959 -1.1880  1.2527  0.4432
   84MOL    H7011856   6.758   5.676   7.040  0.7604 -0.5440  0.3253
   84MOL    H7111857   6.932   5.647   7.042  1.3052  1.5860  0.9217
   84MOL    C7211858   6.813   5.749   7.392 -0.3407 -0.1265 -0.1863
   84MOL    C7311859   6.668   5.708   7.425  0.2747  0.2632  0.7045
   84MOL    O7411860   6.890   5.697   7.494  0.2092 -0.1160 -0.1889
   84MOL    H7511861   6.820   5.858   7.396  3.7165 -0.3810  3.1802
   84MOL    H7611862   6.662   5.601   7.443 -1.1295  0.3903  1.0920
   84MOL    H7711863   6.610   5.725   7.334  1.2315 -0.9107 -0.1388
   84MOL    H7811864   6.634   5.761   7.514  2.0260  2.8063 -0.0895
   84MOL    C7911865   7.016   5.753   7.492 -0.3030 -0.2312 -0.0565
   84MOL    C8011866   7.028   5.863   7.602 -0.0581  0.0482  0.1576
   84MOL    O8111867   7.118   5.670   7.514  0.2072  0.2113 -0.0699
   84MOL    H8211868   7.040   5.805   7.400  0.4528 -1.1637 -0.3935
   84MOL    H8311869   6.955   5.942   7.585  0.1947  0.0032 -1.1758
   84MOL    H8411870   7.127   5.908   7.600  1.5561 -3.3736 -2.8743
   84MOL    H8511871   7.018   5.807   7.695  0.9354 -1.4675 -0.6265
   84MOL    C8611872   7.172   5.613   7.398 -0.9038 -0.3535  0.2626
   84MOL    C8711873   7.291   5.698   7.360  0.0197 -0.8940 -0.0764
   84MOL    O8811874   7.229   5.490   7.420 -0.4892 -0.1226 -0.0440
   84MOL    H8911875   7.091   5.609   7.324 -0.6501  2.5593 -0.2347
   84MOL    H9011876   7.263   5.803   7.358  0.3927 -0.7881 -3.1189
   84MOL    H9111877   7.326   5.670   7.260 -2.0009 -1.2557 -0.7063
   84MOL    H9211878   7.367   5.687   7.437  0.1476 -2.7284 -0.4490
   84MOL    C9311879   7.143   5.382   7.407 -0.0253 -0.6354  0.3645
   84MOL    C9411880   7.209   5.278   7.323  0.2755  0.3178  0.9449
   84MOL    O9511881   7.118   5.327   7.529  0.0793 -0.0357  0.1152
   84MOL    H9611882   7.044   5.408   7.369 -0.6566  0.5013  2.6710
   84MOL    H9711883   7.219   5.321   7.223 -0.2760  0.3902  0.9247
   84MOL    H9811884   7.152   5.186   7.312 -0.5024  0.8252  0.7014
   84MOL    H9911885   7.312   5.260   7.356  1.3254 -0.5937 -2.5782
   84MOL   C10011886   7.006   5.374   7.598 -0.1867 -0.0093 -0.0646
   84MOL   C10111887   6.891   5.276   7.571 -0.0095  0.0914 -0.2519
   84MOL   O10211888   7.030   5.374   7.739  0.3320 -0.2927  0.3238
   84MOL   H10311889   6.979   5.477   7.572  1.8870  0.7351  0.5931
   84MOL   H10411890   6.863   5.267   7.466 -0.8348  2.5448 -0.2587
   84MOL   H10511891   6.805   5.313   7.627  0.6506  1.0917  0.1049
   84MOL   H10611892   6.915   5.175   7.605 -1.1885  0.5221  1.9233
   84MOL   C10711893   7.118   5.471   7.791  0.0173 -0.1641 -0.2506
   84MOL   C10811894   7.041   5.569   7.876 -0.3438 -0.1684 -0.0284
   84MOL   O10911895   7.213   5.411   7.874  0.5368 -0.0061 -0.3680
   84MOL   H11011896   7.167   5.530   7.714 -0.4960  2.1381  1.1422
   84MOL   H11111897   6.990   5.524   0.047 -0.1586 -0.5387 -0.1150
   84MOL   H11211898   6.978   5.639   7.821  0.7011 -0.6758 -1.9118
   84MOL   H11311899   7.114   5.641   7.912  0.4969 -0.6481 -0.7713
   84MOL   C11411900   7.311   5.334   7.811 -0.3412  0.3103 -0.4044
   84MOL   C11511901   7.443   5.411   7.838 -0.0851 -0.4063  0.3789
   84MOL   O11611902   7.333   5.211   7.878  0.1925 -0.3231  0.2112
   84MOL   H11711903   7.278   5.319   7.708  1.0225 -1.3303 -0.6262
   84MOL   H11811904   7.423   5.507   7.789  0.7939  0.3028  1.3788
   84MOL   H11911905   7.527   5.357   7.795 -0.9203 -1.2128 -0.2683
   84MOL   H12011906   7.458   5.425   0.031 -2.7840 -1.1186  0.8962
   84MOL   C12111907   7.226   5.124   7.852 -0.5942  0.1176 -0.1112
   84MOL   C12211908   7.272   5.018   7.753 -0.4400 -0.3418  0.0895
   84MOL   O12311909   7.196   5.060   0.059  0.3181 -0.5389  0.6356
   84MOL   H12411910   7.132   5.173   7.826 -0.6160  1.3028  2.0357
   84MOL   H12511911   7.357   4.968   7.799  0.6063  0.5147 -0.8896
   84MOL   H12611912   7.285   5.060   7.653 -2.4916  0.8925  0.3185
   84MOL   H12711913   7.203   4.934   7.741 -2.5233  1.2164  0.9558
   84MOL   C12811914   7.144   5.147   0.155  0.6414  0.3969 -0.6525
   84MOL   C12911915   6.992   5.169   0.132 -0.2010  0.5715 -0.1575
   84MOL   O13011916   7.162   5.094   0.283  0.2836  0.3156 -0.0031
   84MOL   H13111917   7.195   5.243   0.159 -1.0398  1.2992 -0.8848
   84MOL   H13211918   6.946   5.071   0.115 -0.9244  0.5569  1.7567
   84MOL   H13311919   6.980   5.232   0.043 -1.7314  0.8780  0.2405
   84MOL   H13411920   6.947   5.217   0.219 -0.8712 -1.1662  0.4825
   84MOL   C13511921   7.298   5.078   0.315 -0.6431 -0.2980  0.9698
   84MOL   C13611922   7.316   5.054   0.464 -0.1424 -0.3177 -0.2363
   84MOL   O13711923   7.346   4.971   0.242  0.4903 -0.6391 -0.4499
   84MOL   H13811924   7.356   5.166   0.287 -0.5623 -1.1399 -1.7009
   84MOL   H13911925   7.269   4.959   0.490  1.5660 -0.6239  1.8811
   84MOL   H14011926   7.263   5.126   0.525 -0.5134 -0.0615 -0.8625
   84MOL   H14111927   7.419   5.048   0.499 -0.1001  2.3664  0.1815
   84MOL   H14211928   7.356   4.992   0.150  0.1747  1.0865 -0.0917
   85MOL     C111929   6.144   7.311   1.936  0.1571  0.0122  0.4800
   85MOL     C211930   6.128   7.245   1.802 -0.5065  0.1246 -0.0728
   85MOL     O311931   6.040   7.409   1.939  0.2370 -0.3139 -0.0281
   85MOL     H411932   6.238   7.365   1.945  1.2080 -1.8049  0.6894
   85MOL     H511933   6.139   7.314   1.719  0.2131  1.0438  0.7759
   85MOL     H611934   6.042   7.181   1.782  0.8463 -1.5589 -0.6825
   85MOL     H711935   6.211   7.174   1.790 -0.7713  0.0077 -1.2261
   85MOL     H811936   6.136   7.232   2.011 -0.3919  0.2863  0.7123
   85MOL     C911937   6.056   7.492   2.053  0.4038  0.3940  0.0275
   85MOL    C1011938   5.922   7.561   2.074  0.3023  0.5370  0.0396
   85MOL    O1111939   6.089   7.417   2.170 -0.0398  0.2148  0.3677
   85MOL    H1211940   6.135   7.559   2.019  0.4382  0.2864 -0.1055
   85MOL    H1311941   5.892   7.622   1.988 -0.1936 -0.8097 -0.7584
   85MOL    H1411942   5.934   7.644   2.144 -0.3210  1.2238 -0.6536
   85MOL    H1511943   5.846   7.496   2.116  1.4996 -1.3494 -0.6671
   85MOL    C1611944   6.133   7.499   2.272 -0.6857 -0.5169 -1.0966
   85MOL    C1711945   6.160   7.408   2.396  0.3515  0.1572  0.0892
   85MOL    O1811946   6.255   7.547   2.237  0.1007  0.2865  0.4587
   85MOL    H1911947   6.067   7.581   2.300  0.4340  0.5337 -1.4744
   85MOL    H2011948   6.066   7.362   2.427  1.2372 -0.7643  1.4698
   85MOL    H2111949   6.209   7.469   2.472  1.4525  1.3377 -1.5276
   85MOL    H2211950   6.234   7.332   2.372  0.6926  0.0900  1.3108
   85MOL    C2311951   6.285   7.662   2.295 -0.5422 -0.5726  0.1989
   85MOL    C2411952   6.435   7.695   2.267  0.1236  0.3979 -0.3430
   85MOL    O2511953   6.210   7.773   2.244 -0.7527 -0.0081  0.0244
   85MOL    H2611954   6.269   7.655   2.403  0.3313  0.3385  0.4006
   85MOL    H2711955   6.509   7.630   2.313  1.5689  0.7998 -2.0400
   85MOL    H2811956   6.452   7.801   2.287  0.2895 -0.2272  3.2379
   85MOL    H2911957   6.461   7.696   2.161  0.9419  3.0705 -0.1546
   85MOL    C3011958   6.155   7.859   2.345 -0.5198  0.4683 -0.8918
   85MOL    C3111959   6.148   0.088   2.292  0.4363 -0.8012  0.2611
   85MOL    O3211960   6.026   7.811   2.365  1.3257  0.5637 -0.5230
   85MOL    H3311961   6.228   7.865   2.425  0.6275 -1.2480 -1.7605
   85MOL    H3411962   6.247   0.132   2.285 -0.0634  0.1748 -0.9119
   85MOL    H3511963   6.090   0.141   2.369 -2.1290 -0.7498 -1.6401
   85MOL    H3611964   6.104   0.087   2.192 -1.5768 -0.2024  1.1112
   85MOL    C3711965   6.002   7.791   2.499 -0.5788 -0.0826  0.0262
   85MOL    C3811966   5.856   7.805   2.520 -0.2716 -0.1435 -0.2497
   85MOL    O3911967   6.042   7.665   2.544 -0.9223  0.4674  0.2294
   85MOL    H4011968   6.046   7.867   2.563 -2.0383 -1.5526  2.8515
   85MOL    H4111969   5.804   7.725   2.466 -2.9493  0.2993  1.5419
   85MOL    H4211970   5.829   7.904   2.481  0.1301 -0.2818 -0.8797
   85MOL    H4311971   5.821   7.798   2.623 -0.3894  0.0263 -0.2777
   85MOL    C4411972   6.097   7.662   2.671  0.3582 -0.0153  0.5101
   85MOL    C4511973   6.091   7.516   2.731 -0.1338 -0.0269 -0.2483
   85MOL    O4611974   6.233   7.692   2.664 -0.2055  0.1297 -0.2014
   85MOL    H4711975   6.055   7.738   2.736 -0.4992 -0.2103  0.1871
   85MOL    H4811976   6.161   7.500   2.813  0.3821 -0.4685 -0.7754
   85MOL    H4911977   6.108   7.433   2.663  0.0634  1.0070 -1.4864
   85MOL    H5011978   5.986   7.507   2.759  0.4139 -0.9418  1.5801
   85MOL    C5111979   6.278   7.796   2.751 -0.1049  1.2974  1.0025
   85MOL    C5211980   6.425   7.775   2.764 -0.7708  0.3905 -0.6746
   85MOL    O5311981   6.256   0.002   2.681 -0.2180 -0.5718  0.2943
   85MOL    H5411982   6.217   7.795   2.842 -1.0285 -0.1354  0.3794
   85MOL    H5511983   6.475   7.824   2.848 -3.4487  1.0322  0.5836
   85MOL    H5611984   6.472   7.793   2.667  0.8285 -0.3096 -0.0541
   85MOL    H5711985   6.431   7.667   2.776 -1.4372  0.3178 -0.9954
   85MOL    C5811986   6.199   0.102   2.764  0.1463  1.1296  0.8143
   85MOL    C5911987   6.166   0.219   2.662  0.3135  0.0197  0.1824
   85MOL    O6011988   6.075   0.064   2.820  0.2021  0.1209 -0.2082
   85MOL    H6111989   6.276   0.127   2.837  0.2498  0.1555  1.0388
   85MOL    H6211990   6.083   0.188   2.600 -0.9472  0.7350  1.4824
   85MOL    H6311991   6.259   0.220   2.604 -0.8266 -0.9533 -1.6896
   85MOL    H6411992   6.149   0.316   2.709 -0.8204  0.6642 -1.5346
   85MOL    C6511993   6.051   0.125   2.942 -0.1903 -0.4464 -0.8129
   85MOL    C6611994   5.918   0.079   3.000  0.8470 -0.0291  0.0010
   85MOL    O6711995   6.161   0.085   3.034  0.1150 -0.3924  0.6687
   85MOL    H6811996   6.053   0.234   2.932  0.0849 -0.4493 -0.8070
   85MOL    H6911997   5.834   0.120   2.944  1.8190  1.8618 -0.0929
   85MOL    H7011998   5.909   0.103   3.106  1.8790 -2.4827  0.6940
   85MOL    H7111999   5.917   7.883   3.003  0.1846 -0.0167  0.5096
   85MOL    C7212000   6.202   0.189   3.114 -0.7741  0.5420  0.3926
   85MOL    C7312001   6.312   0.130   3.208  0.4439 -0.0780  0.0166
   85MOL    O7412002   6.264   0.291   3.042  0.4063  0.1454 -0.0288
   85MOL    H7512003   6.119   0.223   3.175 -0.1548 -0.5306  1.8689
   85MOL    H7612004   6.375   0.206   3.255 -0.5153 -1.3364  3.4879
   85MOL    H7712005   6.374   0.066   3.145 -0.6439  0.2288 -1.3980
   85MOL    H7812006   6.252   0.084   3.285  1.2661  0.4714  1.0004
   85MOL    C7912007   6.218   0.418   3.075 -0.1187 -0.1555  0.2768
   85MOL    C8012008   6.340   0.502   3.046  0.2318 -0.1535  0.1209
   85MOL    O8112009   6.110   0.463   3.001  0.4092 -0.6878 -0.2266
   85MOL    H8212010   6.209   0.427   3.183  0.5748  2.3971  0.1644
   85MOL    H8312011   6.345   0.601   3.090 -0.3029 -0.0930  0.0480
   85MOL    H8412012   6.363   0.503   2.939 -0.3550 -0.6921 -0.0200
   85MOL    H8512013   6.426   0.452   3.091 -0.0728 -1.1563 -0.3735
   85MOL    C8612014   5.997   0.512   3.067  0.1705 -0.2132  0.0759
   85MOL    C8712015   5.923   0.620   2.986 -0.0185  0.8676 -0.5981
   85MOL    O8812016   5.909   0.405   3.110 -0.3941 -0.2334 -0.1563
   85MOL    H8912017   6.046   0.567   3.147  0.9514  0.4403 -0.8487
   85MOL    H9012018   5.998   0.689   2.947 -0.8429  1.2745 -1.4872
   85MOL    H9112019   5.844   0.664   3.046  2.3657  3.5818  0.7029
   85MOL    H9212020   5.874   0.571   2.902  1.5406  1.1084 -1.6658
   85MOL    C9312021   5.833   0.435   3.226 -0.4840  0.5101 -0.2780
   85MOL    C9412022   5.739   0.316   3.258  0.0251 -0.3191 -0.3656
   85MOL    O9512023   5.927   0.461   3.326 -0.1461 -0.0572 -0.4578
   85MOL    H9612024   5.783   0.525   3.190  0.2025  1.4296  1.0179
   85MOL    H9712025   5.745   0.236   3.184  0.2266  0.3652 -1.0998
   85MOL    H9812026   5.636   0.347   3.270  0.7546  2.1813 -0.1945
   85MOL    H9912027   5.771   0.267   3.350 -2.3553 -1.6256 -0.2056
   85MOL   C10012028   5.874   0.547   3.421 -0.9474 -0.1399  0.1848
   85MOL   C10112029   5.938   0.514   3.552  0.3775  0.1214 -0.2205
   85MOL   O10212030   5.901   0.675   3.387  0.1787 -0.2997 -0.0257
   85MOL   H10312031   5.767   0.526   3.429 -0.9185  0.7300  3.3530
   85MOL   H10412032   5.894   0.424   3.593  2.3578 -0.8688 -0.1875
   85MOL   H10512033   5.915   0.590   3.627 -0.2067  1.5484 -1.8154
   85MOL   H10612034   6.047   0.520   3.543  0.3197  0.4086 -0.7285
   85MOL   C10712035   5.784   0.766   3.375  0.1080  0.5060  0.2758
   85MOL   C10812036   5.844   0.902   3.377 -0.3315  0.4229 -0.7700
   85MOL   O10912037   5.720   0.753   3.253 -0.0237  0.2305  0.0327
   85MOL   H11012038   5.720   0.750   3.461  0.8822 -2.0585  0.3926
   85MOL   H11112039   5.894   0.919   3.472 -0.5688  0.9863 -0.7458
   85MOL   H11212040   5.769   0.981   3.378  1.6067  2.2973 -0.0952
   85MOL   H11312041   5.917   0.918   3.298  1.4828  2.3658  1.2330
   85MOL   C11412042   5.583   0.737   3.264  0.2363  0.3725  0.0388
   85MOL   C11512043   5.517   0.772   3.127 -0.3140 -0.6343 -0.2552
   85MOL   O11612044   5.546   0.604   3.293  0.2158  0.2554  0.7540
   85MOL   H11712045   5.552   0.820   3.328 -3.0937  0.6812 -1.8523
   85MOL   H11812046   5.551   0.871   3.094  2.8430 -0.1446  4.0203
   85MOL   H11912047   5.409   0.759   3.130 -0.2734 -0.6182  3.6471
   85MOL   H12012048   5.558   0.699   3.057  1.1499  1.5961 -1.8185
   85MOL   C12112049   5.484   0.588   3.417  0.1665 -0.7647  0.2690
   85MOL   C12212050   5.332   0.602   3.395 -0.2748  0.6645 -0.2259
   85MOL   O12312051   5.505   0.460   3.465  0.3224  0.4209  0.1771
   85MOL   H12412052   5.523   0.661   3.488  1.0402 -0.3004 -0.6820
   85MOL   H12512053   5.304   0.699   3.353 -1.3659 -0.2536 -1.6373
   85MOL   H12612054   5.268   0.597   3.484 -2.4491  0.5098 -1.7515
   85MOL   H12712055   5.302   0.520   3.331  0.3721 -0.1858  0.5494
   85MOL   C12812056   5.501   0.454   3.611 -0.2193  1.0303  0.1886
   85MOL   C12912057   5.516   0.299   3.652  0.3394 -0.1064 -0.1121
   85MOL   O13012058   5.611   0.520   3.667 -0.1650 -0.3457  0.1984
   85MOL   H13112059   5.407   0.502   3.639  0.0580  1.4504  0.3953
   85MOL   H13212060   5.609   0.252   3.620  0.8237  0.3521  0.5833
   85MOL   H13312061   5.436   0.239   3.610  0.8614 -1.6670  1.0658
   85MOL   H13412062   5.535   0.292   3.759  1.0087 -1.4518 -0.3072
   85MOL   C13512063   5.586   0.588   3.788  0.2159  0.4600  0.4790
   85MOL   C13612064   5.715   0.653   3.836  0.3028 -0.2696 -0.3004
   85MOL   O13712065   5.487   0.685   3.779 -0.9010  0.1886 -0.6117
   85MOL   H13812066   5.550   0.514   3.860 -0.1621 -0.6399 -0.8256
   85MOL   H13912067   5.789   0.576   3.856  2.4182  2.6481  3.9831
   85MOL   H14012068   5.698   0.708   3.928 -1.6860 -1.7203  0.2263
   85MOL   H14112069   5.766   0.719   3.766  0.7972  0.8352  1.0848
   85MOL   H14212070   5.480   0.725   3.864 -1.1398  1.5499 -1.2524
   86MOL     C112071   5.663   7.878   5.362  0.4802 -0.3696  0.0672
   86MOL     C212072   5.635   0.100   5.427 -0.5453  0.8815  0.1472
   86MOL     O312073   5.794   7.854   5.414  0.3773 -0.1744  0.1163
   86MOL     H412074   5.670   7.890   5.254 -1.1706 -3.8138 -0.4859
   86MOL     H512075   5.703   0.174   5.384 -0.3276  1.4109  1.3981
   86MOL     H612076   5.649   0.087   5.534  2.8944 -0.4358 -0.3871
   86MOL     H712077   5.539   0.122   5.381 -1.3110 -2.2964  0.1156
   86MOL     H812078   5.593   7.798   5.389  0.9184 -0.9453 -0.5016
   86MOL     C912079   5.853   7.736   5.395 -0.8676 -0.6921  0.6730
   86MOL    C1012080   5.930   7.758   5.269 -0.2770  0.7928  0.1172
   86MOL    O1112081   5.941   7.707   5.501 -0.2445  0.5997 -0.1580
   86MOL    H1212082   5.786   7.651   5.379 -2.0003  0.4684 -0.9520
   86MOL    H1312083   5.994   7.846   5.279  0.0565  0.7450 -1.3949
   86MOL    H1412084   5.870   7.752   5.178 -0.4184 -1.2061  0.3158
   86MOL    H1512085   6.003   7.678   5.257 -0.7583  0.6284 -1.9222
   86MOL    C1612086   5.884   7.628   5.607  0.2365 -0.5800 -0.4263
   86MOL    C1712087   5.949   7.491   5.602 -0.0293 -0.3382  0.6939
   86MOL    O1812088   5.912   7.671   5.735 -0.0012  0.3667 -0.2361
   86MOL    H1912089   5.776   7.609   5.601  0.0462  0.6787 -1.0327
   86MOL    H2012090   5.887   7.421   5.657 -0.2519 -1.1346 -0.5523
   86MOL    H2112091   6.050   7.502   5.642  0.1081  0.2713  0.1929
   86MOL    H2212092   5.952   7.471   5.495  1.5994 -1.5778  0.9580
   86MOL    C2312093   5.856   7.796   5.759  0.0074  0.6586 -0.1797
   86MOL    C2412094   5.737   7.770   5.854  0.1804  0.1396 -0.0766
   86MOL    O2512095   5.946   7.866   5.829  0.1490 -0.1238 -0.6668
   86MOL    H2612096   5.830   7.849   5.668 -0.5135  0.4446 -0.1610
   86MOL    H2712097   5.720   7.869   5.897  0.0888  0.7739 -1.5581
   86MOL    H2812098   5.765   7.701   5.934 -2.5696 -0.1712  0.6714
   86MOL    H2912099   5.651   7.725   5.804  2.1631 -1.5796 -2.0685
   86MOL    C3012100   6.030   0.030   5.757  0.0255  0.6080  0.1425
   86MOL    C3112101   5.989   0.173   5.769  0.0718  0.0565 -0.4455
   86MOL    O3212102   6.163   0.013   5.795 -0.0751  0.1996  0.1896
   86MOL    H3312103   6.027   0.010   5.650 -2.0018  2.1178 -0.1118
   86MOL    H3412104   6.052   0.240   5.710  0.7889  3.0437  3.5059
   86MOL    H3512105   5.989   0.212   5.871  0.2358 -1.7562  0.2766
   86MOL    H3612106   5.884   0.192   5.746  0.2051  1.4084  0.0352
   86MOL    C3712107   6.211   7.797   5.809 -0.7813  0.2091 -0.4202
   86MOL    C3812108   6.285   7.759   5.681  0.7190  0.2855 -0.8889
   86MOL    O3912109   6.302   7.778   5.915 -0.0774 -0.8727  0.5890
   86MOL    H4012110   6.137   7.719   5.828  0.8871 -1.1506  0.6376
   86MOL    H4112111   6.219   7.763   5.595  2.1847  0.5186 -2.0223
   86MOL    H4212112   6.343   7.667   5.694  2.6270  1.8066  1.7692
   86MOL    H4312113   6.355   7.840   5.659 -0.3622  1.4588 -0.0522
   86MOL    C4412114   6.251   7.823   6.036  0.6720  0.8921  0.1401
   86MOL    C4512115   6.232   7.697   6.125 -0.4996 -0.4282  0.4040
   86MOL    O4612116   6.344   7.904   6.094 -0.0654 -0.8864 -0.3698
   86MOL    H4712117   6.152   7.868   6.024 -0.2516 -0.8512  0.8888
   86MOL    H4812118   6.169   7.634   6.062  1.1571 -1.4466 -0.2600
   86MOL    H4912119   6.177   7.746   6.205  0.8513  0.5779  0.7367
   86MOL    H5012120   6.324   7.645   6.151  0.2393  0.6660  0.0132
   86MOL    C5112121   6.333   0.118   6.057 -0.1260  0.6481  0.3922
   86MOL    C5212122   6.285   0.194   6.182  0.2515 -0.5026  0.2335
   86MOL    O5312123   6.454   0.174   6.029  0.0350  0.1886 -0.1475
   86MOL    H5412124   6.272   0.137   5.969  0.4784 -1.3862 -0.4953
   86MOL    H5512125   6.271   0.298   6.153 -1.4917 -1.2007 -1.5366
   86MOL    H5612126   6.351   0.183   6.268 -1.7851  1.1848  2.0934
   86MOL    H5712127   6.188   0.162   6.219  0.1675  0.1688  0.6160
   86MOL    C5812128   6.524   0.111   5.926  0.0599 -0.2482 -0.1778
   86MOL    C5912129   6.558   0.213   5.821  0.9933  0.6887  0.7943
   86MOL    O6012130   6.646   0.078   5.982 -0.1972  0.5169 -0.1528
   86MOL    H6112131   6.471   0.028   5.878 -0.8023  1.0988 -1.6024
   86MOL    H6212132   6.571   0.313   5.862 -0.9454  0.7834  1.2428
   86MOL    H6312133   6.479   0.214   5.746  2.1493  0.3507 -0.4329
   86MOL    H6412134   6.646   0.177   5.769  0.0346 -0.9971  0.3108
   86MOL    C6512135   6.666   7.856   6.002 -0.1647 -0.1760  0.6287
   86MOL    C6612136   6.765   7.812   5.889 -0.2079 -0.2593 -0.4477
   86MOL    O6712137   6.749   7.849   6.114  0.3314  0.4007 -0.3944
   86MOL    H6812138   6.584   7.785   6.015 -1.2820  0.9168 -0.3510
   86MOL    H6912139   6.817   7.718   5.905 -0.5366 -0.2052  1.0942
   86MOL    H7012140   6.839   7.890   5.870 -1.2874  0.5323 -1.5213
   86MOL    H7112141   6.713   7.809   5.794  0.6451 -1.0817 -0.8893
   86MOL    C7212142   6.679   7.897   6.229 -0.3864  0.1162 -0.3445
   86MOL    C7312143   6.638   7.779   6.321  0.2519  0.0236  0.7208
   86MOL    O7412144   6.769   0.063   6.301  0.2636 -0.0319  0.2113
   86MOL    H7512145   6.590   0.040   6.200 -0.2224  0.6341  0.1601
   86MOL    H7612146   6.720   7.746   6.385  2.1972  1.0777 -1.2191
   86MOL    H7712147   6.601   7.699   6.257  0.7994  0.1284  0.2741
   86MOL    H7812148   6.549   7.805   6.379 -0.0564  0.6190 -0.0211
   86MOL    C7912149   6.824   0.168   6.225 -0.5560  0.6852 -0.5938
   86MOL    C8012150   6.739   0.290   6.246 -0.2339 -0.4281  0.2418
   86MOL    O8112151   6.949   0.200   6.273 -0.1542 -0.2017  0.3687
   86MOL    H8212152   6.819   0.158   6.117 -0.2664  2.4301 -0.7933
   86MOL    H8312153   6.791   0.375   6.201 -0.3471 -0.6677 -0.3303
   86MOL    H8412154   6.734   0.303   6.355 -1.6291  0.2600  0.1119
   86MOL    H8512155   6.639   0.283   6.202 -0.8186 -2.5491  1.8131
   86MOL    C8612156   7.044   0.096   6.273 -0.0455 -0.1688  0.3101
   86MOL    C8712157   7.144   0.126   6.162  0.4077 -0.0228  0.0666
   86MOL    O8812158   7.115   0.097   6.398  0.7211 -0.3419 -0.1297
   86MOL    H8912159   6.994   7.913   6.261  0.0903 -0.5793  2.8873
   86MOL    H9012160   7.188   0.222   6.186 -0.2762  0.4619 -0.5979
   86MOL    H9112161   7.094   0.124   6.065  1.3455 -0.9488 -0.4100
   86MOL    H9212162   7.219   0.046   6.162  0.1075 -0.3271 -1.8881
   86MOL    C9312163   7.039   0.054   6.511 -0.0328  1.0112  0.0749
   86MOL    C9412164   7.132   7.867   6.579 -0.6144 -0.3200  0.3279
   86MOL    O9512165   7.021   0.155   6.607  0.4247 -0.2921  0.3676
   86MOL    H9612166   6.941   0.008   6.495  1.0100 -2.1838  2.3622
   86MOL    H9712167   7.236   7.898   6.569 -0.4616 -1.3612 -1.4865
   86MOL    H9812168   7.131   7.772   6.525 -3.2844 -0.0885 -0.1089
   86MOL    H9912169   7.106   7.855   6.684 -0.5000 -0.1052  0.3802
   86MOL   C10012170   6.907   0.237   6.585 -0.4891  0.4613  0.2479
   86MOL   C10112171   6.801   0.194   6.683 -0.3571 -0.2885 -0.4598
   86MOL   O10212172   6.932   0.365   6.624  0.3024  0.3261 -0.0307
   86MOL   H10312173   6.863   0.227   6.485  0.4533 -2.0779  0.0347
   86MOL   H10412174   6.772   0.090   6.668  1.5299 -1.0847  1.1567
   86MOL   H10512175   6.704   0.244   6.677 -0.4317 -0.3686 -0.0155
   86MOL   H10612176   6.836   0.196   6.787  0.1768 -1.1670 -0.6167
   86MOL   C10712177   7.018   0.437   6.552  0.2220  1.2068 -0.3392
   86MOL   C10812178   6.941   0.563   6.524 -0.3769 -0.2031  0.2008
   86MOL   O10912179   7.132   0.467   6.632 -0.2758  0.1156  0.3754
   86MOL   H11012180   7.045   0.389   6.458  1.1058 -0.5209  0.7807
   86MOL   H11112181   6.865   0.539   6.449  0.2238  0.2837 -0.5787
   86MOL   H11212182   7.004   0.640   6.481  0.4899  0.1269  2.0690
   86MOL   H11312183   6.898   0.604   6.615 -1.5398  1.5433 -1.0952
   86MOL   C11412184   7.236   0.376   6.631 -0.2933 -0.1946 -0.3855
   86MOL   C11512185   7.344   0.417   6.528 -0.3604  0.6864  0.1065
   86MOL   O11612186   7.305   0.390   6.759 -0.0602  0.1051 -0.0389
   86MOL   H11712187   7.209   0.274   6.607  1.5678 -0.9487  0.5824
   86MOL   H11812188   7.295   0.394   6.433 -0.4402 -2.8735  0.9209
   86MOL   H11912189   7.423   0.342   6.530 -0.7869  0.2501  1.2263
   86MOL   H12012190   7.384   0.518   6.528 -1.0500  0.9634 -0.9820
   86MOL   C12112191   7.243   0.322   6.858 -0.4291  0.3762  0.3708
   86MOL   C12212192   7.331   0.194   6.866  0.7700 -0.0253 -0.2814
   86MOL   O12312193   7.256   0.386   6.980  0.5273  0.4656  0.2054
   86MOL   H12412194   7.142   0.290   6.833  0.8196 -2.2867 -1.4977
   86MOL   H12512195   7.354   0.147   6.770  1.0363 -1.6062  0.5462
   86MOL   H12612196   7.292   0.127   6.942  1.7460 -1.4590 -1.0089
   86MOL   H12712197   7.433   0.224   6.890  0.9227 -0.3628 -0.4936
   86MOL   C12812198   7.193   0.511   6.986 -0.0211 -0.6126  0.1179
   86MOL   C12912199   7.107   0.505   7.111 -0.0692 -0.1638  0.1798
   86MOL   O13012200   7.278   0.625   6.994  0.1234 -0.5078 -0.3916
   86MOL   H13112201   7.121   0.512   6.904 -0.2764 -0.6220  0.3394
   86MOL   H13212202   7.173   0.475   7.193 -3.0390 -3.1223  1.6278
   86MOL   H13312203   7.034   0.424   7.107 -0.7704  0.5100 -0.9812
   86MOL   H13412204   7.058   0.601   7.125 -0.8551 -0.5886  0.3646
   86MOL   C13512205   7.322   0.690   6.874  1.0034  0.0696  0.1743
   86MOL   C13612206   7.348   0.838   6.923 -0.7080  0.0089 -0.1799
   86MOL   O13712207   7.439   0.636   6.816 -0.2021 -0.1442 -0.1473
   86MOL   H13812208   7.235   0.689   6.808  0.7118  0.1092  0.5559
   86MOL   H13912209   7.441   0.853   6.979  0.4665 -0.9680 -1.8139
   86MOL   H14012210   7.258   0.872   6.974 -1.5667 -2.7040  0.2072
   86MOL   H14112211   7.367   0.897   6.834  0.3732  0.7528  0.5305
   86MOL   H14212212   7.422   0.544   6.799 -0.7880 -0.5235  2.3449
   87MOL     C112213   2.560   0.316   2.705  0.9240 -0.0655 -0.3712
   87MOL     C212214   2.641   0.186   2.714  0.0461  0.1542 -0.1272
   87MOL     O312215   2.418   0.310   2.681  0.0443  0.6101  0.2615
   87MOL     H412216   2.616   0.367   2.627 -0.3478 -1.3525 -2.1757
   87MOL     H512217   2.605   0.117   2.790 -2.3330 -0.6502 -1.9317
   87MOL     H612218   2.745   0.201   2.744 -0.3598  0.3983  1.1875
   87MOL     H712219   2.653   0.133   2.620  0.3273 -0.8697  0.4817
   87MOL     H812220   2.576   0.375   2.796 -1.9081  1.4000 -0.7748
   87MOL     C912221   2.345   0.427   2.674  0.5758 -0.0715 -0.3736
   87MOL    C1012222   2.280   0.440   2.541 -0.2524 -0.4805  0.2305
   87MOL    O1112223   2.247   0.440   2.779 -0.2503  0.3232 -0.6237
   87MOL    H1212224   2.413   0.510   2.692 -1.5011  1.4654  0.6765
   87MOL    H1312225   2.220   0.355   2.509  1.9000 -1.9981  0.1483
   87MOL    H1412226   2.351   0.466   2.463 -1.9214 -0.6932 -1.3889
   87MOL    H1512227   2.207   0.522   2.544  0.2109 -0.1180  1.9917
   87MOL    C1612228   2.299   0.429   2.907 -0.4832 -0.3477  0.1350
   87MOL    C1712229   2.350   0.572   2.951 -0.8349  0.6154  0.3677
   87MOL    O1812230   2.203   0.391   2.998  0.1398 -0.0156  0.3134
   87MOL    H1912231   2.380   0.357   2.914  0.6833  0.9140 -0.0610
   87MOL    H2012232   2.439   0.596   2.894 -1.0826  0.4179 -0.1021
   87MOL    H2112233   2.366   0.564   3.059 -2.5901 -0.0728  0.6016
   87MOL    H2212234   2.279   0.653   2.932 -1.8405 -0.0819  1.1074
   87MOL    C2312235   2.154   0.263   2.962  0.1841  0.0844 -0.4796
   87MOL    C2412236   2.245   0.155   3.029  0.3526  0.1067  0.2394
   87MOL    O2512237   2.022   0.248   3.010  0.2529 -0.5305  0.2239
   87MOL    H2612238   2.153   0.244   2.854  2.5569 -2.1490 -0.1643
   87MOL    H2712239   2.245   0.167   3.137 -3.4985 -0.1589  0.3562
   87MOL    H2812240   2.346   0.165   2.990  1.0174  1.6207  2.3373
   87MOL    H2912241   2.217   0.056   2.991  1.5744  0.8111 -2.6489
   87MOL    C3012242   1.937   0.327   2.935 -0.2835 -0.1945 -1.0342
   87MOL    C3112243   1.847   0.227   2.856 -0.2695 -0.1956  0.3343
   87MOL    O3212244   1.845   0.390   3.010  0.4849 -0.4032  0.2705
   87MOL    H3312245   1.990   0.396   2.869  0.1787  1.1384  0.7201
   87MOL    H3412246   1.802   0.159   2.928 -1.1133  0.5370  0.5033
   87MOL    H3512247   1.921   0.167   2.803 -1.2323  0.3415 -1.6746
   87MOL    H3612248   1.783   0.272   2.781 -1.3183 -0.9843  0.7346
   87MOL    C3712249   1.900   0.483   3.094 -0.3230  0.8005 -0.9030
   87MOL    C3812250   1.932   0.621   3.030 -0.0222 -0.2750  0.1328
   87MOL    O3912251   1.809   0.504   3.195 -0.0152 -0.5008  0.0603
   87MOL    H4012252   1.988   0.447   3.148 -0.1912  1.8397 -0.4131
   87MOL    H4112253   1.964   0.701   3.097 -0.4896  1.0499 -1.1940
   87MOL    H4212254   1.844   0.659   2.978 -0.0702 -0.8451 -0.2074
   87MOL    H4312255   2.012   0.614   2.955 -1.4238  2.2825 -1.6953
   87MOL    C4412256   1.797   0.403   3.296  0.1271 -0.2998  0.3445
   87MOL    C4512257   1.884   0.438   3.412  0.4507  0.3189  0.2387
   87MOL    O4612258   1.665   0.405   3.334 -0.5914  0.2524 -0.8548
   87MOL    H4712259   1.827   0.309   3.248  2.3081  0.6346 -0.1766
   87MOL    H4812260   1.860   0.540   3.442  0.5865  0.1724  0.8494
   87MOL    H4912261   1.988   0.411   3.395  0.3586 -1.8268  2.8452
   87MOL    H5012262   1.851   0.363   3.484 -0.4337 -0.1461 -0.6324
   87MOL    C5112263   1.572   0.354   3.249 -0.4089 -0.3697  0.8096
   87MOL    C5212264   1.520   0.224   3.315  0.3081  0.5404  0.2776
   87MOL    O5312265   1.458   0.444   3.245 -0.1098 -0.0703 -0.1043
   87MOL    H5412266   1.616   0.330   3.152  0.6688  0.0067  1.1991
   87MOL    H5512267   1.595   0.145   3.315 -1.3430 -1.1977 -4.2997
   87MOL    H5612268   1.433   0.207   3.251  0.0599  0.8841  0.5243
   87MOL    H5712269   1.489   0.248   3.416  1.0577  1.1890  0.3595
   87MOL    C5812270   1.482   0.561   3.178  0.1876  0.1650 -0.2815
   87MOL    C5912271   1.368   0.564   3.067 -0.5673 -0.0172  0.8688
   87MOL    O6012272   1.454   0.673   3.260 -0.5742  0.8419 -0.0685
   87MOL    H6112273   1.583   0.567   3.137 -0.0312  2.7448 -0.5165
   87MOL    H6212274   1.379   0.654   3.007  0.7968  0.2127  1.4520
   87MOL    H6312275   1.267   0.559   3.108 -1.1472  0.2221 -0.4829
   87MOL    H6412276   1.376   0.476   3.004 -0.5408 -0.3645  1.3559
   87MOL    C6512277   1.556   0.716   3.347  0.1895 -0.8572 -0.3199
   87MOL    C6612278   1.607   0.850   3.282  0.5038 -0.2674 -0.2890
   87MOL    O6712279   1.505   0.739   3.477  0.0289 -0.0284 -1.2876
   87MOL    H6812280   1.644   0.651   3.349 -0.0993 -1.2157  1.3117
   87MOL    H6912281   1.539   0.935   3.287 -0.4871 -1.1218  1.7629
   87MOL    H7012282   1.630   0.829   3.178  0.5613  0.0735 -0.3443
   87MOL    H7112283   1.696   0.873   3.341  0.0310 -0.9759  0.7310
   87MOL    C7212284   1.475   0.619   3.543  0.1585  0.2585 -1.0973
   87MOL    C7312285   1.571   0.610   3.657 -0.5648  0.1290 -0.1957
   87MOL    O7412286   1.342   0.612   3.591 -0.1630 -0.1607  0.1697
   87MOL    H7512287   1.492   0.530   3.482  0.5004  0.7759 -1.7559
   87MOL    H7612288   1.675   0.598   3.625 -0.2729  4.8139 -1.2871
   87MOL    H7712289   1.539   0.534   3.729 -2.7309 -0.2247 -1.4928
   87MOL    H7812290   1.566   0.706   3.707 -0.1506  0.5814 -1.0196
   87MOL    C7912291   1.244   0.602   3.494 -0.2402  0.2010  0.5268
   87MOL    C8012292   1.163   0.476   3.538 -0.5359 -0.2108  0.0726
   87MOL    O8112293   1.158   0.718   3.502  0.2269  0.0991 -0.4194
   87MOL    H8212294   1.283   0.590   3.393 -1.5910 -1.7440  0.1984
   87MOL    H8312295   1.226   0.390   3.517 -1.8041 -0.8540 -1.2337
   87MOL    H8412296   1.085   0.471   3.461  0.3128  2.1514 -0.9761
   87MOL    H8512297   1.128   0.480   3.641 -0.2761  1.0673  0.1167
   87MOL    C8612298   1.199   0.820   3.418  0.4494 -0.4321  0.0445
   87MOL    C8712299   1.110   0.806   3.291 -0.3580 -0.6112  0.1724
   87MOL    O8812300   1.161   0.937   3.478  0.3339  0.4983  0.3379
   87MOL    H8912301   1.304   0.816   3.389  1.2805  2.2921  2.4894
   87MOL    H9012302   1.004   0.814   3.316 -0.7821 -4.5606 -0.0248
   87MOL    H9112303   1.127   0.708   3.246  3.7463  1.0085 -2.0269
   87MOL    H9212304   1.135   0.881   3.216  0.3174 -0.1227  0.8753
   87MOL    C9312305   1.229   0.963   3.597  0.2311  0.8428 -0.1037
   87MOL    C9412306   1.311   1.086   3.582 -0.3153 -0.1960  1.3738
   87MOL    O9512307   1.144   0.987   3.703 -0.3531 -0.4006 -0.4153
   87MOL    H9612308   1.290   0.876   3.621 -0.4316  0.6235  0.8072
   87MOL    H9712309   1.244   1.153   3.529  0.4311 -0.1414  0.4876
   87MOL    H9812310   1.394   1.066   3.514 -1.7438 -0.4552 -0.3133
   87MOL    H9912311   1.341   1.116   3.683  2.2922 -2.2587  1.2522
   87MOL   C10012312   1.094   0.880   3.773 -0.1595 -0.7919  0.5217
   87MOL   C10112313   1.125   0.909   3.919  0.0269  0.8999  0.2404
   87MOL   O10212314   0.955   0.880   3.776  0.0308 -0.0771  0.2362
   87MOL   H10312315   1.138   0.785   3.745  2.3642  0.3467  0.4757
   87MOL   H10412316   1.231   0.896   3.939 -0.0847  0.9057  0.8520
   87MOL   H10512317   1.060   0.855   3.987  1.1919  1.2716  1.6699
   87MOL   H10612318   1.109   1.015   3.941 -0.0378  0.5512  1.9352
   87MOL   C10712319   0.900   0.814   3.673  0.6946  0.4013  0.3522
   87MOL   C10812320   0.852   0.682   3.724 -0.1806 -0.0552  0.6517
   87MOL   O10912321   0.784   0.880   3.636  0.3628 -0.0104  0.0638
   87MOL   H11012322   0.958   0.801   3.581  0.2268  0.2923  0.0676
   87MOL   H11112323   0.936   0.629   3.768  0.8523 -0.0068 -1.2149
   87MOL   H11212324   0.804   0.625   3.645  1.3353  1.1293 -1.1522
   87MOL   H11312325   0.776   0.700   3.801  0.1385  0.0658  0.9375
   87MOL   C11412326   0.803   0.979   3.541 -0.2112 -0.0389  0.0448
   87MOL   C11512327   0.739   0.939   3.405  0.6871  0.6560 -0.2185
   87MOL   O11612328   0.757   1.103   3.576  0.4384  0.2147 -0.0114
   87MOL   H11712329   0.910   0.989   3.524 -0.1945  1.6941  1.1296
   87MOL   H11812330   0.635   0.910   3.418  1.0686 -0.1145  1.1702
   87MOL   H11912331   0.794   0.849   3.379 -0.9797 -0.5786  0.4419
   87MOL   H12012332   0.763   1.014   3.328 -0.4478  1.6557  0.3809
   87MOL   C12112333   0.856   1.177   3.646 -0.6988  0.3254  0.4652
   87MOL   C12212334   0.926   1.264   3.546 -0.2125 -0.3337 -0.0744
   87MOL   O12312335   0.792   1.262   3.741 -0.5712  0.4776 -0.4363
   87MOL   H12412336   0.926   1.115   3.702 -2.4110  0.2555  2.5766
   87MOL   H12512337   0.995   1.328   3.600 -1.3331 -0.2234  1.2539
   87MOL   H12612338   0.846   1.321   3.498  0.3992  0.4458 -0.1808
   87MOL   H12712339   0.978   1.202   3.473 -0.7792 -2.0009  0.9084
   87MOL   C12812340   0.734   1.197   3.850  0.0984 -0.1574 -0.3576
   87MOL   C12912341   0.832   1.190   3.967 -0.3811  0.1556 -0.4227
   87MOL   O13012342   0.620   1.264   3.892 -0.2181  0.0487  0.1281
   87MOL   H13112343   0.720   1.092   3.824  1.0896 -0.4490  0.2662
   87MOL   H13212344   0.821   1.285   4.021  2.2996  0.7714 -0.9266
   87MOL   H13312345   0.930   1.172   3.925  0.0842 -0.0739  0.7474
   87MOL   H13412346   0.812   1.107   4.034  0.5647  0.4276  0.1989
   87MOL   C13512347   0.507   1.236   3.818 -0.3953 -0.2946  0.5069
   87MOL   C13612348   0.391   1.324   3.871 -0.0278  0.1293 -0.7868
   87MOL   O13712349   0.527   1.248   3.674 -0.5561 -0.4695 -0.4594
   87MOL   H13812350   0.487   1.130   3.835  2.3975 -0.7541  1.2553
   87MOL   H13912351   0.381   1.296   3.976  1.3672 -2.1960 -1.2308
   87MOL   H14012352   0.297   1.306   3.819 -0.5757 -0.3649  0.3742
   87MOL   H14112353   0.416   1.429   3.864  2.8296 -0.5594 -1.3676
   87MOL   H14212354   0.593   1.190   3.640 -0.8541 -0.2996 -1.3404
   88MOL     C112355   7.722   4.542   3.372 -0.1933  1.3544  0.0945
   88MOL     C212356   7.800   4.659   3.341 -0.1965  0.1347  1.1458
   88MOL     O312357   7.598   4.545   3.313  0.1700 -0.1428 -0.2214
   88MOL     H412358   7.724   4.526   3.479 -0.5533  0.7191  0.0108
   88MOL     H512359   7.743   4.751   3.356 -1.1380 -0.5432  1.7558
   88MOL     H612360   7.829   4.645   3.237 -0.6396  0.1935  1.0094
   88MOL     H712361   7.887   4.655   3.406 -1.0169 -1.9333  2.1599
   88MOL     H812362   7.765   4.451   3.330 -0.6229  2.1104 -2.0593
   88MOL     C912363   7.517   4.434   3.340  0.0358  0.0891 -0.1253
   88MOL    C1012364   7.422   4.476   3.447  0.0358  0.5580  0.2833
   88MOL    O1112365   7.434   4.407   3.232 -0.7554  0.0407  0.0153
   88MOL    H1212366   7.572   4.344   3.368 -2.3467 -0.7947  1.8391
   88MOL    H1312367   7.339   4.407   3.462 -0.6788  1.6002  1.2755
   88MOL    H1412368   7.376   4.567   3.408 -2.5141 -0.8089  0.0103
   88MOL    H1512369   7.470   4.491   3.544 -0.7621 -0.4191  0.8293
   88MOL    C1612370   7.500   4.368   3.111  0.4342  0.0277 -0.3104
   88MOL    C1712371   7.512   4.220   3.113  0.1258 -0.5643  0.1722
   88MOL    O1812372   7.438   4.411   2.996  0.2107  0.8877  0.3108
   88MOL    H1912373   7.595   4.420   3.111  1.2339 -1.3944  1.4154
   88MOL    H2012374   7.452   4.167   3.186 -0.8468 -0.6630 -0.6909
   88MOL    H2112375   7.614   4.183   3.125 -1.0883 -3.4067  2.2813
   88MOL    H2212376   7.479   4.181   3.017  1.5399  0.4220 -0.7338
   88MOL    C2312377   7.416   4.555   3.000 -0.3169  0.3159  0.5097
   88MOL    C2412378   7.506   4.613   2.893  0.4051 -0.2302  0.3165
   88MOL    O2512379   7.291   4.588   2.957 -0.8319 -0.3611 -0.3331
   88MOL    H2612380   7.436   4.603   3.095 -0.4695  0.6512  0.3725
   88MOL    H2712381   7.502   4.722   2.887  2.1918 -0.1824 -0.3029
   88MOL    H2812382   7.481   4.563   2.799 -0.6502 -1.0179  0.9949
   88MOL    H2912383   7.608   4.586   2.918  0.0639 -1.2543  0.6235
   88MOL    C3012384   7.181   4.555   3.042  0.2626 -0.1696  0.0765
   88MOL    C3112385   7.119   4.685   3.098 -0.6459  0.6270 -0.0591
   88MOL    O3212386   7.082   4.506   2.952  0.1352 -0.4750  0.0362
   88MOL    H3312387   7.219   4.490   3.121  0.1950  0.2045  0.4160
   88MOL    H3412388   7.041   4.653   3.167 -0.2115 -1.9661 -0.7332
   88MOL    H3512389   7.072   4.744   3.020 -1.0329  0.6640  0.1991
   88MOL    H3612390   7.200   4.741   3.147 -0.0827 -1.5491  1.5907
   88MOL    C3712391   7.081   4.369   2.935  0.3241 -0.4785 -0.1126
   88MOL    C3812392   6.950   4.313   2.995  0.1146 -0.0956 -0.8674
   88MOL    O3912393   7.079   4.335   2.798  0.1519  0.1924  0.7501
   88MOL    H4012394   7.171   4.321   2.974  0.2007 -1.9966 -1.5944
   88MOL    H4112395   6.861   4.342   2.939 -1.0466  0.7655  1.3221
   88MOL    H4212396   6.950   4.351   3.097 -0.1930  0.2845 -1.0101
   88MOL    H4312397   6.939   4.204   2.996 -1.4818  0.0179 -2.8682
   88MOL    C4412398   7.203   4.355   2.732 -0.5377  0.3943 -0.0697
   88MOL    C4512399   7.255   4.214   2.709  0.3862  0.5505 -0.8050
   88MOL    O4612400   7.189   4.406   2.607  0.1949  0.3397 -0.3009
   88MOL    H4712401   7.273   4.418   2.787  2.7971 -3.0628 -0.1543
   88MOL    H4812402   7.352   4.213   2.660  0.0021 -1.6921 -1.5967
   88MOL    H4912403   7.175   4.158   2.661 -1.5618 -0.4883  3.4182
   88MOL    H5012404   7.270   4.168   2.806  0.9834 -1.0457 -1.6387
   88MOL    C5112405   7.179   4.544   2.604  0.2240  0.2212  0.0208
   88MOL    C5212406   7.293   4.590   2.519 -0.4763 -0.1410  0.6513
   88MOL    O5312407   7.056   4.578   2.536 -0.0613 -0.1981 -0.5122
   88MOL    H5412408   7.192   4.594   2.700  1.8338 -0.2299  0.0524
   88MOL    H5512409   7.288   4.545   2.420 -0.4882  0.3151  0.4391
   88MOL    H5612410   7.390   4.569   2.565  0.3049  0.3825 -0.7010
   88MOL    H5712411   7.287   4.699   2.527  1.3249  0.2881 -2.8826
   88MOL    C5812412   6.945   4.590   2.611 -0.1446  0.4501 -0.2214
   88MOL    C5912413   6.926   4.739   2.653  0.0053 -0.3051  0.3763
   88MOL    O6012414   6.830   4.552   2.558  0.5370  0.0591  0.0278
   88MOL    H6112415   6.953   4.538   2.706 -1.8064  1.5433  0.5409
   88MOL    H6212416   6.843   4.750   2.722  1.2664  2.4292  1.5545
   88MOL    H6312417   6.906   4.800   2.565  0.5203  0.1804  0.5872
   88MOL    H6412418   7.005   4.772   2.721  2.4101 -1.4477 -1.7671
   88MOL    C6512419   6.828   4.420   2.503 -0.5330 -0.6190 -0.5729
   88MOL    C6612420   6.708   4.358   2.575 -0.0055 -0.4138 -0.3960
   88MOL    O6712421   6.791   4.421   2.368 -0.2514 -0.1552  0.1963
   88MOL    H6812422   6.918   4.362   2.528  1.6331  2.2854 -1.3245
   88MOL    H6912423   6.712   4.376   2.683 -2.5741 -3.5910  0.3240
   88MOL    H7012424   6.714   4.249   2.571  1.4953 -0.4396  1.6313
   88MOL    H7112425   6.617   4.401   2.534 -0.1085  1.5492  1.7598
   88MOL    C7212426   6.906   4.423   2.287 -0.2241 -0.4095  0.7799
   88MOL    C7312427   6.936   4.281   2.244 -0.2810  0.1431 -0.3341
   88MOL    O7412428   6.887   4.484   2.165  0.4838  0.5715 -0.5150
   88MOL    H7512429   6.987   4.473   2.340  0.9800  0.3327 -1.6915
   88MOL    H7612430   6.995   4.227   2.318 -0.1768 -0.7102 -1.0235
   88MOL    H7712431   6.997   4.280   2.154 -1.0630  0.5699 -0.8758
   88MOL    H7812432   6.845   4.223   2.229  1.8317 -2.6543 -3.0061
   88MOL    C7912433   6.871   4.620   2.169 -0.4617 -0.6034 -0.5811
   88MOL    C8012434   6.953   4.680   2.044 -0.1441 -0.8376  0.3562
   88MOL    O8112435   6.736   4.669   2.152 -0.3886 -0.5215 -0.4818
   88MOL    H8212436   6.924   4.665   2.253 -0.5329 -0.1225 -0.7929
   88MOL    H8312437   7.058   4.659   2.061  0.0734  0.1551  0.2671
   88MOL    H8412438   6.924   4.785   2.037  0.2555 -0.7337  0.2802
   88MOL    H8512439   6.917   4.638   1.950  0.8899 -2.3449  0.6131
   88MOL    C8612440   6.653   4.683   2.265  0.1411 -0.0806  0.5705
   88MOL    C8712441   6.666   4.826   2.310 -0.0446 -0.1300  0.8241
   88MOL    O8812442   6.524   4.659   2.222  0.5967  0.4072 -0.3487
   88MOL    H8912443   6.678   4.613   2.344  0.1263  0.0668  0.7047
   88MOL    H9012444   6.769   4.847   2.337 -0.4386  2.3615  0.4978
   88MOL    H9112445   6.595   4.849   2.389  0.8061  0.1929  1.4940
   88MOL    H9212446   6.638   4.891   2.227  0.7853 -0.3374  0.3835
   88MOL    C9312447   6.499   4.531   2.174 -0.1120 -0.0185 -0.8288
   88MOL    C9412448   6.407   4.461   2.285  0.4118 -0.6570 -0.1968
   88MOL    O9512449   6.427   4.534   2.050 -0.4311  0.7509  0.2343
   88MOL    H9612450   6.588   4.468   2.171  0.1919  0.0242  3.5788
   88MOL    H9712451   6.376   4.363   2.251  0.3348 -2.0896  3.7020
   88MOL    H9812452   6.319   4.525   2.294  1.2293  0.3613  0.7254
   88MOL    H9912453   6.466   4.449   2.377  1.3295  0.8873 -0.5596
   88MOL   C10012454   6.520   4.538   1.942  0.8608 -0.2172 -0.3445
   88MOL   C10112455   6.512   4.413   1.856  0.7357  0.8866 -0.1001
   88MOL   O10212456   6.477   4.649   1.864 -1.1226 -0.2003  0.2061
   88MOL   H10312457   6.624   4.530   1.973 -0.0163  0.1440  2.9564
   88MOL   H10412458   6.549   4.324   1.907  0.8712  0.2314 -1.3151
   88MOL   H10512459   6.571   4.424   1.765  0.5383  0.8461 -0.2352
   88MOL   H10612460   6.410   4.398   1.819  2.4269 -1.1831 -4.3960
   88MOL   C10712461   6.516   4.778   1.909  0.0911 -0.1394 -0.0787
   88MOL   C10812462   6.618   4.823   1.811 -0.4987 -0.1710 -0.1304
   88MOL   O10912463   6.414   4.879   1.898 -0.2587  0.2715 -0.2033
   88MOL   H11012464   6.557   4.775   2.010  1.7928 -0.6399 -0.7587
   88MOL   H11112465   6.708   4.762   1.822 -1.2861 -1.4706 -0.7991
   88MOL   H11212466   6.640   4.929   1.816 -1.6480 -0.0089  1.7220
   88MOL   H11312467   6.574   4.804   1.713 -0.0569 -3.8395  0.3103
   88MOL   C11412468   6.306   4.866   1.986  0.7585 -0.2122  0.0442
   88MOL   C11512469   6.320   4.972   2.097  0.4689  0.1724 -0.3841
   88MOL   O11612470   6.191   4.904   1.921 -0.1824 -0.4971  0.2933
   88MOL   H11712471   6.299   4.768   2.035 -1.3518  0.9085  2.0746
   88MOL   H11812472   6.401   4.957   2.169  0.2992  3.6714  0.6506
   88MOL   H11912473   6.224   4.985   2.147  0.9607  1.3058  0.2932
   88MOL   H12012474   6.337   5.064   2.041 -1.2680 -1.6968 -4.1385
   88MOL   C12112475   6.152   4.816   1.818  0.1756  0.4508  0.1361
   88MOL   C12212476   6.030   4.738   1.869  1.0203  0.1218  0.2689
   88MOL   O12312477   6.103   4.883   1.709 -0.3722 -0.4315  0.5802
   88MOL   H12412478   6.235   4.756   1.784  0.6636  0.9874  0.3685
   88MOL   H12512479   5.956   4.810   1.906 -0.7277 -1.8984  0.7803
   88MOL   H12612480   6.058   4.661   1.941  0.5071 -0.1558  0.1696
   88MOL   H12712481   5.989   4.690   1.780  0.3376  2.7384 -0.8830
   88MOL   C12812482   6.206   4.942   1.625  0.0725 -0.4617 -0.5279
   88MOL   C12912483   6.225   4.863   1.501  0.0812 -0.0237 -0.1625
   88MOL   O13012484   6.174   5.074   1.594  1.2868  0.3254  0.7672
   88MOL   H13112485   6.301   4.939   1.678 -0.1861  2.6639  0.1901
   88MOL   H13212486   6.240   4.759   1.531  0.9341 -0.2051 -1.1844
   88MOL   H13312487   6.315   4.891   1.446  0.9064 -0.2435  1.0592
   88MOL   H13412488   6.146   4.880   1.428  0.8035  2.3544 -0.4343
   88MOL   C13512489   6.172   5.159   1.703 -0.1919  0.2099 -0.5599
   88MOL   C13612490   6.315   5.210   1.727 -0.7873  0.0056  0.3220
   88MOL   O13712491   6.092   5.270   1.670 -0.3943  0.3680  0.3889
   88MOL   H13812492   6.136   5.122   1.798 -1.1113 -0.3512 -1.1209
   88MOL   H13912493   6.359   5.243   1.633 -0.2082 -2.4026 -0.3030
   88MOL   H14012494   6.375   5.126   1.762 -1.4707 -0.8936 -0.6267
   88MOL   H14112495   6.322   5.275   1.814  1.4024 -0.6507  0.6672
   88MOL   H14212496   6.002   5.270   1.700 -0.9609 -0.5180 -1.2518
   89MOL     C112497   7.314   7.643   0.606 -0.3870 -0.1737  0.4067
   89MOL     C212498   7.176   7.587   0.563 -0.2191  0.8017 -0.1597
   89MOL     O312499   7.409   7.544   0.578  0.1923  0.3566 -0.6936
   89MOL     H412500   7.310   7.670   0.711  0.6952  1.1818  0.1199
   89MOL     H512501   7.099   7.663   0.576  0.3443  1.1344  1.2640
   89MOL     H612502   7.150   7.501   0.624  1.5768  0.5040  0.2148
   89MOL     H712503   7.180   7.572   0.455 -1.1758  0.7758 -0.2034
   89MOL     H812504   7.326   7.734   0.547  0.1667 -1.5262 -1.6126
   89MOL     C912505   7.542   7.576   0.595 -0.2465 -0.3442  0.5741
   89MOL    C1012506   7.582   7.579   0.743 -0.3641  0.3773 -0.5585
   89MOL    O1112507   7.630   7.478   0.535  0.7044  0.4380 -0.1249
   89MOL    H1212508   7.564   7.673   0.552  1.4776 -1.5201 -1.3164
   89MOL    H1312509   7.671   7.643   0.740 -0.3317  0.4059  0.7908
   89MOL    H1412510   7.596   7.478   0.781 -0.6286  0.6722  0.3441
   89MOL    H1512511   7.513   7.623   0.815 -0.2058 -1.5729  0.8337
   89MOL    C1612512   7.602   7.440   0.408  0.5434  0.6265 -0.0948
   89MOL    C1712513   7.689   7.529   0.310  0.1276  0.1750  0.4057
   89MOL    O1812514   7.639   7.300   0.387 -0.2555 -0.4767 -0.0744
   89MOL    H1912515   7.494   7.450   0.393  0.2835 -0.4860  0.9552
   89MOL    H2012516   7.796   7.510   0.321  0.1862  0.0126 -0.4594
   89MOL    H2112517   7.659   7.632   0.330 -2.1675 -0.5071  0.6815
   89MOL    H2212518   7.664   7.495   0.210  0.9159  1.4624 -0.2331
   89MOL    C2312519   7.568   7.216   0.474  0.2204  0.3982 -0.4217
   89MOL    C2412520   7.485   7.127   0.377 -0.3418 -0.6276  0.0286
   89MOL    O2512521   7.655   7.136   0.544  0.1456  0.4818 -0.0623
   89MOL    H2612522   7.499   7.263   0.543 -0.6015 -1.8233  0.3128
   89MOL    H2712523   7.417   7.057   0.425  0.5875 -0.1460  2.1542
   89MOL    H2812524   7.547   7.060   0.318  1.2896  0.6485  0.2637
   89MOL    H2912525   7.426   7.185   0.306 -1.7027 -2.0283 -0.0081
   89MOL    C3012526   7.724   7.207   0.645 -0.2057  0.3464 -0.2271
   89MOL    C3112527   7.677   7.151   0.777  0.1983  0.1078 -1.0204
   89MOL    O3212528   7.860   7.180   0.655 -0.0402  0.6061  0.2109
   89MOL    H3312529   7.722   7.315   0.637 -0.8502  0.1790 -2.3934
   89MOL    H3412530   7.575   7.189   0.786 -0.6132 -1.7075 -2.2448
   89MOL    H3512531   7.733   7.205   0.853 -1.3300 -1.8897  1.5936
   89MOL    H3612532   7.679   7.043   0.784  0.4569  0.0612 -1.7506
   89MOL    C3712533   0.024   7.251   0.554  0.5482  0.5445  0.0343
   89MOL    C3812534   0.104   7.360   0.624 -0.3648 -1.1450 -0.5231
   89MOL    O3912535   0.118   7.181   0.478 -0.2700 -0.2020 -0.2283
   89MOL    H4012536   7.866   7.292   0.483  1.3450  0.4174 -0.8466
   89MOL    H4112537   0.175   7.321   0.697  1.0043 -1.7998 -2.1731
   89MOL    H4212538   0.033   7.419   0.682 -1.8733 -1.2518 -2.2009
   89MOL    H4312539   0.158   7.429   0.559 -1.1497  1.8707  1.9225
   89MOL    C4412540   0.066   7.098   0.381 -0.1777  0.2898 -0.2450
   89MOL    C4512541   0.118   7.141   0.246  0.2537 -0.0430 -0.0167
   89MOL    O4612542   0.113   6.970   0.416 -1.0850  0.1634 -0.6248
   89MOL    H4712543   7.871   7.095   0.389 -0.1004  0.3425  0.9171
   89MOL    H4812544   0.084   7.243   0.224 -1.2765 -0.9146 -1.8066
   89MOL    H4912545   0.084   7.076   0.166  0.9020  1.3592 -1.4558
   89MOL    H5012546   0.226   7.128   0.252  0.1536 -1.1979 -0.6687
   89MOL    C5112547   0.028   6.902   0.509  0.2901  0.0534  0.4436
   89MOL    C5212548   7.861   6.789   0.437  0.0939 -0.3096  0.3809
   89MOL    O5312549   0.103   6.836   0.606  0.0112 -0.4633  0.0130
   89MOL    H5412550   7.870   6.962   0.564 -0.7957 -0.7575 -0.0517
   89MOL    H5512551   7.775   6.813   0.373  0.3876 -2.8812 -1.0809
   89MOL    H5612552   7.822   6.721   0.513  0.2976 -2.2534 -1.1912
   89MOL    H5712553   0.023   6.740   0.375  0.1386  0.8413 -0.4910
   89MOL    C5812554   0.167   6.927   0.688  0.7005  0.3172 -0.1225
   89MOL    C5912555   0.086   6.929   0.824 -0.0900 -0.0516 -0.2739
   89MOL    O6012556   0.297   6.898   0.720  0.5729  0.4453  0.0692
   89MOL    H6112557   0.157   7.029   0.651  2.3725  1.0228  1.3002
   89MOL    H6212558   0.108   6.833   0.870  1.0331 -1.6782 -4.0865
   89MOL    H6312559   7.894   6.927   0.798  0.0313  0.1766 -0.7795
   89MOL    H6412560   0.107   7.012   0.891  1.6289 -1.8027  1.4198
   89MOL    C6512561   0.385   6.916   0.612 -0.4477 -0.3146  0.8500
   89MOL    C6612562   0.488   7.018   0.680 -0.1698  0.6592 -0.0331
   89MOL    O6712563   0.455   6.795   0.591 -0.0725 -0.1143  0.0204
   89MOL    H6812564   0.348   6.957   0.518 -1.6259 -1.8578  0.6100
   89MOL    H6912565   0.565   6.973   0.742  0.6299  1.8244 -0.1669
   89MOL    H7012566   0.431   7.081   0.747 -0.5419  0.7711 -0.4456
   89MOL    H7112567   0.551   7.070   0.608  0.7753 -1.4731 -0.7978
   89MOL    C7212568   0.396   6.720   0.491  0.0658  0.0060  0.4929
   89MOL    C7312569   0.471   6.748   0.362 -0.2054  0.8921  0.1023
   89MOL    O7412570   0.417   6.587   0.519 -0.0940  0.2362 -0.1282
   89MOL    H7512571   0.291   6.745   0.474 -0.4156 -1.4854  1.2418
   89MOL    H7612572   0.578   6.730   0.374 -0.6141 -0.0631  2.7156
   89MOL    H7712573   0.454   6.851   0.332  0.0903  1.8001  2.8419
   89MOL    H7812574   0.444   6.678   0.283  0.8446  0.7591 -0.1505
   89MOL    C7912575   0.338   6.536   0.621 -0.1903  0.6917 -0.4768
   89MOL    C8012576   0.230   6.443   0.563 -0.8784  0.0414  0.2773
   89MOL    O8112577   0.412   6.460   0.715  0.2853 -0.4102 -0.0290
   89MOL    H8212578   0.282   6.620   0.661  1.6843  1.8858 -0.2862
   89MOL    H8312579   0.175   6.392   0.642 -0.9365 -1.9725 -1.0301
   89MOL    H8412580   0.288   6.374   0.501 -0.5767  0.3387  0.2267
   89MOL    H8512581   0.175   6.498   0.487 -1.8016  3.3723  3.2039
   89MOL    C8612582   0.475   6.545   0.811 -0.0183  0.4581 -0.0721
   89MOL    C8712583   0.414   6.504   0.944  0.0191  0.4689  0.3514
   89MOL    O8812584   0.615   6.519   0.818 -0.4388  0.0622  0.0015
   89MOL    H8912585   0.458   6.652   0.799  0.1555  0.7260  1.9636
   89MOL    H9012586   0.444   6.400   0.957 -2.2956 -0.1532  0.9705
   89MOL    H9112587   0.306   6.515   0.949 -0.3882 -0.8617 -3.7304
   89MOL    H9212588   0.455   6.562   1.026 -1.5387  1.2035  0.6316
   89MOL    C9312589   0.686   6.592   0.719 -0.3497 -0.1152 -0.3178
   89MOL    C9412590   0.760   6.699   0.800 -0.2732  0.4319  0.7237
   89MOL    O9512591   0.783   6.501   0.665 -0.0425  0.2143  0.4244
   89MOL    H9612592   0.631   6.635   0.635  1.1847  1.5788 -0.4870
   89MOL    H9712593   0.814   6.656   0.884 -0.4777  1.0702  1.1821
   89MOL    H9812594   0.690   6.776   0.833  0.6012  0.5830  2.2986
   89MOL    H9912595   0.832   6.751   0.736  0.0761 -3.0866 -1.9261
   89MOL   C10012596   0.720   6.407   0.583  0.1139  0.7591 -0.7474
   89MOL   C10112597   0.783   6.417   0.450 -0.4774 -0.1840 -0.1142
   89MOL   O10212598   0.747   6.277   0.622  0.0454  0.1772  0.7963
   89MOL   H10312599   0.612   6.418   0.571 -0.0059 -0.6332 -1.0907
   89MOL   H10412600   0.741   6.506   0.404 -0.7222 -0.4229 -0.3465
   89MOL   H10512601   0.742   6.344   0.380 -1.4112 -0.5372  0.7972
   89MOL   H10612602   0.892   6.423   0.449 -0.4784 -0.0883  0.2147
   89MOL   C10712603   0.669   6.218   0.718  0.1327  0.9610 -0.1337
   89MOL   C10812604   0.597   6.103   0.641 -0.0564  0.0723  0.1760
   89MOL   O10912605   0.745   6.160   0.824  0.0665 -0.5126 -0.1256
   89MOL   H11012606   0.597   6.289   0.759  0.2322  0.6159  0.6442
   89MOL   H11112607   0.508   6.148   0.599  0.2300  2.2456  1.7946
   89MOL   H11212608   0.559   6.031   0.714  0.4999  1.5452  1.9645
   89MOL   H11312609   0.661   6.054   0.568  0.8461 -0.4404  1.2818
   89MOL   C11412610   0.814   6.252   0.906  0.2492 -0.6764  0.3571
   89MOL   C11512611   0.760   6.254   1.047  0.2869 -0.9222 -0.4226
   89MOL   O11612612   0.948   6.200   0.918 -0.7339  0.0030 -0.0283
   89MOL   H11712613   0.816   6.349   0.857  1.3585 -0.7435  0.2580
   89MOL   H11812614   0.663   6.305   1.052  1.3824  1.1742 -0.2838
   89MOL   H11912615   0.815   6.309   1.123 -2.7833 -1.6356  2.4576
   89MOL   H12012616   0.744   6.150   1.077 -0.1357 -1.1525 -1.4136
   89MOL   C12112617   1.023   6.209   0.798 -0.2566 -0.5284 -0.0894
   89MOL   C12212618   1.112   6.332   0.826  0.5982 -0.6305  0.6678
   89MOL   O12312619   1.105   6.103   0.775 -0.7646  0.4072  0.2168
   89MOL   H12412620   0.959   6.216   0.710 -2.2675 -0.1180  1.3561
   89MOL   H12512621   1.053   6.424   0.825  0.4442 -0.7376 -0.4483
   89MOL   H12612622   1.174   6.335   0.737  2.0744 -1.1170  1.6579
   89MOL   H12712623   1.177   6.326   0.914 -1.3026 -0.3298  2.1327
   89MOL   C12812624   1.041   5.979   0.761 -0.1515  0.4488  0.4968
   89MOL   C12912625   1.092   5.905   0.644  0.5521 -0.0409 -0.2581
   89MOL   O13012626   1.045   5.895   0.872  0.4204 -0.2569 -0.1286
   89MOL   H13112627   0.936   6.004   0.741 -0.1027  0.5385  0.3485
   89MOL   H13212628   1.199   5.892   0.660  0.4015 -1.0057 -0.0545
   89MOL   H13312629   1.076   5.969   0.557  1.6655  1.3008  0.5042
   89MOL   H13412630   1.044   5.808   0.635  2.1285 -0.9858  1.3354
   89MOL   C13512631   0.956   5.922   0.968 -0.3405  0.2577 -0.1306
   89MOL   C13612632   0.923   5.784   1.028 -0.5772 -0.0058 -0.2033
   89MOL   O13712633   1.012   5.998   1.078 -0.4642  0.2957  1.4018
   89MOL   H13812634   0.866   5.979   0.942 -0.0634  1.2655  1.0397
   89MOL   H13912635   0.843   5.787   1.103  0.3569  1.2316  0.7632
   89MOL   H14012636   1.005   5.737   1.082 -0.2555  0.4350 -0.3070
   89MOL   H14112637   0.894   5.713   0.950  1.3575 -3.1381  1.8082
   89MOL   H14212638   1.029   6.084   1.044 -1.9191  0.5835  1.3664
   90MOL     C112639   2.443   2.314   6.305 -0.8498  0.2384 -0.0298
   90MOL     C212640   2.340   2.208   6.260  0.0917  0.4713  0.3244
   90MOL     O312641   2.378   2.436   6.339 -0.4623  0.3273 -0.0705
   90MOL     H412642   2.513   2.333   6.224  0.1374  0.9801  0.9770
   90MOL     H512643   2.264   2.188   6.335  0.0640  1.1107  0.4748
   90MOL     H612644   2.387   2.110   6.247 -1.7184 -0.1026 -2.1741
   90MOL     H712645   2.294   2.249   6.170 -0.3465  0.6056  0.6081
   90MOL     H812646   2.510   2.267   6.378  1.0756  2.6810 -0.1472
   90MOL     C912647   2.458   2.534   6.376 -0.9721  0.0572  0.3267
   90MOL    C1012648   2.478   2.613   6.250  0.0202 -0.4805 -0.0874
   90MOL    O1112649   2.398   2.618   6.472 -0.2352  0.4443 -0.1224
   90MOL    H1212650   2.556   2.497   6.404 -0.2919  2.4561  1.3322
   90MOL    H1312651   2.544   2.562   6.181 -0.9672  0.0037 -1.4201
   90MOL    H1412652   2.533   2.703   6.277  0.6272 -0.7756 -0.3312
   90MOL    H1512653   2.385   2.637   6.198  1.5183  0.4513 -2.4067
   90MOL    C1612654   2.371   2.552   6.590 -0.1724  0.2562 -0.6833
   90MOL    C1712655   2.470   2.593   6.696  0.0696  0.2056 -0.1750
   90MOL    O1812656   2.253   2.593   6.647  0.2110 -0.2678 -0.1336
   90MOL    H1912657   2.379   2.443   6.580  0.6366  0.2246  0.1781
   90MOL    H2012658   2.445   2.691   6.739 -0.3880 -0.6940  1.6575
   90MOL    H2112659   2.565   2.613   6.646 -0.3885 -0.4900 -1.3287
   90MOL    H2212660   2.481   2.517   6.773 -1.5862  0.2171  0.0846
   90MOL    C2312661   2.136   2.543   6.582  0.7033 -0.4956 -0.2565
   90MOL    C2412662   2.084   2.425   6.666  0.6969 -0.3145 -0.7221
   90MOL    O2512663   2.036   2.647   6.577  0.3158  0.1126 -0.0152
   90MOL    H2612664   2.150   2.513   6.478 -1.0999  1.4258 -1.0796
   90MOL    H2712665   2.069   2.468   6.765 -1.3752  1.8598 -1.9290
   90MOL    H2812666   2.157   2.344   6.663 -1.0234 -1.8633 -0.8189
   90MOL    H2912667   1.987   2.394   6.628 -0.2002  1.0606  0.4111
   90MOL    C3012668   2.056   2.747   6.476  0.0971  0.7434 -0.3081
   90MOL    C3112669   1.943   2.735   6.365  0.1434  0.5101 -0.1643
   90MOL    O3212670   2.059   2.876   6.516  0.4361  0.2142 -0.9679
   90MOL    H3312671   2.153   2.731   6.428 -0.6758 -1.1558 -1.2609
   90MOL    H3412672   1.955   2.802   6.279 -2.2206  1.3709  0.1431
   90MOL    H3512673   1.843   2.742   6.409 -0.2865 -0.7221 -0.9356
   90MOL    H3612674   1.949   2.632   6.331  1.3822 -0.1111  1.8473
   90MOL    C3712675   2.156   2.917   6.606 -0.1876  0.8765  1.0894
   90MOL    C3812676   2.247   3.011   6.526  0.4279  0.6967 -0.5775
   90MOL    O3912677   2.111   2.980   6.721  0.0426  0.1039 -0.0202
   90MOL    H4012678   2.228   2.840   6.634 -0.4408  0.2341  0.0217
   90MOL    H4112679   2.345   3.026   6.572  0.3718  1.6239 -0.7664
   90MOL    H4212680   2.200   3.109   6.526 -0.3966  0.3377 -2.9344
   90MOL    H4312681   2.261   2.974   6.424  1.3120  2.1234 -0.9778
   90MOL    C4412682   2.067   2.895   6.820  0.5366 -0.2370 -0.1745
   90MOL    C4512683   2.143   2.923   6.948 -0.1618  0.0781 -0.5382
   90MOL    O4612684   1.940   2.930   6.859  0.2085  0.1221  0.0306
   90MOL    H4712685   2.079   2.789   6.799  1.3365 -0.2369  0.2485
   90MOL    H4812686   2.112   2.857   7.030 -1.0864 -0.7520 -1.5415
   90MOL    H4912687   2.149   3.027   6.981  0.0755  0.0307 -0.4344
   90MOL    H5012688   2.246   2.892   6.931  0.4678  1.3924  0.7419
   90MOL    C5112689   1.843   2.916   6.763  0.4807 -0.8764  1.1277
   90MOL    C5212690   1.751   2.791   6.812 -0.4688  0.7922 -0.3943
   90MOL    O5312691   1.754   3.018   6.761  0.0949  0.2537 -0.1163
   90MOL    H5412692   1.887   2.901   6.665 -0.0557 -0.0333  0.7513
   90MOL    H5512693   1.813   2.702   6.822 -0.0410  0.9126 -1.9256
   90MOL    H5612694   1.670   2.771   6.742 -0.7795  0.0407  0.1753
   90MOL    H5712695   1.705   2.823   6.905 -0.0093 -1.8131  0.7730
   90MOL    C5812696   1.807   3.138   6.712 -0.2133  0.1609  0.4382
   90MOL    C5912697   1.781   3.142   6.562  0.4435 -0.2143  0.4556
   90MOL    O6012698   1.735   3.250   6.760  1.1969 -0.6301  0.2228
   90MOL    H6112699   1.914   3.147   6.732  0.2354 -0.6203 -1.4712
   90MOL    H6212700   1.808   3.242   6.529 -0.4153 -0.2995 -0.5181
   90MOL    H6312701   1.677   3.119   6.541 -0.0923  1.7997  0.7535
   90MOL    H6412702   1.829   3.060   6.508 -1.7034 -1.7669  0.8465
   90MOL    C6512703   1.774   3.294   6.878 -0.1644 -0.0213 -0.1163
   90MOL    C6612704   1.793   3.181   6.986 -0.6180 -0.8025  0.1783
   90MOL    O6712705   1.894   3.368   6.865  0.0448  0.3597 -1.1061
   90MOL    H6812706   1.703   3.364   6.922  0.2147  0.5631 -0.4326
   90MOL    H6912707   1.814   3.234   7.079 -0.8649  1.8954 -1.2388
   90MOL    H7012708   1.881   3.122   6.959 -0.7246  0.1503 -2.4135
   90MOL    H7112709   1.709   3.112   6.983 -0.2713 -1.1835 -1.5485
   90MOL    C7212710   1.896   3.472   6.783 -0.0526  0.3078  1.2059
   90MOL    C7312711   1.805   3.591   6.839 -0.2370  0.1849  0.2801
   90MOL    O7412712   2.025   3.532   6.773 -0.1172  0.5667  0.1203
   90MOL    H7512713   1.864   3.442   6.684  0.3462  2.2550  0.4538
   90MOL    H7612714   1.834   3.610   6.942 -0.7713  2.5856  0.0241
   90MOL    H7712715   1.698   3.583   6.823 -0.3449 -0.7923  1.4353
   90MOL    H7812716   1.833   3.674   6.774  0.1448 -1.0772 -1.2125
   90MOL    C7912717   2.121   3.461   6.693  0.0218  0.3532 -0.7247
   90MOL    C8012718   2.154   3.551   6.580  0.1482  0.5655  0.1538
   90MOL    O8112719   2.237   3.436   6.773  0.0560  0.0595 -0.4161
   90MOL    H8212720   2.093   3.364   6.652  1.7378 -0.9221  1.0330
   90MOL    H8312721   2.220   3.633   6.609 -0.3025  1.1140 -0.3770
   90MOL    H8412722   2.066   3.596   6.536  0.4621  0.3428 -0.7174
   90MOL    H8512723   2.215   3.497   6.507  0.6340 -1.0993  1.7363
   90MOL    C8612724   2.225   3.325   6.857 -0.6491  0.7606 -0.2712
   90MOL    C8712725   2.335   3.215   6.821 -0.1546  0.3805  0.1216
   90MOL    O8812726   2.250   3.363   6.995 -0.1737  0.0335  0.3513
   90MOL    H8912727   2.132   3.268   6.860  0.5851 -1.3621 -1.4186
   90MOL    H9012728   2.342   3.140   6.899 -2.9323  0.1295  0.1907
   90MOL    H9112729   2.435   3.255   6.802 -0.0437 -0.5608 -1.4424
   90MOL    H9212730   2.310   3.158   6.731  1.7182 -0.2884  0.0035
   90MOL    C9312731   2.148   3.421   7.067  0.9092  0.6323  0.4992
   90MOL    C9412732   2.074   3.306   7.133  0.1169 -0.3316  0.0044
   90MOL    O9512733   2.204   3.498   7.160 -0.1558  0.4199  0.0010
   90MOL    H9612734   2.077   3.471   7.000  0.7952 -1.3701 -0.9056
   90MOL    H9712735   1.979   3.336   7.177  0.0768 -0.6078  0.1108
   90MOL    H9812736   2.128   3.275   7.222  0.2967 -1.4359 -0.4785
   90MOL    H9912737   2.060   3.228   7.058 -1.0742 -0.1276 -0.0059
   90MOL   C10012738   2.266   3.609   7.102  0.1556  0.8587 -0.2222
   90MOL   C10112739   2.169   3.727   7.104  0.2286  0.5250 -0.6421
   90MOL   O10212740   2.369   3.652   7.178  0.4051  0.1714 -0.0840
   90MOL   H10312741   2.296   3.595   6.998 -3.2235  0.5240 -1.2081
   90MOL   H10412742   2.153   3.758   7.207 -0.6368  1.6838 -1.1231
   90MOL   H10512743   2.074   3.696   7.063 -1.2210 -0.1754  3.0514
   90MOL   H10612744   2.213   3.807   7.045  1.1797 -1.0751 -2.1384
   90MOL   C10712745   2.496   3.591   7.158 -0.3292  0.3930 -0.2685
   90MOL   C10812746   2.592   3.687   7.082 -0.2884 -0.0450  0.4837
   90MOL   O10912747   2.556   3.567   7.284  0.8974  0.6648  0.2177
   90MOL   H11012748   2.482   3.495   7.109 -0.4812  0.9942 -1.4292
   90MOL   H11112749   2.672   3.637   7.027 -2.3775 -0.6668 -2.0450
   90MOL   H11212750   2.633   3.761   7.151  1.0682  0.9638 -1.3387
   90MOL   H11312751   2.533   3.745   7.011  1.3727 -3.0410 -3.5199
   90MOL   C11412752   2.504   3.458   7.359 -0.5987  0.6001 -0.5452
   90MOL   C11512753   2.600   3.336   7.345 -0.1509  0.2966  0.1942
   90MOL   O11612754   2.485   3.484   7.496 -0.2366 -0.1970  0.2187
   90MOL   H11712755   2.410   3.416   7.323 -0.2153  0.9322 -1.9815
   90MOL   H11812756   2.652   3.340   7.250 -2.3353 -0.1596 -1.0411
   90MOL   H11912757   2.540   3.246   7.353 -0.8530  0.9031  2.1335
   90MOL   H12012758   2.669   3.342   7.430  0.2261  4.3982 -0.2825
   90MOL   C12112759   2.367   3.555   7.516 -0.6256 -0.0319 -0.1513
   90MOL   C12212760   2.276   3.459   7.607  0.1195 -0.2276  0.6686
   90MOL   O12312761   2.398   3.678   7.586 -0.6542  0.9379  0.1377
   90MOL   H12412762   2.320   3.581   7.421 -0.6272  0.2086 -0.0826
   90MOL   H12512763   2.184   3.512   7.634 -0.6862 -2.2426  2.0140
   90MOL   H12612764   2.315   3.426   7.703 -0.2419  0.6189  1.1178
   90MOL   H12712765   2.264   3.366   7.552  0.1445 -0.1167  0.4733
   90MOL   C12812766   2.455   3.786   7.504  0.0516  0.3665 -0.4253
   90MOL   C12912767   2.373   3.907   7.550  0.1956  0.0993 -0.5190
   90MOL   O13012768   2.587   3.825   7.548  0.0622  0.0552  0.2653
   90MOL   H13112769   2.453   3.760   7.398  0.7324  0.0667 -0.3677
   90MOL   H13212770   2.385   3.928   7.656 -1.0457  1.9549 -0.7206
   90MOL   H13312771   2.268   3.890   7.523  1.0809 -3.5098 -1.9530
   90MOL   H13412772   2.413   3.986   7.487 -0.9152  2.2491  1.3703
   90MOL   C13512773   2.694   3.741   7.518 -0.4110 -0.0147  0.2116
   90MOL   C13612774   2.814   3.824   7.554 -0.6248  0.3964 -0.1133
   90MOL   O13712775   2.691   3.617   7.596  0.0835  0.2074  0.2753
   90MOL   H13812776   2.697   3.712   7.414  0.8567 -5.8025  1.6995
   90MOL   H13912777   2.794   3.874   7.649 -0.4631  0.8792 -0.3271
   90MOL   H14012778   2.825   3.910   7.487  3.6852  1.4152  1.7581
   90MOL   H14112779   2.912   3.778   7.545  0.1147  2.3324 -2.7587
   90MOL   H14212780   2.618   3.575   7.554 -0.2628  0.6182  0.4596
   91MOL     C112781   2.689   3.202   4.961 -0.0737 -0.0915  0.0348
   91MOL     C212782   2.779   3.330   4.986 -0.7626  0.3940  0.1813
   91MOL     O312783   2.659   3.133   5.085  0.0953 -0.4037 -0.5585
   91MOL     H412784   2.744   3.145   4.887 -1.7819  2.2717 -3.1866
   91MOL     H512785   2.810   3.383   4.896 -0.8694 -1.6546 -1.1029
   91MOL     H612786   2.873   3.289   5.024 -0.6075  0.7624  0.1982
   91MOL     H712787   2.727   3.398   5.054 -0.6809 -0.6177  1.2851
   91MOL     H812788   2.603   3.227   4.899  0.3122 -0.5584 -0.6921
   91MOL     C912789   2.601   3.002   5.092  0.2237  0.4090 -0.4353
   91MOL    C1012790   2.685   2.931   5.196 -0.5365 -0.1206 -0.2129
   91MOL    O1112791   2.471   3.000   5.141 -0.0708 -0.4485  0.1558
   91MOL    H1212792   2.617   2.967   4.990  2.7523  0.9395 -0.2696
   91MOL    H1312793   2.792   2.926   5.173 -0.5987 -0.4987 -0.4322
   91MOL    H1412794   2.639   2.833   5.208  2.0486 -1.2533  0.8517
   91MOL    H1512795   2.680   2.989   5.288 -1.8039 -1.9164  0.8847
   91MOL    C1612796   2.370   3.065   5.061 -0.3372  0.1876  0.4194
   91MOL    C1712797   2.265   2.976   5.003 -0.3677 -0.3518 -0.1804
   91MOL    O1812798   2.298   3.161   5.135 -0.3392  0.4752 -0.4583
   91MOL    H1912799   2.418   3.110   4.974 -1.2074  1.3622  0.5366
   91MOL    H2012800   2.197   3.037   4.944 -1.0920 -0.9447  0.0236
   91MOL    H2112801   2.197   2.930   5.076 -0.8360  2.4614  1.2061
   91MOL    H2212802   2.314   2.902   4.939  2.7366 -0.7570  2.5214
   91MOL    C2312803   2.375   3.248   5.218  0.3776 -0.2848 -0.5335
   91MOL    C2412804   2.403   3.375   5.141  0.2680  0.1954  0.5762
   91MOL    O2512805   2.290   3.291   5.327 -0.4623  0.8125 -0.1415
   91MOL    H2612806   2.462   3.203   5.267 -1.0332 -2.8896 -0.2900
   91MOL    H2712807   2.458   3.453   5.195  1.0563  0.5276 -0.7038
   91MOL    H2812808   2.306   3.417   5.114  0.3286 -0.2231 -0.2838
   91MOL    H2912809   2.459   3.345   5.053  0.2644  0.1473  0.5903
   91MOL    C3012810   2.242   3.182   5.407  0.3749  0.5194  0.3410
   91MOL    C3112811   2.306   3.194   5.548  0.1371 -0.8356 -0.0551
   91MOL    O3212812   2.106   3.182   5.431 -0.0744 -0.3759  0.4920
   91MOL    H3312813   2.269   3.084   5.367 -2.4395  0.3169 -1.2294
   91MOL    H3412814   2.414   3.200   5.534  0.3346  1.2966  2.1239
   91MOL    H3512815   2.274   3.103   5.599 -1.0298 -0.7972 -0.6916
   91MOL    H3612816   2.267   3.278   5.606 -0.4000 -1.9269  1.2033
   91MOL    C3712817   2.030   3.178   5.321 -0.0323  0.4644  0.0311
   91MOL    C3812818   1.951   3.047   5.317 -0.2155 -0.1708  0.0629
   91MOL    O3912819   1.929   3.267   5.332  0.1024  0.6691 -0.1465
   91MOL    H4012820   2.071   3.206   5.224 -1.5248  2.1698 -0.1295
   91MOL    H4112821   1.892   3.030   5.226 -1.2692  0.8584  0.5500
   91MOL    H4212822   1.879   3.045   5.399  0.1460 -2.0311  0.3716
   91MOL    H4312823   2.017   2.960   5.323 -0.6425 -0.3794  1.9340
   91MOL    C4412824   1.969   3.405   5.345 -0.0056  0.1179 -0.5815
   91MOL    C4512825   1.976   3.467   5.203  0.3177 -0.2894  0.3576
   91MOL    O4612826   1.866   3.478   5.399  0.1946 -0.3274  0.4228
   91MOL    H4712827   2.063   3.418   5.399  0.1490  2.5399 -1.3448
   91MOL    H4812828   2.069   3.455   5.147 -0.6957  0.3824 -1.5252
   91MOL    H4912829   1.953   3.573   5.215 -0.3977 -0.4854  0.7141
   91MOL    H5012830   1.904   3.415   5.140  0.8790 -1.3705  0.5890
   91MOL    C5112831   1.828   3.440   5.529  0.4015 -0.5014 -0.3699
   91MOL    C5212832   1.834   3.561   5.625  0.6844  0.0267 -0.6784
   91MOL    O5312833   1.692   3.403   5.521 -0.5651 -0.0142  0.9636
   91MOL    H5412834   1.874   3.350   5.570 -0.1608 -0.7572 -0.2933
   91MOL    H5512835   1.781   3.548   5.720  1.7306  1.0900  0.0611
   91MOL    H5612836   1.781   3.641   5.575 -0.0458 -1.1640 -1.8607
   91MOL    H5712837   1.934   3.575   5.664  0.1385  0.7042  0.5026
   91MOL    C5812838   1.665   3.267   5.493 -0.3921  1.0603  0.3182
   91MOL    C5912839   1.606   3.210   5.619  0.6377  0.0999 -0.6437
   91MOL    O6012840   1.559   3.248   5.402  0.2691  0.1559 -0.0204
   91MOL    H6112841   1.753   3.209   5.464 -0.5643  0.8719  0.1699
   91MOL    H6212842   1.515   3.261   5.650  0.4245 -0.4009 -0.4466
   91MOL    H6312843   1.685   3.193   5.693  1.1061 -0.4931 -1.2661
   91MOL    H6412844   1.581   3.105   5.607  1.3100 -0.2115  0.6031
   91MOL    C6512845   1.590   3.286   5.271  0.1158 -0.1273 -0.2719
   91MOL    C6612846   1.570   3.168   5.177  0.3395 -0.3314  0.4491
   91MOL    O6712847   1.507   3.386   5.224 -0.2025 -0.5268  0.1582
   91MOL    H6812848   1.696   3.310   5.265 -0.1486  0.4678 -3.7161
   91MOL    H6912849   1.463   3.158   5.160  0.0906  1.1865  1.0588
   91MOL    H7012850   1.632   3.081   5.200 -0.0204 -0.4379  1.0187
   91MOL    H7112851   1.606   3.187   5.076  1.2430 -0.6687  0.6998
   91MOL    C7212852   1.558   3.510   5.246  0.0544  0.1834 -0.0675
   91MOL    C7312853   1.570   3.565   5.106  0.0040 -0.4969 -0.4137
   91MOL    O7412854   1.464   3.594   5.308  0.3386 -0.0659  0.0752
   91MOL    H7512855   1.657   3.520   5.291  0.7956  0.0898 -1.6698
   91MOL    H7612856   1.577   3.674   5.109 -2.9600 -0.2736  0.6784
   91MOL    H7712857   1.476   3.545   5.054 -1.2203  1.0183  1.1375
   91MOL    H7812858   1.644   3.510   5.049 -1.4036 -2.0970 -0.7424
   91MOL    C7912859   1.433   3.557   5.436 -0.3488  0.2291  0.6643
   91MOL    C8012860   1.464   3.666   5.537 -0.2958 -0.1097 -0.0536
   91MOL    O8112861   1.296   3.529   5.442 -0.3965 -0.4526  0.2545
   91MOL    H8212862   1.471   3.469   5.488 -2.2693 -1.0620 -0.0479
   91MOL    H8312863   1.442   3.628   5.637  2.5280  2.0275  1.4263
   91MOL    H8412864   1.386   3.742   5.523 -0.0651  0.4457  1.6142
   91MOL    H8512865   1.564   3.708   5.534 -1.4619  2.7740 -0.8489
   91MOL    C8612866   1.252   3.399   5.416 -0.3987  0.6962  0.5759
   91MOL    C8712867   1.223   3.340   5.554 -0.5372 -0.2624  0.0060
   91MOL    O8812868   1.133   3.391   5.335 -0.1481 -0.8748  0.7126
   91MOL    H8912869   1.334   3.346   5.367 -1.0302 -0.4357  0.7305
   91MOL    H9012870   1.207   3.232   5.547 -1.5984 -0.0272 -1.6828
   91MOL    H9112871   1.131   3.385   5.593 -0.2836  0.8052 -0.6020
   91MOL    H9212872   1.306   3.363   5.621  1.3179 -1.6677 -1.7583
   91MOL    C9312873   1.154   3.431   5.205  0.0381  0.3691  0.0943
   91MOL    C9412874   1.155   3.305   5.121  0.3881  0.7127 -0.2900
   91MOL    O9512875   1.053   3.513   5.162  0.1448  0.9693 -0.2031
   91MOL    H9612876   1.251   3.479   5.191  0.4502 -0.4980 -0.0820
   91MOL    H9712877   1.133   3.324   5.015 -1.6850 -3.1182 -0.6225
   91MOL    H9812878   1.078   3.246   5.171 -0.8051  1.5604 -1.0895
   91MOL    H9912879   1.246   3.246   5.117  0.3571  0.5497  1.3054
   91MOL   C10012880   1.085   3.644   5.165 -0.2537 -0.0443  0.1003
   91MOL   C10112881   1.124   3.685   5.022  0.2133  0.3166  0.1074
   91MOL   O10212882   0.969   3.711   5.199 -0.0332 -0.2611 -0.6415
   91MOL   H10312883   1.160   3.670   5.239  1.8406 -3.7134 -0.5812
   91MOL   H10412884   1.203   3.627   4.974 -0.6139 -1.1379  0.4634
   91MOL   H10512885   1.140   3.793   5.018  0.9431  0.1902 -0.5370
   91MOL   H10612886   1.037   3.677   4.956  1.0858 -2.3250 -0.8220
   91MOL   C10712887   0.912   3.699   5.323 -0.1146 -0.5843  0.3115
   91MOL   C10812888   1.006   3.752   5.428  0.9674 -0.6641  0.2594
   91MOL   O10912889   0.795   3.774   5.329  0.2779  0.1128 -0.2848
   91MOL   H11012890   0.893   3.595   5.349  1.5313 -1.0145 -0.1371
   91MOL   H11112891   1.017   3.860   5.420 -1.2504 -0.4615 -0.4787
   91MOL   H11212892   1.103   3.703   5.437 -0.2786 -2.9261  1.7478
   91MOL   H11312893   0.975   3.745   5.532 -0.6209 -1.7770 -0.2590
   91MOL   C11412894   0.688   3.729   5.256 -0.0493  0.1076  1.2627
   91MOL   C11512895   0.585   3.687   5.362 -0.1547 -0.1155 -0.0528
   91MOL   O11612896   0.630   3.832   5.179 -0.2887  0.4141 -0.0471
   91MOL   H11712897   0.718   3.641   5.200 -2.5685  0.0726 -0.1153
   91MOL   H11812898   0.573   3.775   5.425  0.7895 -0.1271  0.1574
   91MOL   H11912899   0.624   3.606   5.423  2.4306  1.6740  0.7817
   91MOL   H12012900   0.491   3.659   5.314 -0.7901  0.1727  1.0258
   91MOL   C12112901   0.714   3.872   5.069  0.8037 -0.5620 -0.6741
   91MOL   C12212902   0.647   3.829   4.938  0.2120 -0.6730  0.4929
   91MOL   O12312903   0.727   4.010   5.066 -0.2647 -0.2962  0.3787
   91MOL   H12412904   0.810   3.821   5.075  0.1172 -2.0284 -1.9857
   91MOL   H12512905   0.626   3.723   4.927 -2.0946  0.0636 -3.0966
   91MOL   H12612906   0.711   3.850   4.853  0.2507 -2.7255  0.0066
   91MOL   H12712907   0.551   3.882   4.935  0.8555  0.7387  3.0006
   91MOL   C12812908   0.827   4.064   5.143  0.2217 -0.5094  0.3243
   91MOL   C12912909   0.949   4.109   5.061 -0.0101  0.3079 -0.7776
   91MOL   O13012910   0.785   4.180   5.210  0.1298  0.4802  0.5484
   91MOL   H13112911   0.862   3.998   5.223  1.3256 -0.9483 -0.5181
   91MOL   H13212912   0.990   4.030   4.997 -1.2989  0.7912 -2.2112
   91MOL   H13312913   1.031   4.143   5.124 -1.8275  0.4727  1.5561
   91MOL   H13412914   0.916   4.196   5.004 -1.0976  0.7338  0.4842
   91MOL   C13512915   0.701   4.157   5.318  0.1138  0.5396 -0.2258
   91MOL   C13612916   0.680   4.287   5.388  0.2941 -0.4097 -0.4724
   91MOL   O13712917   0.573   4.115   5.275 -0.6058  0.6484 -0.1814
   91MOL   H13812918   0.739   4.079   5.384  1.5661  1.2325 -0.2406
   91MOL   H13912919   0.773   4.326   5.431 -0.0788  0.8376 -0.7745
   91MOL   H14012920   0.614   4.282   5.475 -0.8196  1.2353 -1.1929
   91MOL   H14112921   0.642   4.357   5.314  0.7591  0.5153  0.1462
   91MOL   H14212922   0.581   4.030   5.235 -0.4927  0.7537 -0.3802
   92MOL     C112923   3.507   1.931   5.321  0.1457 -0.5619 -1.0748
   92MOL     C212924   3.409   1.863   5.425  0.0895  0.0893  0.2103
   92MOL     O312925   3.486   1.885   5.186 -0.8346  0.1348  0.3744
   92MOL     H412926   3.612   1.920   5.347  0.3254  0.7511 -1.2047
   92MOL     H512927   3.412   1.908   5.524 -1.5209  2.0811 -0.6110
   92MOL     H612928   3.427   1.756   5.437 -0.4362 -0.1499 -1.0566
   92MOL     H712929   3.304   1.872   5.397 -0.2271  0.0082  1.3442
   92MOL     H812930   3.492   2.038   5.312 -0.3031 -0.4772  0.5240
   92MOL     C912931   3.568   1.933   5.091 -0.9031 -0.1574 -0.8237
   92MOL    C1012932   3.698   1.854   5.079  0.5823  0.1547 -0.2611
   92MOL    O1112933   3.504   1.925   4.969  0.4366 -0.1884  0.1458
   92MOL    H1212934   3.587   2.038   5.118  0.2356 -0.4615 -0.4151
   92MOL    H1312935   3.677   1.752   5.047  2.7266  0.3642 -2.5071
   92MOL    H1412936   3.745   1.851   5.177 -1.1579 -2.4768  0.5529
   92MOL    H1512937   3.769   1.901   5.011  0.4044  1.1332  0.2236
   92MOL    C1612938   3.397   2.013   4.947  0.0950 -0.2055 -0.3720
   92MOL    C1712939   3.452   2.121   4.860  0.0899  0.0870  0.0095
   92MOL    O1812940   3.297   1.946   4.874 -0.4844 -0.0403 -0.6343
   92MOL    H1912941   3.342   2.043   5.036  0.6706 -0.4689  0.0785
   92MOL    H2012942   3.373   2.190   4.831  0.8443  1.1099  0.3687
   92MOL    H2112943   3.497   2.083   4.768 -1.2559 -0.6813 -0.3517
   92MOL    H2212944   3.524   2.182   4.914 -1.5607  0.9054  1.3353
   92MOL    C2312945   3.233   1.846   4.957 -0.2483  0.4944  0.0877
   92MOL    C2412946   3.079   1.882   4.956  0.0817 -0.7110 -0.7063
   92MOL    O2512947   3.244   1.726   4.895  0.0807 -0.6942 -0.2552
   92MOL    H2612948   3.265   1.835   5.060 -0.8167 -3.1920 -0.0609
   92MOL    H2712949   3.049   1.894   4.852  1.9251  2.8479 -0.8968
   92MOL    H2812950   3.056   1.978   5.002 -1.7595 -0.9249 -1.1603
   92MOL    H2912951   3.025   1.796   4.995  1.6279 -0.7924  1.3389
   92MOL    C3012952   3.352   1.651   4.929 -0.3687 -0.1974  0.1898
   92MOL    C3112953   3.291   1.544   5.023  0.1459 -0.4744  0.2787
   92MOL    O3212954   3.407   1.591   4.815  0.2291 -0.1216 -0.6928
   92MOL    H3312955   3.428   1.698   4.990 -1.8138 -0.5127  2.2808
   92MOL    H3412956   3.198   1.507   4.979 -1.0277  2.1517  0.4494
   92MOL    H3512957   3.271   1.592   5.118  1.0040  1.1326 -0.3313
   92MOL    H3612958   3.354   1.457   5.042  0.2065 -0.4103  0.3714
   92MOL    C3712959   3.472   1.682   4.728  0.3241  0.0306 -0.4129
   92MOL    C3812960   3.620   1.647   4.726  0.1355 -0.1972 -0.0672
   92MOL    O3912961   3.423   1.661   4.604  0.1100 -0.2451  0.0538
   92MOL    H4012962   3.457   1.787   4.754 -0.5926 -0.2800  0.3343
   92MOL    H4112963   3.667   1.712   4.801 -2.3501  2.2292 -0.5148
   92MOL    H4212964   3.673   1.673   4.634 -0.8334  0.5120 -0.4337
   92MOL    H4312965   3.630   1.546   4.764  1.7830  0.0728  0.2840
   92MOL    C4412966   3.290   1.706   4.586  0.1365 -0.2101  0.0417
   92MOL    C4512967   3.299   1.826   4.490 -0.1560 -0.3150  0.2705
   92MOL    O4612968   3.217   1.610   4.511  0.3962  0.5189 -0.0674
   92MOL    H4712969   3.232   1.747   4.669 -1.3963 -1.2343 -0.5007
   92MOL    H4812970   3.356   1.904   4.541  0.9201 -1.5443  0.9819
   92MOL    H4912971   3.206   1.875   4.463 -0.4236 -1.5932 -1.1360
   92MOL    H5012972   3.347   1.792   4.398 -0.6699 -0.2886 -0.0086
   92MOL    C5112973   3.174   1.502   4.586 -0.1479 -0.0505 -0.4644
   92MOL    C5212974   3.027   1.518   4.626  0.6130 -0.5062  0.0925
   92MOL    O5312975   3.178   1.376   4.521  0.2100 -0.7317  0.3924
   92MOL    H5412976   3.221   1.499   4.685 -1.2105 -1.0203  0.0233
   92MOL    H5512977   3.010   1.439   4.698  1.1348  0.3131  1.1261
   92MOL    H5612978   2.966   1.501   4.537 -0.0110  1.9401 -0.0013
   92MOL    H5712979   3.009   1.617   4.669  4.5320 -0.3684  1.5621
   92MOL    C5812980   3.300   1.312   4.533  0.2151 -0.4054 -0.2822
   92MOL    C5912981   3.278   1.179   4.599 -0.0497  0.1019 -0.4220
   92MOL    O6012982   3.350   1.287   4.401  0.0074 -0.4266 -0.3626
   92MOL    H6112983   3.378   1.365   4.587 -1.4899  0.5044  1.3364
   92MOL    H6212984   3.230   1.105   4.535 -1.1339  1.2883 -1.0066
   92MOL    H6312985   3.219   1.195   4.690 -0.5615  0.1041 -0.7542
   92MOL    H6412986   3.375   1.131   4.614 -0.5968 -1.5481 -2.0385
   92MOL    C6512987   3.412   1.395   4.335 -0.9014 -0.0899 -0.1744
   92MOL    C6612988   3.560   1.375   4.363  0.8547 -0.1584  0.3991
   92MOL    O6712989   3.388   1.398   4.199  0.0541  0.6475  0.1217
   92MOL    H6812990   3.389   1.490   4.382  0.1091 -0.1215  0.4077
   92MOL    H6912991   3.585   1.407   4.464  0.3488 -0.5801  0.6627
   92MOL    H7012992   3.610   1.440   4.291 -1.7533  1.9269  0.4139
   92MOL    H7112993   3.589   1.271   4.349 -0.2485 -0.4492  0.1715
   92MOL    C7212994   3.248   1.412   4.171 -0.5418 -0.2982 -0.5781
   92MOL    C7312995   3.234   1.549   4.111 -0.0531  0.1327 -0.5387
   92MOL    O7412996   3.210   1.310   4.078 -0.3535 -0.0747 -0.5982
   92MOL    H7512997   3.181   1.407   4.257 -1.2904  0.2169 -1.1349
   92MOL    H7612998   3.311   1.572   4.037 -0.6311  0.1728 -1.1306
   92MOL    H7712999   3.262   1.614   4.193 -1.3918 -0.2903  0.2543
   92MOL    H7813000   3.133   1.576   4.084  0.3720  2.6338  0.2603
   92MOL    C7913001   3.172   1.194   4.143 -0.5478  0.0955  0.7874
   92MOL    C8013002   3.021   1.179   4.150 -0.2395 -0.2728 -1.1379
   92MOL    O8113003   3.217   1.082   4.073 -0.2243  0.4885  0.7670
   92MOL    H8213004   3.210   1.193   4.245  0.7900 -2.9922  0.3341
   92MOL    H8313005   2.980   1.158   4.051 -2.0586  1.5763 -0.8107
   92MOL    H8413006   2.978   1.273   4.182 -0.0069  0.1310 -2.0116
   92MOL    H8513007   2.991   1.098   4.217  0.0583  0.5752  0.0288
   92MOL    C8613008   3.350   1.049   4.108  0.4392  0.3685  0.4332
   92MOL    C8713009   3.351   0.930   4.204 -0.3823  0.6956 -0.0046
   92MOL    O8813010   3.428   1.009   3.999  0.0519 -0.5927 -0.9235
   92MOL    H8913011   3.398   1.135   4.156 -1.7969  0.6680  2.1956
   92MOL    H9013012   3.312   0.840   4.157  0.5285 -0.6953  1.8444
   92MOL    H9113013   3.283   0.964   4.283  2.2904 -0.1956  2.7646
   92MOL    H9213014   3.453   0.913   4.239 -0.6495 -1.7100 -0.3563
   92MOL    C9313015   3.430   1.096   3.893  0.1040 -0.5352  0.1184
   92MOL    C9413016   3.557   1.184   3.903 -0.2248  0.4893  0.3126
   92MOL    O9513017   3.440   1.023   3.783 -0.0525  0.2610  0.7138
   92MOL    H9613018   3.339   1.156   3.884  0.2072 -0.4648 -0.4947
   92MOL    H9713019   3.563   1.246   3.814  1.7901  1.9782  1.4463
   92MOL    H9813020   3.639   1.112   3.897 -0.5168  0.1118  0.8115
   92MOL    H9913021   3.566   1.250   3.989 -1.2138  1.1925 -0.1259
   92MOL   C10013022   3.328   0.949   3.742  0.2481  0.4846  0.5263
   92MOL   C10113023   3.253   1.046   3.649 -0.1633 -0.8529 -0.9190
   92MOL   O10213024   3.374   0.839   3.664 -0.8956 -0.1787 -0.0443
   92MOL   H10313025   3.265   0.925   3.827 -1.3999  2.9182  0.0496
   92MOL   H10413026   3.321   1.087   3.574 -0.1003  0.6541 -0.0540
   92MOL   H10513027   3.210   1.128   3.707 -2.0109 -2.2169 -0.3259
   92MOL   H10613028   3.172   0.990   3.602 -0.4029 -0.8124 -0.5607
   92MOL   C10713029   3.408   0.729   3.751  0.1964 -0.0206  0.0227
   92MOL   C10813030   3.290   0.621   3.761 -0.0510  0.3881  0.0045
   92MOL   O10913031   3.520   0.661   3.694  0.1966  0.1922  0.0240
   92MOL   H11013032   3.436   0.768   3.848 -0.2045 -1.0781  0.5668
   92MOL   H11113033   3.251   0.587   3.665 -1.2872  1.3289  0.1560
   92MOL   H11213034   3.206   0.656   3.822  0.9501  1.1246  0.9810
   92MOL   H11313035   3.346   0.534   3.793  3.7581  2.2139 -1.4562
   92MOL   C11413036   3.639   0.734   3.710 -0.3596  0.1141 -0.0830
   92MOL   C11513037   3.703   0.694   3.846  0.3506 -0.2643  0.0680
   92MOL   O11613038   3.740   0.698   3.611  0.1973 -0.4130 -0.3898
   92MOL   H11713039   3.628   0.840   3.688 -1.4779 -0.2567 -1.3999
   92MOL   H11813040   3.650   0.732   3.933 -0.6036  2.1330 -1.5183
   92MOL   H11913041   3.807   0.726   3.836  0.6120 -0.6714  1.3499
   92MOL   H12013042   3.714   0.586   3.853 -1.5437 -0.7279 -3.3575
   92MOL   C12113043   3.703   0.737   3.480 -0.2437  0.8454  0.5895
   92MOL   C12213044   3.796   0.847   3.433  0.7700 -0.0696  0.1742
   92MOL   O12313045   3.728   0.627   3.398  0.2759  0.0667 -0.6090
   92MOL   H12413046   3.600   0.770   3.469 -0.0122  1.7266  1.0185
   92MOL   H12513047   3.777   0.930   3.501 -2.4442 -1.5646  1.1604
   92MOL   H12613048   3.768   0.881   3.333 -0.2549  0.3275  0.5929
   92MOL   H12713049   3.902   0.819   3.427  1.6491  2.7669  1.3560
   92MOL   C12813050   3.657   0.506   3.435  0.3028 -0.3674 -0.0731
   92MOL   C12913051   3.507   0.513   3.399  0.0294  0.2624  0.0008
   92MOL   O13013052   3.712   0.400   3.366 -0.2473  0.2872 -0.0649
   92MOL   H13113053   3.647   0.485   3.541  0.3037  1.2565  0.2558
   92MOL   H13213054   3.498   0.515   3.290 -0.8589 -0.4942  0.0534
   92MOL   H13313055   3.472   0.614   3.420  0.0588  0.4313 -0.7434
   92MOL   H13413056   3.441   0.440   3.444  1.0284  0.3347  1.6044
   92MOL   C13513057   3.840   0.371   3.408 -0.2728 -0.1851  0.1008
   92MOL   C13613058   3.853   0.270   3.518  0.6301 -0.2471  0.1097
   92MOL   O13713059   3.904   0.310   3.296 -1.0025 -0.1644 -0.3359
   92MOL   H13813060   3.901   0.458   3.432 -0.7084  0.4100 -0.9420
   92MOL   H13913061   3.823   0.170   3.489 -0.1025 -0.1982  0.6717
   92MOL   H14013062   3.796   0.301   3.606  0.5377 -0.8668  0.2679
   92MOL   H14113063   3.958   0.260   3.543  1.5575  1.4832 -2.9512
   92MOL   H14213064   3.928   0.384   3.241  0.3358 -0.7201 -0.5170
   93MOL     C113065   4.804   0.022   7.709  0.6018 -0.2306  0.4651
   93MOL     C213066   4.883   0.140   7.758 -0.3986 -0.0700 -0.3352
   93MOL     O313067   4.667   0.060   7.675  0.6767  0.4730  0.0232
   93MOL     H413068   4.798   7.869   7.794 -1.3039 -1.7125 -0.7733
   93MOL     H513069   4.979   0.105   7.797 -0.0504 -1.2972 -2.2441
   93MOL     H613070   4.825   0.184   7.840  1.7627 -0.3352  1.3955
   93MOL     H713071   4.886   0.206   7.671 -1.1249 -0.4190 -0.6264
   93MOL     H813072   4.845   7.887   7.620  2.7266  1.5349  0.4385
   93MOL     C913073   4.582   7.879   7.621 -0.4172  0.0633  0.5195
   93MOL    C1013074   4.542   7.784   7.731  0.8617 -0.2755  1.1202
   93MOL    O1113075   4.467   0.012   7.565  0.1337  0.8153 -0.5358
   93MOL    H1213076   4.634   7.821   7.544  1.1364  2.3107 -0.1676
   93MOL    H1313077   4.471   7.719   7.681  1.4528  1.2835 -1.8142
   93MOL    H1413078   4.499   7.839   7.815 -1.4962 -0.6068  0.1762
   93MOL    H1513079   4.619   7.710   7.756  1.7531  1.3814  3.5632
   93MOL    C1613080   4.489   0.100   7.456 -1.1279 -0.1017  0.1514
   93MOL    C1713081   4.442   0.026   7.331  0.0055 -0.0869 -0.2496
   93MOL    O1813082   4.416   0.214   7.465 -0.4444  0.1634  0.1163
   93MOL    H1913083   4.592   0.133   7.443 -1.2347 -0.0439 -0.5289
   93MOL    H2013084   4.333   0.016   7.328 -0.1439  1.3245  0.1572
   93MOL    H2113085   4.492   7.843   7.327 -0.5201 -0.3664 -0.0828
   93MOL    H2213086   4.481   0.074   7.241 -2.2554  2.2770 -0.0396
   93MOL    C2313087   4.464   0.306   7.550  0.2808 -1.2911 -0.3559
   93MOL    C2413088   4.511   0.427   7.474 -0.2505 -0.3201  0.1189
   93MOL    O2513089   4.365   0.342   7.638 -0.1626 -0.3020  0.0006
   93MOL    H2613090   4.553   0.267   7.599  0.0951  0.3014  1.3084
   93MOL    H2713091   4.556   0.502   7.538 -0.5096 -0.0064 -0.0645
   93MOL    H2813092   4.432   0.470   7.412  1.3425  1.0775 -0.9632
   93MOL    H2913093   4.582   0.395   7.398  2.4703 -0.2879  2.5972
   93MOL    C3013094   4.329   0.253   7.739  0.3255 -0.7921 -0.4667
   93MOL    C3113095   4.361   0.324   7.865 -0.0705 -0.4976 -0.0715
   93MOL    O3213096   4.188   0.233   7.738  0.3060 -0.0773  0.4014
   93MOL    H3313097   4.385   0.160   7.741  0.2550 -0.8275 -0.2162
   93MOL    H3413098   4.290   0.407   7.871  0.0577 -0.2895 -1.3421
   93MOL    H3513099   4.466   0.351   7.871  0.7140 -3.0287 -1.6598
   93MOL    H3613100   4.346   0.264   0.042 -0.7817 -0.8618 -0.4250
   93MOL    C3713101   4.153   0.121   7.661  0.3800 -0.3651  0.0082
   93MOL    C3813102   4.150   7.914   7.757 -0.6404  0.1881 -0.3695
   93MOL    O3913103   4.031   0.143   7.609  0.1457  0.2406  0.1205
   93MOL    H4013104   4.220   0.105   7.577  2.5930  2.4922  1.1301
   93MOL    H4113105   4.077   0.000   7.838  1.2436 -1.1109  1.3753
   93MOL    H4213106   4.252   7.894   7.789 -1.0066  0.8948  1.2714
   93MOL    H4313107   4.115   7.825   7.705  1.3577 -0.9818  0.2177
   93MOL    C4413108   4.023   0.252   7.515 -0.8064  0.6640 -0.7284
   93MOL    C4513109   3.977   0.195   7.384  0.9970 -0.1384  0.0051
   93MOL    O4613110   3.921   0.340   7.549  0.0479 -1.1427  0.4181
   93MOL    H4713111   4.120   0.295   7.489 -1.0624  0.3624 -2.2392
   93MOL    H4813112   3.877   0.152   7.390  1.1161 -0.1820  2.2305
   93MOL    H4913113   4.049   0.115   7.363  1.2758  1.0285 -3.8284
   93MOL    H5013114   3.994   0.268   7.305 -0.2816  2.8369  2.3986
   93MOL    C5113115   3.963   0.442   7.640 -0.3922 -0.4441 -0.3961
   93MOL    C5213116   3.986   0.582   7.569 -0.0640 -0.1711 -0.8323
   93MOL    O5313117   3.870   0.457   7.745  0.4473  0.2159  0.0699
   93MOL    H5413118   4.048   0.412   7.701 -1.0746  0.8245  1.2160
   93MOL    H5513119   3.891   0.616   7.531 -0.4505  0.7667  0.8989
   93MOL    H5613120   4.069   0.563   7.502  0.1178 -2.7472  0.0610
   93MOL    H5713121   4.024   0.649   7.647  2.9489 -1.6497 -0.9446
   93MOL    C5813122   3.851   0.347   7.824 -0.3251 -0.9358 -0.1933
   93MOL    C5913123   3.861   0.389   0.062  0.1129 -0.2886  0.3870
   93MOL    O6013124   3.725   0.293   7.805  0.1987 -0.1531  0.0763
   93MOL    H6113125   3.937   0.281   7.811  1.0913  0.7931  0.2793
   93MOL    H6213126   3.967   0.415   0.067  0.0520  0.0660 -0.0376
   93MOL    H6313127   3.841   0.302   0.124  1.0476  1.0625  2.6668
   93MOL    H6413128   3.792   0.469   0.091  0.6296 -0.0578  0.9829
   93MOL    C6513129   3.721   0.156   7.796 -0.5722 -0.3880 -0.2462
   93MOL    C6613130   3.726   0.086   0.024  0.6137 -0.1435 -0.6506
   93MOL    O6713131   3.608   0.113   7.723  0.2109  0.1192  0.0836
   93MOL    H6813132   3.811   0.116   7.751  1.4605  1.5920  1.9141
   93MOL    H6913133   3.820   0.118   0.068 -0.8010  3.0333  0.2463
   93MOL    H7013134   3.695   7.896   0.020 -1.1505  0.3105  0.5856
   93MOL    H7113135   3.650   0.130   0.088  0.5357 -2.0638  0.5978
   93MOL    C7213136   3.617   0.143   7.589  0.1568  0.5969  0.9104
   93MOL    C7313137   3.592   0.012   7.513 -0.5087  0.0554  0.2197
   93MOL    O7413138   3.516   0.236   7.549  0.5123 -0.4501 -0.2265
   93MOL    H7513139   3.720   0.167   7.563 -0.0717  0.6262  0.0031
   93MOL    H7613140   3.585   0.032   7.406  1.5028  0.9481  0.2264
   93MOL    H7713141   3.501   7.882   7.554 -1.5589  1.6545 -0.3568
   93MOL    H7813142   3.661   7.844   7.534 -1.3756 -0.3006  1.7401
   93MOL    C7913143   3.566   0.367   7.554 -0.7691  0.0097 -0.1659
   93MOL    C8013144   3.624   0.398   7.414  0.2615  0.4288  1.0249
   93MOL    O8113145   3.463   0.457   7.583  0.2505 -0.7366 -1.1015
   93MOL    H8213146   3.643   0.388   7.628  1.2744  2.4460 -2.9082
   93MOL    H8313147   3.700   0.326   7.384 -2.2944 -1.3069 -1.5728
   93MOL    H8413148   3.670   0.494   7.436  2.1578 -0.0461 -0.7628
   93MOL    H8513149   3.542   0.405   7.343 -0.6409  1.5409  2.1364
   93MOL    C8613150   3.415   0.449   7.711  0.2916 -0.5815  0.5017
   93MOL    C8713151   3.456   0.568   7.798  0.1331 -0.1917 -0.1109
   93MOL    O8813152   3.277   0.441   7.711  0.6009 -0.0331 -0.3266
   93MOL    H8913153   3.450   0.359   7.762  1.6874 -1.5623 -2.0924
   93MOL    H9013154   3.429   0.560   7.904  0.0812  2.1398  0.0646
   93MOL    H9113155   3.418   0.664   7.763  0.5612 -0.2834 -0.8199
   93MOL    H9213156   3.565   0.564   7.790  0.3796  2.3577  1.4917
   93MOL    C9313157   3.210   0.339   7.636 -0.1177  0.1874 -0.0232
   93MOL    C9413158   3.212   0.202   7.715 -0.1384  0.3256  0.4093
   93MOL    O9513159   3.075   0.367   7.614  0.1053 -0.1773  0.2651
   93MOL    H9613160   3.264   0.331   7.541 -0.0201  0.2150  0.0295
   93MOL    H9713161   3.145   0.209   7.800 -2.6096  1.9233 -1.6052
   93MOL    H9813162   3.316   0.182   7.742  0.1226  0.1126 -0.7269
   93MOL    H9913163   3.162   0.136   7.645 -2.0988  0.1572  1.9348
   93MOL   C10013164   3.061   0.479   7.534 -0.0001 -0.2086  0.0252
   93MOL   C10113165   3.020   0.445   7.388  0.8300  0.5225  0.7125
   93MOL   O10213166   2.960   0.555   7.589 -0.2330 -0.9959  0.0523
   93MOL   H10313167   3.152   0.539   7.532 -1.0527  1.4965  1.3241
   93MOL   H10413168   3.024   0.534   7.325 -0.2342  0.3224  0.3598
   93MOL   H10513169   2.919   0.407   7.375  0.5539  1.2585  0.6479
   93MOL   H10613170   3.085   0.368   7.347 -1.2433 -1.1449  0.4668
   93MOL   C10713171   3.012   0.639   7.693 -0.2605 -0.1155 -0.6883
   93MOL   C10813172   3.060   0.768   7.638  0.5699 -0.5480 -0.3098
   93MOL   O10913173   2.925   0.667   7.795 -0.1072  0.3596 -0.1734
   93MOL   H11013174   3.097   0.588   7.739 -0.3037  0.2204 -0.2350
   93MOL   H11113175   3.129   0.745   7.556 -0.5816  2.0151 -2.0804
   93MOL   H11213176   3.111   0.832   7.710  0.0212  0.6538 -0.9629
   93MOL   H11313177   2.971   0.821   7.604  0.4324 -0.0512  0.8100
   93MOL   C11413178   2.890   0.542   7.856 -0.1621  0.8366  0.2125
   93MOL   C11513179   2.971   0.520   0.063 -0.3773 -0.1435  0.4093
   93MOL   O11613180   2.759   0.560   7.901 -0.0215  0.7814 -0.1911
   93MOL   H11713181   2.900   0.456   7.790 -2.5267  1.3474 -0.8611
   93MOL   H11813182   2.948   0.424   0.107  0.3908  0.2333  1.6549
   93MOL   H11913183   2.938   0.585   0.144 -0.6748 -0.2686  0.3894
   93MOL   H12013184   3.078   0.524   0.046 -0.7187  0.9112 -1.7491
   93MOL   C12113185   2.666   0.566   7.795  0.0520 -0.2451  0.2958
   93MOL   C12213186   2.571   0.453   7.796 -0.2442 -0.6293  0.1064
   93MOL   O12313187   2.582   0.672   7.817 -0.0959 -0.7498  0.8577
   93MOL   H12413188   2.707   0.577   7.695  1.3182 -0.7185  0.7526
   93MOL   H12513189   2.514   0.445   7.889  0.3155  0.9120  0.5998
   93MOL   H12613190   2.633   0.364   7.801  0.8493  0.0128 -1.8035
   93MOL   H12713191   2.511   0.445   7.706 -2.0211 -1.5686  1.3258
   93MOL   C12813192   2.630   0.796   7.771 -0.3101 -0.0538  0.5552
   93MOL   C12913193   2.540   0.840   7.650 -0.1213  0.5752 -0.2776
   93MOL   O13013194   2.614   0.898   7.866 -0.5073  0.6641 -0.0070
   93MOL   H13113195   2.738   0.797   7.757 -0.5806 -0.7326 -1.8078
   93MOL   H13213196   2.552   0.947   7.629  0.1844  0.6115  0.0937
   93MOL   H13313197   2.439   0.834   7.690 -0.6414 -0.6543 -1.7361
   93MOL   H13413198   2.555   0.778   7.562  0.9222 -1.9401  1.6316
   93MOL   C13513199   2.709   0.907   0.057 -0.0854  0.3032  0.6671
   93MOL   C13613200   2.670   1.022   0.148 -0.2329  0.9583  0.3047
   93MOL   O13713201   2.696   0.789   0.141  0.0273 -0.8451 -0.3686
   93MOL   H13813202   2.814   0.919   0.029  0.6688 -2.0993  2.3020
   93MOL   H13913203   2.686   1.116   0.095  1.3286 -0.0072 -0.9846
   93MOL   H14013204   2.728   1.009   0.239  0.3907 -0.7949 -0.3172
   93MOL   H14113205   2.562   1.025   0.162 -0.2051  0.0185  0.7391
   93MOL   H14213206   2.728   0.716   0.091  1.4787 -1.0097  0.7664
   94MOL     C113207   2.247   3.137   1.640 -0.3099  0.4120  0.5165
   94MOL     C213208   2.342   3.179   1.752 -0.3484 -0.3057  0.3534
   94MOL     O313209   2.211   3.255   1.565 -0.1075 -0.7610 -0.3291
   94MOL     H413210   2.160   3.085   1.680 -1.5407  1.4887 -0.6651
   94MOL     H513211   2.422   3.238   1.710 -0.5263 -0.2056  0.1554
   94MOL     H613212   2.383   3.089   1.797  0.4085 -0.4600 -0.6429
   94MOL     H713213   2.291   3.232   1.832 -2.6428 -1.1522 -0.4909
   94MOL     H813214   2.301   3.078   1.566 -0.4346  0.8124  0.1023
   94MOL     C913215   2.088   3.255   1.504  0.5355  0.2095 -0.1688
   94MOL    C1013216   2.002   3.361   1.577  0.0469 -0.5877  0.1563
   94MOL    O1113217   2.090   3.289   1.367  0.0316  0.4312  0.0684
   94MOL    H1213218   2.038   3.159   1.507 -0.0855  0.5125 -0.5463
   94MOL    H1313219   2.032   3.350   1.681 -0.2104 -0.0189  0.2888
   94MOL    H1413220   1.895   3.341   1.570 -1.0976  4.4432  1.3446
   94MOL    H1513221   2.020   3.463   1.542 -0.3121 -0.0027  1.6718
   94MOL    C1613222   2.156   3.193   1.293 -0.2776  0.1079  0.4421
   94MOL    C1713223   2.061   3.126   1.201  0.8595 -0.0183  0.1118
   94MOL    O1813224   2.254   3.247   1.204 -0.7511  0.1231  0.2897
   94MOL    H1913225   2.204   3.117   1.355 -2.1358  0.1958  2.0409
   94MOL    H2013226   1.968   3.093   1.246  1.6662  1.1125  2.7282
   94MOL    H2113227   2.120   3.041   1.166  1.0392 -0.0632  0.5178
   94MOL    H2213228   2.044   3.185   1.111 -1.1835 -0.6975  0.0315
   94MOL    C2313229   2.353   3.331   1.272 -0.2639  0.3550  0.0589
   94MOL    C2413230   2.480   3.247   1.268 -0.9242  0.0823 -0.0701
   94MOL    O2513231   2.370   3.454   1.206  0.5088  0.2659 -0.4086
   94MOL    H2613232   2.328   3.359   1.374  0.7014  1.3962  0.0213
   94MOL    H2713233   2.564   3.291   1.322  0.6582 -3.5835  0.6330
   94MOL    H2813234   2.506   3.214   1.167  0.0265  1.3729 -0.2614
   94MOL    H2913235   2.459   3.155   1.323 -0.9484  0.2563  0.2100
   94MOL    C3013236   2.267   3.549   1.239  0.8259 -0.3784  1.2198
   94MOL    C3113237   2.324   3.657   1.335  0.7077 -0.5335 -0.2899
   94MOL    O3213238   2.227   3.620   1.122  0.7742  0.6422 -0.1423
   94MOL    H3313239   2.178   3.508   1.286  1.9790 -2.0461  1.9885
   94MOL    H3413240   2.342   3.601   1.426 -0.9038 -1.0091 -0.2452
   94MOL    H3513241   2.251   3.735   1.356  0.3511 -0.0566 -3.1227
   94MOL    H3613242   2.413   3.712   1.304 -0.7494  1.7893 -0.5518
   94MOL    C3713243   2.147   3.539   1.035 -0.3449 -0.3808  0.9842
   94MOL    C3813244   2.004   3.549   1.089 -0.3786  0.6421  0.0761
   94MOL    O3913245   2.155   3.589   0.908  0.3835  0.0543 -0.0966
   94MOL    H4013246   2.179   3.435   1.039  1.0986  0.0111 -0.1960
   94MOL    H4113247   1.987   3.508   1.188  2.3405 -0.7194  0.0288
   94MOL    H4213248   1.934   3.512   1.014  2.1694  0.1690 -2.1793
   94MOL    H4313249   1.994   3.657   1.093  0.8319  0.6949  2.2582
   94MOL    C4413250   2.278   3.591   0.851  0.5050 -0.5807 -0.5639
   94MOL    C4513251   2.302   3.466   0.774  0.4426  0.0200 -0.1097
   94MOL    O4613252   2.290   3.700   0.769 -0.1279 -0.0657 -0.1077
   94MOL    H4713253   2.357   3.610   0.924 -1.0461 -0.5950  1.1402
   94MOL    H4813254   2.266   3.373   0.819 -3.1306  1.2294 -0.2662
   94MOL    H4913255   2.409   3.458   0.755  0.1695  0.3483 -1.8927
   94MOL    H5013256   2.263   3.475   0.673 -0.0140  0.3482  0.0920
   94MOL    C5113257   2.302   3.819   0.840 -0.3343  0.2701 -1.1270
   94MOL    C5213258   2.459   3.850   0.841  0.0051  0.2695  0.0684
   94MOL    O5313259   2.230   3.926   0.788 -0.1886 -0.3169 -0.4790
   94MOL    H5413260   2.280   3.804   0.946 -2.1620  0.2789 -1.4885
   94MOL    H5513261   2.469   3.948   0.886  2.3594 -1.1657  2.8531
   94MOL    H5613262   2.507   3.859   0.743 -1.0190 -3.3957 -0.8727
   94MOL    H5713263   2.504   3.773   0.904 -1.4658 -2.9454 -2.6233
   94MOL    C5813264   2.095   3.917   0.825  0.1785 -0.8476 -0.4284
   94MOL    C5913265   2.067   4.052   0.895 -0.3382  0.4157 -0.0693
   94MOL    O6013266   2.014   3.918   0.716  0.4686  0.4014 -0.0407
   94MOL    H6113267   2.071   3.830   0.886  1.1290  0.3584  1.7263
   94MOL    H6213268   1.964   4.065   0.930 -1.6249 -0.5078 -3.2422
   94MOL    H6313269   2.084   4.142   0.836  0.8167  1.5872  2.0094
   94MOL    H6413270   2.139   4.065   0.975  1.9581 -0.6343 -1.8977
   94MOL    C6513271   2.003   3.800   0.653  0.4479 -0.1919  0.0680
   94MOL    C6613272   1.855   3.756   0.654  0.1781 -0.4037  0.1924
   94MOL    O6713273   2.021   3.819   0.516  0.1895 -0.4297  0.4164
   94MOL    H6813274   2.067   3.722   0.693  0.5174  0.6016  1.5492
   94MOL    H6913275   1.794   3.837   0.613 -1.1616 -0.9761  1.0204
   94MOL    H7013276   1.824   3.732   0.755 -0.2742  1.2973  0.4793
   94MOL    H7113277   1.838   3.680   0.578  0.0516  1.8859 -2.1660
   94MOL    C7213278   2.156   3.811   0.477  0.2464 -0.5835 -0.2878
   94MOL    C7313279   2.172   3.669   0.419  0.5647 -0.3392 -0.8784
   94MOL    O7413280   2.172   3.898   0.376 -0.5864  0.4459 -0.1254
   94MOL    H7513281   2.224   3.835   0.559 -2.7149  0.6599  1.8901
   94MOL    H7613282   2.275   3.650   0.387  0.3049  0.5849 -2.3053
   94MOL    H7713283   2.103   3.652   0.337 -0.4166  1.6360 -0.5038
   94MOL    H7813284   2.140   3.602   0.499 -1.6768  2.5357  0.7014
   94MOL    C7913285   2.176   4.030   0.424 -0.4947 -0.3073 -0.8669
   94MOL    C8013286   2.316   4.081   0.417 -0.0479  0.2399  0.2920
   94MOL    O8113287   2.100   4.120   0.344  0.4750 -0.2491  0.0159
   94MOL    H8213288   2.159   4.044   0.531  1.9466 -1.4262 -0.2921
   94MOL    H8313289   2.373   4.032   0.496 -0.2383  2.3349  1.7814
   94MOL    H8413290   2.319   4.187   0.443 -1.1556  0.0087  1.3558
   94MOL    H8513291   2.368   4.069   0.322 -0.2635 -0.5796  0.2710
   94MOL    C8613292   1.966   4.102   0.355  0.2176  0.4389 -1.2345
   94MOL    C8713293   1.917   4.202   0.467  0.2881 -0.6449 -0.1946
   94MOL    O8813294   1.897   4.119   0.234 -0.3157 -0.8497  0.0103
   94MOL    H8913295   1.944   3.999   0.386  1.8596  0.3016 -0.4971
   94MOL    H9013296   1.813   4.182   0.491  0.2394 -0.3978 -0.1962
   94MOL    H9113297   1.939   4.304   0.433  1.6782 -0.8453  0.0424
   94MOL    H9213298   1.976   4.182   0.556 -0.5763 -0.2957  0.4545
   94MOL    C9313299   1.942   4.034   0.133  0.1619 -0.0211 -0.5162
   94MOL    C9413300   1.834   3.935   0.100  0.0301  1.0217  0.1210
   94MOL    O9513301   1.982   4.104   0.019  0.2460  0.1141 -1.1109
   94MOL    H9613302   2.038   3.987   0.154 -0.8210 -2.4190 -1.2633
   94MOL    H9713303   1.807   3.884   0.192 -2.1451 -0.4536 -1.2833
   94MOL    H9813304   1.861   3.872   0.015  0.4895 -0.0598  1.0471
   94MOL    H9913305   1.742   3.986   0.071 -1.4465 -2.2404 -1.2049
   94MOL   C10013306   2.075   4.204   0.031  0.7940  0.3306  0.0914
   94MOL   C10113307   2.193   4.156   7.861 -0.7745 -0.3493  0.4737
   94MOL   O10213308   2.043   4.323   7.885  0.2441  0.3268  0.9701
   94MOL   H10313309   2.097   4.223   0.136 -0.1154  0.3881  0.2750
   94MOL   H10413310   2.236   4.058   7.882 -1.5200 -0.7821 -0.0036
   94MOL   H10513311   2.277   4.225   7.864  0.3255 -1.6185 -0.2495
   94MOL   H10613312   2.154   4.143   7.760  0.5265 -0.0117 -0.0868
   94MOL   C10713313   1.923   4.375   0.015  0.0132  0.9328  0.5106
   94MOL   C10813314   1.955   4.488   0.114 -0.0743 -0.3701  0.4738
   94MOL   O10913315   1.857   4.428   7.817  0.2674 -0.1657  0.0553
   94MOL   H11013316   1.859   4.299   0.061 -0.6097  0.9856 -0.2769
   94MOL   H11113317   2.020   4.548   0.051  1.1501 -0.8738  1.2554
   94MOL   H11213318   2.006   4.455   0.204  0.1254 -0.3970  0.3505
   94MOL   H11313319   1.856   4.527   0.136  0.6719  0.4087  2.5244
   94MOL   C11413320   1.811   4.335   7.726 -0.2532 -0.1548 -0.1140
   94MOL   C11513321   1.660   4.296   7.759 -0.5905 -0.2015  0.3305
   94MOL   O11613322   1.813   4.375   7.589  0.1708 -0.3416  0.5577
   94MOL   H11713323   1.881   4.252   7.736 -1.0349 -0.7106  0.8947
   94MOL   H11813324   1.594   4.382   7.744 -1.8906 -1.6159 -2.3761
   94MOL   H11913325   1.653   4.249   7.857  2.5328  0.5458  0.9418
   94MOL   H12013326   1.624   4.221   7.688  0.7731 -1.2953  0.7677
   94MOL   C12113327   1.937   4.376   7.535 -0.4756  0.2051 -0.3545
   94MOL   C12213328   1.973   4.236   7.472 -0.0136  0.5948  0.6747
   94MOL   O12313329   1.931   4.454   7.417 -0.3332 -0.1639 -0.1760
   94MOL   H12413330   2.024   4.412   7.590 -0.3869  0.0067 -0.3637
   94MOL   H12513331   2.051   4.252   7.397  0.6664  0.1252  1.2828
   94MOL   H12613332   1.886   4.198   7.418  2.0059 -1.6816 -1.0629
   94MOL   H12713333   1.996   4.174   7.558  0.9897  0.5344  0.3703
   94MOL   C12813334   1.899   4.583   7.443 -0.0127 -0.3254 -0.1809
   94MOL   C12913335   2.025   4.659   7.396  0.5318 -0.6659  0.2917
   94MOL   O13013336   1.791   4.622   7.363  0.1628  0.0574 -0.2080
   94MOL   H13113337   1.881   4.620   7.544 -0.4830 -1.0983  0.0157
   94MOL   H13213338   2.062   4.612   7.305 -0.1239 -0.6954  0.0399
   94MOL   H13313339   2.096   4.657   7.479  0.7692 -1.7840  0.0657
   94MOL   H13413340   1.994   4.762   7.375 -0.6040 -0.9837  0.3873
   94MOL   C13513341   1.666   4.568   7.397  0.7705 -0.1081 -0.3831
   94MOL   C13613342   1.571   4.661   7.325 -0.2026  0.4708 -0.1123
   94MOL   O13713343   1.648   4.434   7.363 -0.5865  0.4393 -0.7704
   94MOL   H13813344   1.656   4.577   7.505 -1.2639 -1.2265 -0.4577
   94MOL   H13913345   1.475   4.648   7.373  0.6525 -1.2301  1.1876
   94MOL   H14013346   1.555   4.635   7.220 -2.5186 -0.7031  0.5079
   94MOL   H14113347   1.607   4.762   7.343  0.5714 -0.2142  2.4052
   94MOL   H14213348   1.702   4.391   7.428  0.1426  1.2862 -0.7947
   95MOL     C113349   3.940   4.484   6.820  0.3425 -0.2570  0.6255
   95MOL     C213350   3.901   4.612   6.743 -0.2574  0.6215 -0.1507
   95MOL     O313351   4.058   4.512   6.896 -0.4708 -0.1043  0.4561
   95MOL     H413352   3.949   4.396   6.756 -3.2642  0.4801 -0.9940
   95MOL     H513353   3.984   4.643   6.679 -0.2772 -1.4366 -1.2118
   95MOL     H613354   3.887   4.696   6.811  4.0436  2.6152 -1.5460
   95MOL     H713355   3.807   4.591   6.690 -0.5463 -3.0636  1.6746
   95MOL     H813356   3.855   4.458   6.883 -1.2774 -0.8587 -1.7696
   95MOL     C913357   4.092   4.400   6.963 -0.0010 -0.2127 -0.7702
   95MOL    C1013358   4.234   4.427   7.016  0.3820  0.2389 -0.1004
   95MOL    O1113359   4.002   4.370   7.071 -0.4649  0.2829 -0.2988
   95MOL    H1213360   4.103   4.318   6.892 -2.3973  0.5230 -2.0537
   95MOL    H1313361   4.308   4.406   6.939 -1.6588  1.1242 -2.3352
   95MOL    H1413362   4.252   4.355   7.096 -1.0051 -1.6075 -1.4202
   95MOL    H1513363   4.238   4.526   7.062  2.4935  1.3054 -2.4458
   95MOL    C1613364   3.997   4.240   7.099  0.0880 -0.0621 -0.7941
   95MOL    C1713365   4.036   4.243   7.250  0.0024 -0.4142  0.1542
   95MOL    O1813366   3.865   4.191   7.089  0.0529  0.3651 -0.6858
   95MOL    H1913367   4.065   4.176   7.043  1.2712 -0.4384  1.0197
   95MOL    H2013368   3.967   4.308   7.302 -1.0664 -2.0296  0.7851
   95MOL    H2113369   4.141   4.273   7.256 -0.2464  0.8144 -1.4037
   95MOL    H2213370   4.015   4.141   7.284 -1.0442 -0.8667 -1.7882
   95MOL    C2313371   3.859   4.066   7.035 -0.7075 -0.5633  0.9061
   95MOL    C2413372   3.718   4.028   7.065  0.5500  0.0885  0.4343
   95MOL    O2513373   3.886   4.082   6.896  0.2028  0.7180  0.2104
   95MOL    H2613374   3.919   3.993   7.089  1.1420  0.0866 -0.2378
   95MOL    H2713375   3.697   3.934   7.015 -3.9606  1.3512 -0.2662
   95MOL    H2813376   3.649   4.102   7.024 -0.2792  0.1587  1.8967
   95MOL    H2913377   3.702   4.005   7.170  1.8771 -0.1455  0.5931
   95MOL    C3013378   3.958   3.973   6.842  0.0459 -0.4374  0.4428
   95MOL    C3113379   3.930   3.951   6.689 -0.2434  1.0268 -0.0406
   95MOL    O3213380   4.094   4.013   6.845 -0.1830 -0.0868 -0.2814
   95MOL    H3313381   3.940   3.880   6.895  2.7248 -1.1815  0.1510
   95MOL    H3413382   3.967   4.032   6.627  2.1903  1.8618  2.4166
   95MOL    H3513383   3.821   3.944   6.680 -0.2076  0.0696  0.1878
   95MOL    H3613384   3.968   3.854   6.659  0.4993  0.3135  3.0590
   95MOL    C3713385   4.182   3.911   6.883  0.6468 -0.7491  0.5053
   95MOL    C3813386   4.314   3.949   6.810 -0.5300  0.0844  0.1217
   95MOL    O3913387   4.199   3.909   7.027  0.5473  0.6706  0.0720
   95MOL    H4013388   4.141   3.822   6.836  0.2237  0.5003 -1.5553
   95MOL    H4113389   4.396   3.883   6.839  0.8755  0.7675 -2.1524
   95MOL    H4213390   4.337   4.051   6.840 -1.7343  0.4440 -0.1630
   95MOL    H4313391   4.286   3.952   6.704 -2.1745 -0.3684  0.5337
   95MOL    C4413392   4.184   3.778   7.078  0.0028 -0.0371 -0.3091
   95MOL    C4513393   4.226   3.784   7.225  0.2158 -0.0218  0.3308
   95MOL    O4613394   4.048   3.741   7.090  0.0003  0.8200  0.0383
   95MOL    H4713395   4.238   3.707   7.016  1.3198 -1.4251  2.3373
   95MOL    H4813396   4.156   3.850   7.277 -1.4044 -0.5945 -1.1017
   95MOL    H4913397   4.326   3.827   7.232 -0.3602  1.1779  1.5072
   95MOL    H5013398   4.206   3.691   7.277  1.2023 -1.6494 -2.1151
   95MOL    C5113399   4.013   3.621   7.030  0.3105  0.0294 -0.4189
   95MOL    C5213400   3.863   3.591   7.065 -0.0623 -0.0473 -0.0781
   95MOL    O5313401   4.014   3.628   6.895 -0.2286  0.1118  0.0969
   95MOL    H5413402   4.081   3.543   7.065  1.2510  0.5744 -0.9920
   95MOL    H5513403   3.856   3.598   7.173 -2.6855 -1.2177 -0.1311
   95MOL    H5613404   3.823   3.493   7.040  1.4160 -0.6033 -0.2828
   95MOL    H5713405   3.799   3.672   7.031  2.7059  1.8576 -0.9491
   95MOL    C5813406   4.039   3.502   6.841  0.6491  0.0948  0.4106
   95MOL    C5913407   3.979   3.510   6.699  0.2597  0.3287 -0.7198
   95MOL    O6013408   4.174   3.494   6.829  0.6460 -0.8568 -0.0298
   95MOL    H6113409   3.994   3.416   6.890 -0.1573  0.9659  1.2047
   95MOL    H6213410   4.032   3.587   6.642  0.7063  2.6931  2.7360
   95MOL    H6313411   3.875   3.543   6.702  0.1014 -0.2469  0.2865
   95MOL    H6413412   3.985   3.416   6.643 -1.2263 -0.0866 -0.2058
   95MOL    C6513413   4.233   3.375   6.875 -0.3994  0.1668 -1.0270
   95MOL    C6613414   4.378   3.367   6.817 -0.0526 -0.4291 -0.5122
   95MOL    O6713415   4.236   3.374   7.015  0.5504  0.1728  0.3484
   95MOL    H6813416   4.180   3.284   6.848  1.4566 -2.1645  2.7151
   95MOL    H6913417   4.407   3.264   6.838  2.3792  0.4508  0.5933
   95MOL    H7013418   4.449   3.440   6.854 -1.8291  0.8512  0.4155
   95MOL    H7113419   4.374   3.373   6.708  0.8825 -1.3351 -0.6080
   95MOL    C7213420   4.209   3.245   7.077  0.3537 -0.3487  0.1268
   95MOL    C7313421   4.227   3.268   7.229  0.2152 -0.2334 -0.1672
   95MOL    O7413422   4.079   3.208   7.053 -0.1659  0.4117 -0.4051
   95MOL    H7513423   4.288   3.177   7.046  2.4260  1.0492  2.1408
   95MOL    H7613424   4.331   3.288   7.253  0.0856  0.3733 -0.0842
   95MOL    H7713425   4.202   3.174   7.277  0.4287 -0.0343  0.3411
   95MOL    H7813426   4.173   3.357   7.262  0.5568  0.6601 -1.9603
   95MOL    C7913427   4.053   3.083   6.995 -0.4989 -0.5705  0.7178
   95MOL    C8013428   3.909   3.041   7.024 -0.4595 -0.7573 -0.3793
   95MOL    O8113429   4.058   3.091   6.856  0.2333  0.0252  0.5257
   95MOL    H8213430   4.113   3.003   7.037  1.6260  0.0772 -1.0048
   95MOL    H8313431   3.898   3.019   7.130 -0.1026  1.8891  0.2412
   95MOL    H8413432   3.881   2.956   6.961  0.5125 -0.3129 -1.4425
   95MOL    H8513433   3.851   3.129   6.999 -0.3858 -0.4090  0.6787
   95MOL    C8613434   4.160   3.005   6.813  0.7303  0.1864 -0.6022
   95MOL    C8713435   4.134   3.006   6.658  0.4657 -0.8819 -0.6220
   95MOL    O8813436   4.285   3.064   6.840 -0.3462 -0.4621 -0.2055
   95MOL    H8913437   4.155   2.907   6.860  2.9748  0.2925 -0.0625
   95MOL    H9013438   4.064   2.924   6.643  1.4462 -2.0477  1.0426
   95MOL    H9113439   4.233   2.998   6.612  0.9611  3.8848 -0.6064
   95MOL    H9213440   4.088   3.102   6.635  0.0671 -0.4922  1.6788
   95MOL    C9313441   4.377   2.969   6.885 -0.1110 -0.5561  0.1961
   95MOL    C9413442   4.512   3.030   6.832  0.7332 -0.2706  0.5035
   95MOL    O9513443   4.377   2.957   7.025 -0.0233 -0.0566  0.0778
   95MOL    H9613444   4.361   2.879   6.826  0.2431  1.3050 -2.8907
   95MOL    H9713445   4.497   3.068   6.731 -2.3241 -0.6768  0.7711
   95MOL    H9813446   4.586   2.952   6.815  1.8833  1.0135 -0.5386
   95MOL    H9913447   4.553   3.115   6.888  0.7120  0.1563 -0.1302
   95MOL   C10013448   4.372   2.820   7.071 -0.2268  0.4608 -0.0519
   95MOL   C10113449   4.349   2.828   7.225 -0.3487 -0.1254 -0.7717
   95MOL   O10213450   4.271   2.741   7.014  0.5858 -0.2044  0.4060
   95MOL   H10313451   4.470   2.780   7.048 -0.6020 -1.0175  0.8766
   95MOL   H10413452   4.353   2.732   7.277  1.4725  0.1100 -0.4333
   95MOL   H10513453   4.253   2.878   7.238 -2.4246 -3.0682 -3.7491
   95MOL   H10613454   4.423   2.892   7.273 -1.2350  0.2605  0.0837
   95MOL   C10713455   4.309   2.621   6.961  0.6194  0.2533  0.0333
   95MOL   C10813456   4.189   2.543   6.924  0.2693  0.1944 -0.3377
   95MOL   O10913457   4.389   2.639   6.842  0.0514  0.4284  0.2339
   95MOL   H11013458   4.367   2.581   7.045  3.0089 -1.5360 -2.3558
   95MOL   H11113459   4.127   2.523   7.011  2.3841 -1.9717  0.7090
   95MOL   H11213460   4.225   2.444   6.896  0.8322  0.4336 -0.4684
   95MOL   H11313461   4.124   2.583   6.846 -0.1283  2.5277  1.1352
   95MOL   C11413462   4.508   2.561   6.837  0.0869  0.1681 -0.6618
   95MOL   C11513463   4.580   2.594   6.712 -0.2299  0.2716 -0.5295
   95MOL   O11613464   4.594   2.595   6.947 -0.1308  0.0424 -0.0040
   95MOL   H11713465   4.478   2.457   6.851 -0.0724  0.3465  0.3920
   95MOL   H11813466   4.680   2.549   6.715  0.3884  1.6206 -0.5251
   95MOL   H11913467   4.592   2.701   6.700  2.8757 -0.0147 -0.5686
   95MOL   H12013468   4.522   2.559   6.627  0.0237  1.2385 -1.1118
   95MOL   C12113469   4.656   2.480   7.013 -0.4128 -0.4782 -0.2016
   95MOL   C12213470   4.750   2.538   7.128  0.2399 -0.9445  0.8730
   95MOL   O12313471   4.556   2.400   7.076 -0.4188  0.1857 -0.0040
   95MOL   H12413472   4.718   2.425   6.942  1.4299  0.6541  0.4927
   95MOL   H12513473   4.697   2.563   7.220 -1.9311  1.6149 -1.0252
   95MOL   H12613474   4.806   2.623   7.090 -0.2675 -0.9119  0.1916
   95MOL   H12713475   4.817   2.458   7.160  0.5712 -1.1055 -0.1945
   95MOL   C12813476   4.602   2.271   7.112  0.6233 -0.4071  0.0096
   95MOL   C12913477   4.489   2.206   7.181 -0.8357  0.0594 -0.4430
   95MOL   O13013478   4.637   2.197   7.001 -0.1429  0.5466  0.5899
   95MOL   H13113479   4.686   2.281   7.180  0.5739 -1.3293  0.2158
   95MOL   H13213480   4.439   2.272   7.252  0.0164  0.1927  0.0413
   95MOL   H13313481   4.531   2.122   7.237 -0.1681  0.0674 -0.9210
   95MOL   H13413482   4.414   2.171   7.110 -1.8852 -0.8737  1.0942
   95MOL   C13513483   4.752   2.114   7.023  0.3905  0.1903 -0.5586
   95MOL   C13613484   4.770   2.029   6.897  0.0587 -0.1167  0.0789
   95MOL   O13713485   4.869   2.193   7.037  0.1839 -0.7764 -0.3479
   95MOL   H13813486   4.724   2.059   7.112  1.0648  2.1885  0.9135
   95MOL   H13913487   4.775   2.098   6.813 -1.7081 -0.2293 -0.1368
   95MOL   H14013488   4.679   1.970   6.889  1.4423 -2.4631  1.1336
   95MOL   H14113489   4.858   1.965   6.905  0.5516  0.2531 -2.1126
   95MOL   H14213490   4.915   2.185   6.955 -0.0846  0.2928 -0.6152
   96MOL     C113491   6.894   0.602   2.679  0.1815 -0.1917 -0.3631
   96MOL     C213492   6.778   0.695   2.697 -0.6687 -0.2891  0.2675
   96MOL     O313493   6.915   0.528   2.797  0.2137  0.2866 -0.4223
   96MOL     H413494   6.990   0.645   2.651  0.5339  0.0933  1.2358
   96MOL     H513495   6.790   0.762   2.612  0.9132 -0.4532  0.3439
   96MOL     H613496   6.772   0.745   2.794 -0.3087 -1.3547  0.8444
   96MOL     H713497   6.680   0.649   2.715 -0.9873  0.1933 -0.2387
   96MOL     H813498   6.870   0.544   2.590  0.0350  0.8324 -0.9919
   96MOL     C913499   7.020   0.441   2.806  0.1989 -0.2430  0.0537
   96MOL    C1013500   7.120   0.512   2.891 -0.4481 -0.2394 -0.0854
   96MOL    O1113501   6.995   0.314   2.869 -0.6647 -0.1111  0.5746
   96MOL    H1213502   7.059   0.409   2.709 -0.2416 -0.6612  0.0118
   96MOL    H1313503   7.214   0.458   2.889 -0.2673  0.0353  0.6635
   96MOL    H1413504   7.085   0.524   2.994  0.5586 -2.6393  0.5686
   96MOL    H1513505   7.146   0.608   2.845 -0.8114  1.4499  3.1008
   96MOL    C1613506   6.888   0.244   2.815  0.4560  0.8236  0.6905
   96MOL    C1713507   6.941   0.114   2.760 -0.3477 -0.5065 -0.1244
   96MOL    O1813508   6.790   0.219   2.910 -0.2149  0.2384  0.1843
   96MOL    H1913509   6.848   0.296   2.728  1.6180 -0.1464 -0.4400
   96MOL    H2013510   6.856   0.049   2.739 -1.7999  0.8686  1.3080
   96MOL    H2113511   7.005   0.068   2.835 -0.9917  1.9448  2.0067
   96MOL    H2213512   7.007   0.140   2.678 -0.9794  2.5777  0.2911
   96MOL    C2313513   6.686   0.310   2.906  0.1287 -0.1845  0.4280
   96MOL    C2413514   6.559   0.245   2.854  0.0008 -0.1957 -1.0331
   96MOL    O2513515   6.664   0.352   3.042  0.2523 -0.8131 -0.0840
   96MOL    H2613516   6.704   0.403   2.852  1.1369 -0.4308  0.3389
   96MOL    H2713517   6.476   0.316   2.846  0.6802  0.8794  1.0971
   96MOL    H2813518   6.525   0.159   2.912  0.5729  0.5415  0.4212
   96MOL    H2913519   6.592   0.215   2.754 -2.3904 -2.8804 -1.0717
   96MOL    C3013520   6.766   0.424   3.099 -0.7547 -0.4211  0.1993
   96MOL    C3113521   6.731   0.571   3.078 -0.1249 -0.0768  0.2739
   96MOL    O3213522   6.763   0.403   3.233 -0.8387 -0.6561  0.3110
   96MOL    H3313523   6.860   0.395   3.052 -1.3931  0.5420 -1.7488
   96MOL    H3413524   6.638   0.593   3.131 -0.9482  2.6468 -2.1463
   96MOL    H3513525   6.714   0.599   2.974 -1.7375 -1.5683  0.1163
   96MOL    H3613526   6.810   0.631   3.124 -0.4711 -0.3530  1.2463
   96MOL    C3713527   6.831   0.284   3.259  0.0941 -0.0611 -0.4831
   96MOL    C3813528   6.982   0.307   3.265  0.3356 -0.4924  0.4628
   96MOL    O3913529   6.795   0.217   3.378  0.3157  0.8434 -0.0681
   96MOL    H4013530   6.805   0.210   3.183  1.9828  1.4817 -2.6802
   96MOL    H4113531   7.022   0.333   3.363 -1.1688 -1.9318  1.4835
   96MOL    H4213532   7.008   0.394   3.205 -0.0103 -0.9865 -0.4006
   96MOL    H4313533   7.037   0.218   3.235 -0.6293 -0.9498  0.0227
   96MOL    C4413534   6.651   0.201   3.388 -0.5223  0.8383 -0.3995
   96MOL    C4513535   6.628   0.050   3.399  0.0218  0.5269 -0.6666
   96MOL    O4613536   6.608   0.254   3.508  0.4333  0.3763  0.2377
   96MOL    H4713537   6.595   0.242   3.303 -1.9829  0.0791  0.1816
   96MOL    H4813538   6.669   7.911   3.313 -0.1558  0.2380 -0.5775
   96MOL    H4913539   6.523   0.019   3.396  0.4036 -0.9597  0.6590
   96MOL    H5013540   6.674   0.021   3.493  0.0958  0.1926 -0.8032
   96MOL    C5113541   6.586   0.397   3.502 -0.6473  0.6320 -0.0429
   96MOL    C5213542   6.442   0.417   3.449 -0.0418  0.1470 -0.2311
   96MOL    O5313543   6.590   0.448   3.632  0.2553  0.2946 -0.1438
   96MOL    H5413544   6.667   0.428   3.436 -0.1681 -0.3378  0.0781
   96MOL    H5513545   6.416   0.377   3.351  0.2280 -0.8734  0.1017
   96MOL    H5613546   6.429   0.525   3.448 -0.8565  0.0958  2.0790
   96MOL    H5713547   6.374   0.372   3.521  1.3938 -2.9075 -0.6690
   96MOL    C5813548   6.694   0.536   3.660 -0.3609 -0.2086 -0.6509
   96MOL    C5913549   6.639   0.644   3.743 -0.1645 -0.1925  0.9074
   96MOL    O6013550   6.798   0.478   3.739 -0.3580 -0.5520  0.2586
   96MOL    H6113551   6.734   0.573   3.566  1.3887  1.5739  0.7791
   96MOL    H6213552   6.716   0.702   3.795  1.2811 -3.7800  2.9167
   96MOL    H6313553   6.576   0.600   3.820 -1.7157  2.5152  1.2610
   96MOL    H6413554   6.590   0.713   3.675  0.0807 -1.8372 -0.9769
   96MOL    C6513555   6.888   0.411   3.665  0.4874 -0.7586  0.2815
   96MOL    C6613556   6.995   0.517   3.634  0.3125 -0.1368  0.1909
   96MOL    O6713557   6.954   0.323   3.742  0.2546  0.5107  0.2257
   96MOL    H6813558   6.850   0.370   3.571  1.5481  0.4871 -0.7015
   96MOL    H6913559   7.081   0.460   3.599 -0.0902  0.8860 -2.5443
   96MOL    H7013560   7.029   0.576   3.719 -1.4723  0.5503  0.4497
   96MOL    H7113561   6.970   0.582   3.550 -4.3754 -2.6865 -0.5248
   96MOL    C7213562   6.887   0.208   3.778 -0.0719  0.3228  0.4169
   96MOL    C7313563   6.988   0.090   3.784 -0.3001 -0.7167 -0.2272
   96MOL    O7413564   6.822   0.223   3.902  0.1536 -0.0338 -0.2129
   96MOL    H7513565   6.816   0.189   3.698 -0.9256  2.1048  0.7271
   96MOL    H7613566   7.080   0.123   3.833  1.2773  0.8903 -4.1086
   96MOL    H7713567   7.012   0.062   3.682 -0.1576  0.7314 -0.5937
   96MOL    H7813568   6.934   0.010   3.836 -0.5110 -0.4306 -0.0053
   96MOL    C7913569   6.682   0.226   3.898  0.3524  0.5554  0.1168
   96MOL    C8013570   6.623   0.084   3.878 -0.8758  0.3357 -0.2060
   96MOL    O8113571   6.638   0.271   4.023 -0.4494 -0.0414 -0.2557
   96MOL    H8213572   6.657   0.301   3.823  0.3237 -0.7008 -1.1443
   96MOL    H8313573   6.631   0.029   3.972 -0.2031 -1.3128 -1.2095
   96MOL    H8413574   6.657   0.026   3.792 -0.2298 -1.3764  1.1676
   96MOL    H8513575   6.518   0.103   3.857 -1.1680 -0.2164  0.6981
   96MOL    C8613576   6.656   0.410   4.042 -0.5789 -0.1907 -0.0358
   96MOL    C8713577   6.517   0.476   4.082  0.4208  0.1253 -0.3835
   96MOL    O8813578   6.742   0.430   4.151 -0.4553  0.3666  0.4348
   96MOL    H8913579   6.695   0.464   3.955  0.6802 -0.6912  0.2164
   96MOL    H9013580   6.443   0.465   4.002  0.9182  2.2367 -1.1720
   96MOL    H9113581   6.533   0.583   4.093 -1.6700  0.6643 -2.1760
   96MOL    H9213582   6.483   0.441   4.179 -0.2954  2.0059  0.0610
   96MOL    C9313583   6.871   0.452   4.115 -0.3035  0.4948  0.8809
   96MOL    C9413584   6.898   0.602   4.113 -0.2704  0.1738  0.2694
   96MOL    O9513585   6.953   0.399   4.211  0.4560  0.3803  0.2587
   96MOL    H9613586   6.894   0.413   4.016  0.2700 -0.5196  1.3995
   96MOL    H9713587   6.888   0.647   4.212 -0.1550 -0.3468  0.5189
   96MOL    H9813588   6.824   0.634   4.040  1.2510 -1.2330 -1.9094
   96MOL    H9913589   6.995   0.628   4.072 -1.3676  3.1054 -0.6309
   96MOL   C10013590   6.976   0.263   4.211  0.4032 -0.1003 -0.2646
   96MOL   C10113591   7.123   0.238   4.172 -0.1909 -0.1295 -0.0735
   96MOL   O10213592   6.955   0.205   4.330  0.3886 -0.0238 -0.4477
   96MOL   H10313593   6.912   0.208   4.142 -0.0983 -0.5946  0.5830
   96MOL   H10413594   7.180   0.297   4.243  0.9935 -0.5496 -0.6564
   96MOL   H10513595   7.149   0.267   4.069  0.3961 -2.0186 -0.4708
   96MOL   H10613596   7.156   0.135   4.181  1.6339  0.3679 -0.7201
   96MOL   C10713597   6.819   0.175   4.355  0.2388 -0.6071 -0.3938
   96MOL   C10813598   6.800   0.021   4.359 -1.1051 -0.5844 -0.2165
   96MOL   O10913599   6.785   0.219   4.487 -0.0262  0.0727  0.1996
   96MOL   H11013600   6.753   0.213   4.277  1.2830 -1.9456 -1.9560
   96MOL   H11113601   6.843   7.901   4.265  1.7797  1.7032  0.1873
   96MOL   H11213602   6.704   7.894   4.391 -1.9477  0.3944 -1.4535
   96MOL   H11313603   6.866   7.900   4.439  1.9840  1.4619 -1.7745
   96MOL   C11413604   6.723   0.348   4.497 -0.2277  0.2273  0.0011
   96MOL   C11513605   6.577   0.318   4.534  0.3393  0.4251  0.4482
   96MOL   O11613606   6.778   0.424   4.604 -0.2749  0.0690  0.4017
   96MOL   H11713607   6.727   0.404   4.404 -0.9479  1.3740  0.6518
   96MOL   H11813608   6.555   0.254   4.620 -3.4739  0.4987 -0.3928
   96MOL   H11913609   6.541   0.267   4.445 -1.0811  0.9642  0.7147
   96MOL   H12013610   6.519   0.405   4.562  1.2806  0.9665  0.7453
   96MOL   C12113611   6.891   0.492   4.562 -0.0811  0.0489 -0.1090
   96MOL   C12213612   6.870   0.639   4.572  0.1309  0.2151  0.0150
   96MOL   O12313613   6.993   0.469   4.658  0.1397  0.3418 -0.0839
   96MOL   H12413614   6.915   0.460   4.461  0.4251  0.1696 -0.0309
   96MOL   H12513615   6.951   0.699   4.531 -1.2928  1.9452 -0.3559
   96MOL   H12613616   6.862   0.666   4.678  1.5228 -0.1220  0.2135
   96MOL   H12713617   6.778   0.665   4.520 -1.1216 -1.6611  1.2176
   96MOL   C12813618   7.073   0.353   4.634  0.2175 -0.5503  0.1875
   96MOL   C12913619   7.215   0.417   4.592 -0.0547 -0.6880 -0.2051
   96MOL   O13013620   7.093   0.280   4.747 -0.1140  0.1770 -0.7336
   96MOL   H13113621   7.032   0.292   4.553  0.3515 -1.2036  0.6066
   96MOL   H13213622   7.248   0.504   4.648  0.8705 -0.7070 -0.7180
   96MOL   H13313623   7.215   0.439   4.486  1.8995  0.1331 -0.0482
   96MOL   H13413624   7.300   0.350   4.607 -1.0131 -1.4775  1.9262
   96MOL   C13513625   6.993   0.188   4.765  0.1788 -0.0834  0.4550
   96MOL   C13613626   7.047   0.069   4.857 -0.1636  0.0045  0.3898
   96MOL   O13713627   6.877   0.242   4.823  0.1746  0.4576  0.4056
   96MOL   H13813628   6.969   0.140   4.670 -0.0634  1.2503 -0.1587
   96MOL   H13913629   6.961   0.003   4.864 -0.2421  0.1383  0.6949
   96MOL   H14013630   7.083   0.109   4.952 -3.4050  1.4159  1.0880
   96MOL   H14113631   7.135   0.022   4.813  0.1154  0.0240  0.9282
   96MOL   H14213632   6.830   0.288   4.755  0.7357  1.5544  0.7560
   97MOL     C113633   5.393   1.838   3.560 -1.0322 -0.5323 -1.0508
   97MOL     C213634   5.415   1.761   3.433  0.0647 -0.5802  0.2113
   97MOL     O313635   5.255   1.839   3.592 -0.6570 -0.0653  0.4319
   97MOL     H413636   5.437   1.938   3.556 -1.3478 -0.2422  1.8164
   97MOL     H513637   5.367   1.805   3.346 -1.8223 -0.8350  1.0780
   97MOL     H613638   5.362   1.666   3.451 -0.9042 -0.1975 -0.5966
   97MOL     H713639   5.517   1.732   3.408  0.9469  0.9986  1.8544
   97MOL     H813640   5.452   1.797   3.642 -0.3272  0.7519 -0.9107
   97MOL     C913641   5.219   1.855   3.728  0.1215 -0.0551 -0.7275
   97MOL    C1013642   5.257   1.999   3.768  0.6627 -0.4104  0.2912
   97MOL    O1113643   5.085   1.849   3.746  0.4045 -0.3032 -0.1818
   97MOL    H1213644   5.274   1.778   3.783  0.3074  0.4347 -0.2289
   97MOL    H1313645   5.233   2.020   3.873  1.4377  0.6109  0.2704
   97MOL    H1413646   5.198   2.066   3.705  0.7644  0.9765  1.6413
   97MOL    H1513647   5.363   2.014   3.748  1.0118  0.1873  2.4682
   97MOL    C1613648   5.038   1.719   3.761 -0.2030 -0.7877  0.0301
   97MOL    C1713649   5.015   1.694   3.913  0.4048  0.3233 -0.0751
   97MOL    O1813650   4.924   1.694   3.697 -0.6060 -0.3194 -0.1560
   97MOL    H1913651   5.108   1.649   3.716 -1.5704 -1.9122 -0.3892
   97MOL    H2013652   4.998   1.591   3.943  0.9915  0.2886  0.1441
   97MOL    H2113653   4.937   1.763   3.946  1.0928  1.9767 -1.7870
   97MOL    H2213654   5.102   1.721   3.973 -1.1973  1.1889  1.9095
   97MOL    C2313655   4.934   1.739   3.564 -0.3676 -0.1351 -0.7915
   97MOL    C2413656   4.925   1.621   3.472  0.1427 -0.6713  1.0807
   97MOL    O2513657   4.818   1.810   3.532 -0.2275  0.3258  0.5008
   97MOL    H2613658   5.021   1.799   3.534  0.9680 -2.0081 -0.7849
   97MOL    H2713659   5.014   1.558   3.475  1.4404  1.0267 -0.5419
   97MOL    H2813660   4.942   1.658   3.370  1.7677  0.3028  1.6896
   97MOL    H2913661   4.836   1.560   3.488 -0.6073  0.0270 -0.3568
   97MOL    C3013662   4.814   1.937   3.579  0.3951 -0.1363  0.0308
   97MOL    C3113663   4.843   2.031   3.456 -0.2998 -0.6547 -0.2340
   97MOL    O3213664   4.690   1.969   3.614 -0.2372 -0.3831  0.2558
   97MOL    H3313665   4.876   1.951   3.668 -0.5887 -2.7496  1.1790
   97MOL    H3413666   4.934   1.997   3.407 -0.3176 -1.3612  0.2166
   97MOL    H3513667   4.844   2.135   3.490 -1.7589 -0.8205  0.3346
   97MOL    H3613668   4.765   2.022   3.381  0.2740  0.6741 -1.0090
   97MOL    C3713669   4.647   1.894   3.722  0.0246 -0.6235 -0.4343
   97MOL    C3813670   4.609   2.000   3.834 -0.3441 -0.0319 -0.7615
   97MOL    O3913671   4.523   1.834   3.706 -0.1498  0.2394 -0.0076
   97MOL    H4013672   4.713   1.818   3.764  3.6462  1.9712 -1.1876
   97MOL    H4113673   4.583   1.935   3.917 -1.3457  0.2452 -0.8582
   97MOL    H4213674   4.526   2.057   3.793 -2.5371 -1.5590  1.4353
   97MOL    H4313675   4.695   2.059   3.865  0.6403 -0.3281 -2.7760
   97MOL    C4413676   4.522   1.724   3.630 -0.6392  0.0769  0.0290
   97MOL    C4513677   4.467   1.600   3.711  0.6475  0.1262 -0.4204
   97MOL    O4613678   4.426   1.756   3.536 -0.2705 -0.3987  0.1765
   97MOL    H4713679   4.615   1.698   3.580 -0.8749 -0.2650 -0.2380
   97MOL    H4813680   4.469   1.513   3.646 -1.1630 -0.0707 -0.2285
   97MOL    H4913681   4.365   1.635   3.729  1.2337  1.5675  0.1878
   97MOL    H5013682   4.513   1.588   3.809  2.4838 -0.7119 -1.3771
   97MOL    C5113683   4.472   1.820   3.427  0.7105  0.4141  0.3120
   97MOL    C5213684   4.506   1.724   3.309  0.4147  0.2403  0.5801
   97MOL    O5313685   4.386   1.915   3.377  0.8441  0.0874 -0.0784
   97MOL    H5413686   4.571   1.865   3.436  0.6461  0.6947 -0.3241
   97MOL    H5513687   4.604   1.681   3.331  1.6222  2.7122  0.3082
   97MOL    H5613688   4.508   1.773   3.211 -0.5009 -0.1020  0.3847
   97MOL    H5713689   4.434   1.643   3.300  0.2566  0.5197 -0.8368
   97MOL    C5813690   4.381   2.025   3.459 -0.4746  0.3333 -0.2742
   97MOL    C5913691   4.424   2.141   3.371 -0.2940 -0.1904  0.0080
   97MOL    O6013692   4.249   2.048   3.500  0.8678 -0.3309 -0.3263
   97MOL    H6113693   4.447   2.015   3.545 -1.8854 -1.0973  0.6553
   97MOL    H6213694   4.421   2.234   3.428  1.2544 -0.3314  0.3324
   97MOL    H6313695   4.363   2.152   3.281 -0.0239 -0.7338 -0.2417
   97MOL    H6413696   4.525   2.128   3.334 -0.2306 -0.7245  0.3667
   97MOL    C6513697   4.204   1.973   3.609  0.1753  0.8219  0.4870
   97MOL    C6613698   4.194   2.073   3.726 -0.5571  0.9579  0.0998
   97MOL    O6713699   4.070   1.927   3.590  0.3995  0.2307 -0.3893
   97MOL    H6813700   4.265   1.887   3.636 -0.0994  0.4402 -0.0833
   97MOL    H6913701   4.295   2.108   3.749  0.1247 -0.2071 -1.0975
   97MOL    H7013702   4.145   2.028   3.812 -0.2430 -1.0818 -0.7757
   97MOL    H7113703   4.133   2.158   3.693 -1.6232  0.1481 -0.0610
   97MOL    C7213704   4.066   1.818   3.496 -0.3665 -0.7494 -0.1791
   97MOL    C7313705   4.018   1.696   3.571 -0.2884  0.4180  0.2606
   97MOL    O7413706   3.971   1.854   3.405  0.4140 -0.0933 -0.4867
   97MOL    H7513707   4.162   1.792   3.451 -0.3011 -2.9919  1.1823
   97MOL    H7613708   4.094   1.686   3.649 -1.7865  1.5882  1.9266
   97MOL    H7713709   4.035   1.613   3.502 -1.3882 -0.6485  1.2228
   97MOL    H7813710   3.915   1.695   3.609 -0.8547  0.0929 -1.2625
   97MOL    C7913711   4.023   1.923   3.295  0.5396  0.1341  0.6518
   97MOL    C8013712   4.018   1.817   3.183  0.1103  0.0722 -0.6564
   97MOL    O8113713   3.945   2.028   3.252 -0.1631  0.7198 -0.7160
   97MOL    H8213714   4.119   1.971   3.311 -0.5723  1.7995  2.4060
   97MOL    H8313715   4.101   1.747   3.195 -0.6444 -0.4869  1.5042
   97MOL    H8413716   4.019   1.868   3.086 -0.7590  0.3973 -0.5016
   97MOL    H8513717   3.925   1.763   3.199  0.4384 -0.4483 -0.4927
   97MOL    C8613718   3.921   2.127   3.346 -0.4408 -1.0947  0.5757
   97MOL    C8713719   4.013   2.238   3.311  0.1688 -0.0660  0.0510
   97MOL    O8813720   3.787   2.174   3.341  0.2065  0.1485 -0.4451
   97MOL    H8913721   3.947   2.090   3.445 -0.1358  1.8277  1.6204
   97MOL    H9013722   4.017   2.308   3.394 -0.9996  0.7805 -0.5808
   97MOL    H9113723   3.977   2.293   3.224  3.4680  0.9457 -0.7216
   97MOL    H9213724   4.113   2.211   3.276  1.4619  1.5853  2.3547
   97MOL    C9313725   3.698   2.064   3.360  0.3055 -0.5053  0.8128
   97MOL    C9413726   3.656   2.073   3.508  0.0398 -0.0416  0.2605
   97MOL    O9513727   3.579   2.083   3.284 -0.3175  0.5890  0.7668
   97MOL    H9613728   3.732   1.963   3.338 -0.2221 -0.0344 -2.4120
   97MOL    H9713729   3.582   1.996   3.529  0.9456 -0.4590  2.0058
   97MOL    H9813730   3.597   2.163   3.521 -0.6253 -0.4644  0.2212
   97MOL    H9913731   3.742   2.055   3.573  1.3351  0.7383 -1.2177
   97MOL   C10013732   3.597   2.062   3.146 -0.1271 -0.7137 -0.2871
   97MOL   C10113733   3.555   1.922   3.106 -0.0589  0.6296  0.5021
   97MOL   O10213734   3.502   2.148   3.075 -0.0301  0.2360 -0.4274
   97MOL   H10313735   3.700   2.084   3.120 -0.0938 -1.4325 -0.7645
   97MOL   H10413736   3.457   1.904   3.151 -1.2862  0.2683 -2.1999
   97MOL   H10513737   3.630   1.847   3.129 -0.9666 -0.9790 -1.6086
   97MOL   H10613738   3.558   1.929   2.997  2.6934 -0.8237  0.4375
   97MOL   C10713739   3.523   2.284   3.101 -0.0232  0.0913 -0.5260
   97MOL   C10813740   3.588   2.348   2.985  1.1304  0.0730  0.2962
   97MOL   O10913741   3.403   2.350   3.122  1.4635 -0.5067  0.9732
   97MOL   H11013742   3.591   2.290   3.186  0.7972 -5.7493 -0.5979
   97MOL   H11113743   3.518   2.350   2.902  0.8526 -0.0122  0.5258
   97MOL   H11213744   3.675   2.289   2.956 -0.7563 -2.2973 -0.6275
   97MOL   H11313745   3.621   2.450   3.007 -0.2099  1.0751 -2.2073
   97MOL   C11413746   3.326   2.313   3.227 -0.3860 -0.2234  0.1831
   97MOL   C11513747   3.352   2.428   3.330 -0.3371 -0.1180 -0.3573
   97MOL   O11613748   3.192   2.319   3.188  0.2792  0.5691  0.0463
   97MOL   H11713749   3.354   2.219   3.273  0.5966  0.9718  2.1292
   97MOL   H11813750   3.283   2.422   3.415 -0.1118  1.8625 -0.0055
   97MOL   H11913751   3.333   2.524   3.282  0.1531  0.0386 -0.2353
   97MOL   H12013752   3.457   2.432   3.358 -0.5497  2.1403  0.1684
   97MOL   C12113753   3.138   2.204   3.142  0.3639  0.4300 -0.3873
   97MOL   C12213754   3.065   2.132   3.250  0.2831 -0.2949 -0.3222
   97MOL   O12313755   3.043   2.232   3.040 -0.2809 -0.3692 -0.1397
   97MOL   H12413756   3.220   2.149   3.095  0.2361  0.6947 -0.9218
   97MOL   H12513757   2.988   2.196   3.293  0.8117 -2.0197  3.4846
   97MOL   H12613758   3.130   2.112   3.335 -1.9600  1.3378  1.8621
   97MOL   H12713759   3.017   2.046   3.203  0.1953  0.8432 -2.3661
   97MOL   C12813760   3.097   2.281   2.925 -0.8213  0.0365  0.1888
   97MOL   C12913761   3.062   2.177   2.819 -0.1186 -0.0554 -0.3004
   97MOL   O13013762   3.032   2.405   2.896 -0.0092 -0.2831 -0.3586
   97MOL   H13113763   3.204   2.305   2.929 -1.0557  1.6162 -1.9399
   97MOL   H13213764   3.122   2.186   2.729 -0.3995 -0.9172 -0.5860
   97MOL   H13313765   2.963   2.203   2.781 -0.1775  0.9279  0.5062
   97MOL   H13413766   3.059   2.075   2.858 -1.0469  0.2671  0.5215
   97MOL   C13513767   3.061   2.513   2.984 -0.2453  0.6039 -0.3480
   97MOL   C13613768   3.206   2.567   2.963  0.2828  0.5836  0.5042
   97MOL   O13713769   2.974   2.620   2.962  0.2606  0.1708 -0.1060
   97MOL   H13813770   3.049   2.486   3.089  1.0819  2.4858  0.3178
   97MOL   H13913771   3.223   2.647   3.035 -0.9813  0.9606  0.4000
   97MOL   H14013772   3.220   2.595   2.859  2.5020  1.5649  1.0485
   97MOL   H14113773   3.267   2.481   2.991 -1.1462 -0.4873  0.4255
   97MOL   H14213774   2.886   2.594   2.983 -0.6089  1.6299 -1.7704
   98MOL     C113775   7.834   6.927   7.772 -0.4789  0.5864 -0.0597
   98MOL     C213776   7.826   6.777   7.765 -0.0675  0.3269 -0.0634
   98MOL     O313777   7.711   6.984   7.729  0.2188  0.6498 -0.2203
   98MOL     H413778   0.009   6.955   7.715 -0.2728 -3.3603 -1.8091
   98MOL     H513779   0.004   6.734   7.805 -1.1027 -1.5473  0.3321
   98MOL     H613780   7.805   6.748   7.662 -0.5706  1.7576 -0.3824
   98MOL     H713781   7.748   6.744   7.834 -0.3505 -0.2301 -0.6459
   98MOL     H813782   7.840   6.957   7.877  0.5879  1.1172 -0.2676
   98MOL     C913783   7.724   7.120   7.717  0.1387 -0.1059  1.2341
   98MOL    C1013784   7.729   7.159   7.568  0.0894 -0.0896 -0.3088
   98MOL    O1113785   7.604   7.175   7.769  0.2746 -0.5041  0.7829
   98MOL    H1213786   7.805   7.156   7.781  0.1515 -1.2888  1.8972
   98MOL    H1313787   7.825   7.123   7.530 -0.0401 -0.5299 -0.2175
   98MOL    H1413788   7.729   7.268   7.556 -0.7259  0.1757  1.8827
   98MOL    H1513789   7.640   7.125   7.516  0.3286 -0.8371 -0.2308
   98MOL    C1613790   7.575   7.145   7.901 -0.2948  0.7818 -0.3211
   98MOL    C1713791   7.639   7.259   0.063 -0.4956 -0.0766  0.5649
   98MOL    O1813792   7.440   7.167   0.009  0.2674  0.0410 -0.2324
   98MOL    H1913793   7.610   7.050   0.029 -0.5622 -0.5817 -3.0591
   98MOL    H2013794   7.594   7.253   0.162  1.7295 -1.5446  1.5199
   98MOL    H2113795   7.618   7.362   0.034  0.8423 -0.1385 -0.6788
   98MOL    H2213796   7.747   7.253   0.072 -0.3159  0.4252 -1.1255
   98MOL    C2313797   7.363   7.074   7.853  0.4085 -0.2714 -0.5217
   98MOL    C2413798   7.293   6.988   0.045 -0.3175 -0.9266 -0.4669
   98MOL    O2513799   7.250   7.126   7.786  0.3680  0.2435  0.1600
   98MOL    H2613800   7.427   7.012   7.790 -0.5535 -1.1732 -0.6198
   98MOL    H2713801   7.249   6.899   7.914  1.5076 -2.4040  0.5725
   98MOL    H2813802   7.225   7.051   0.102 -0.7441 -1.1770 -0.7005
   98MOL    H2913803   7.359   6.946   0.122 -0.6218 -0.3679  0.0964
   98MOL    C3013804   7.278   7.174   7.657 -0.4186  0.0923  0.1486
   98MOL    C3113805   7.181   7.116   7.560 -0.2229  0.2067  0.3082
   98MOL    O3213806   7.250   7.308   7.649 -0.2779  0.0298 -0.6413
   98MOL    H3313807   7.377   7.149   7.620 -1.1378 -2.1798 -0.3136
   98MOL    H3413808   7.080   7.147   7.588 -0.1919  0.8658 -0.3082
   98MOL    H3513809   7.184   7.007   7.565 -1.5674  0.0956 -1.1655
   98MOL    H3613810   7.207   7.148   7.460 -1.1787  0.0851  0.0203
   98MOL    C3713811   7.361   7.389   7.670 -0.6899  0.2528 -0.5880
   98MOL    C3813812   7.421   7.419   7.532 -1.4327  1.4305 -0.0520
   98MOL    O3913813   7.320   7.505   7.727  0.6135 -0.5969  0.3924
   98MOL    H4013814   7.433   7.341   7.736 -1.8804  0.6874  1.0578
   98MOL    H4113815   7.477   7.333   7.495 -1.0649  0.4016  2.8327
   98MOL    H4213816   7.494   7.499   7.544 -0.1281 -0.0248  1.8279
   98MOL    H4313817   7.335   7.442   7.468  0.2847 -0.0377 -2.9987
   98MOL    C4413818   7.277   7.490   7.858  0.3879  0.1225  0.1720
   98MOL    C4513819   7.362   7.572   0.034 -1.0433 -0.2159 -0.2967
   98MOL    O4613820   7.146   7.546   7.867  0.0567 -0.2039 -0.2917
   98MOL    H4713821   7.279   7.385   7.888 -0.6114  0.0392 -0.0329
   98MOL    H4813822   7.321   7.559   0.134 -1.2370 -1.8869 -0.5868
   98MOL    H4913823   7.351   7.674   7.912  0.3828 -0.7505 -2.3539
   98MOL    H5013824   7.461   7.527   0.034 -1.0852 -0.3412 -1.5720
   98MOL    C5113825   7.033   7.469   7.832  0.3827 -0.4048  0.6614
   98MOL    C5213826   6.938   7.462   0.035 -0.1842 -0.4696 -0.2643
   98MOL    O5313827   6.954   7.535   7.733 -0.3076 -0.1057 -0.2050
   98MOL    H5413828   7.063   7.367   7.808 -1.2730 -0.0992 -3.0208
   98MOL    H5513829   6.891   7.559   0.055  0.3337 -0.4293  0.7500
   98MOL    H5613830   6.995   7.439   0.124 -1.4948  4.0329  1.8956
   98MOL    H5713831   6.861   7.386   0.026 -2.3238  1.8155 -2.0729
   98MOL    C5813832   7.003   7.508   7.605 -0.7105  0.1503  0.4174
   98MOL    C5913833   6.923   7.391   7.550 -0.1558  0.5194 -0.3928
   98MOL    O6013834   6.988   7.614   7.516 -0.1983 -0.3578 -0.5392
   98MOL    H6113835   7.107   7.476   7.599 -0.4441  0.9799  0.4990
   98MOL    H6213836   6.830   7.433   7.511  0.9939  2.9370 -0.6553
   98MOL    H6313837   6.894   7.323   7.629  2.4854 -0.6622 -0.3797
   98MOL    H6413838   6.972   7.338   7.468 -0.6750 -0.5117 -0.0406
   98MOL    C6513839   7.079   7.716   7.542 -0.1240  0.5968 -1.1228
   98MOL    C6613840   7.181   7.717   7.427  0.0654  0.8855 -0.4868
   98MOL    O6713841   7.019   7.835   7.538  0.0243 -0.3210  0.9549
   98MOL    H6813842   7.126   7.705   7.640 -2.4914 -1.6471 -0.1465
   98MOL    H6913843   7.153   7.772   7.337 -0.1840  1.7298  0.1087
   98MOL    H7013844   7.202   7.612   7.405  2.5780  1.5260 -1.3925
   98MOL    H7113845   7.276   7.756   7.462 -0.0494  1.1927 -0.5226
   98MOL    C7213846   6.919   7.855   7.634 -0.2576 -0.5379 -0.2661
   98MOL    C7313847   6.977   0.024   7.754  0.4895  0.2788  0.2525
   98MOL    O7413848   6.813   0.014   7.578  0.0213  0.0023  0.2371
   98MOL    H7513849   6.883   7.760   7.673 -0.1060  0.1167  1.5090
   98MOL    H7613850   6.898   0.041   7.827  1.8528  0.4259  1.7292
   98MOL    H7713851   7.027   0.105   7.700  0.9316 -1.6234 -2.3275
   98MOL    H7813852   7.063   7.891   7.802 -0.0925 -0.3684  0.6588
   98MOL    C7913853   6.722   7.851   7.513 -0.0965 -0.7110  0.0788
   98MOL    C8013854   6.603   7.866   7.602 -0.5701  0.1046  0.1078
   98MOL    O8113855   6.692   7.902   7.390  0.2770  0.3220 -0.1107
   98MOL    H8213856   6.749   7.746   7.509 -0.8433 -0.8727 -0.7191
   98MOL    H8313857   6.637   7.841   7.703 -0.5010  1.2995  0.3885
   98MOL    H8413858   6.520   7.798   7.582 -1.7982  1.7225 -0.3464
   98MOL    H8513859   6.556   0.050   7.597 -0.9245  0.0605  2.1593
   98MOL    C8613860   6.759   7.851   7.276  0.1273  0.4313 -0.3736
   98MOL    C8713861   6.678   7.735   7.224 -0.3783  0.5959 -0.5990
   98MOL    O8813862   6.771   0.034   7.181  0.1764  0.4021  0.3914
   98MOL    H8913863   6.857   7.813   7.304  0.1904  0.8048 -0.0766
   98MOL    H9013864   6.695   7.643   7.280 -1.4442  0.9858  0.3620
   98MOL    H9113865   6.715   7.703   7.126 -2.0282 -1.6002 -0.5430
   98MOL    H9213866   6.572   7.756   7.214 -0.1872  1.6390 -0.4141
   98MOL    C9313867   6.877   0.122   7.217  0.4212 -0.3957  0.1981
   98MOL    C9413868   6.973   0.117   7.096  1.1536  0.3495 -0.1484
   98MOL    O9513869   6.840   0.257   7.219 -0.0520 -0.5096  0.2206
   98MOL    H9613870   6.923   0.109   7.315 -0.5319 -0.7535  0.6027
   98MOL    H9713871   7.008   0.016   7.070 -0.3751  0.0914 -1.2249
   98MOL    H9813872   7.059   0.183   7.109  0.4795  1.3435 -0.7875
   98MOL    H9913873   6.913   0.144   7.010 -0.3349 -0.8339  0.5029
   98MOL   C10013874   6.763   0.292   7.329  0.1855 -0.6816  0.5416
   98MOL   C10113875   6.849   0.378   7.417 -0.2760  0.1691  0.2254
   98MOL   O10213876   6.643   0.350   7.296 -0.0312  0.4250  0.2415
   98MOL   H10313877   6.750   0.199   7.385  0.3587 -0.7171  0.5199
   98MOL   H10413878   6.908   0.447   7.357 -2.7967  2.1906 -0.0587
   98MOL   H10513879   6.913   0.312   7.475  1.1621  1.4499  0.1234
   98MOL   H10613880   6.784   0.424   7.492  0.1419 -0.9429  1.2858
   98MOL   C10713881   6.546   0.265   7.236  1.0149 -0.7119 -0.3258
   98MOL   C10813882   6.431   0.234   7.337 -0.0045 -0.1996  0.4200
   98MOL   O10913883   6.493   0.325   7.122  0.0082  0.5368  0.0924
   98MOL   H11013884   6.590   0.168   7.211  0.5032 -1.5138  1.7273
   98MOL   H11113885   6.388   0.140   7.303  0.8335 -0.5386  0.2724
   98MOL   H11213886   6.362   0.318   7.347  1.4533  1.3536 -1.8292
   98MOL   H11313887   6.475   0.222   7.436 -2.6653  2.7236  2.0526
   98MOL   C11413888   6.571   0.319   7.010 -0.4554 -1.2051 -0.6666
   98MOL   C11513889   6.502   0.226   6.906  0.2196 -0.1351 -0.5569
   98MOL   O11613890   6.563   0.445   6.955 -0.1963 -0.5670 -0.2801
   98MOL   H11713891   6.674   0.288   7.026 -0.8317 -1.0358  2.4242
   98MOL   H11813892   6.535   0.125   6.932  0.0197  0.4150  2.0020
   98MOL   H11913893   6.536   0.256   6.807  1.9755 -1.2617 -0.3385
   98MOL   H12013894   6.395   0.241   6.913  0.1045 -1.5351  1.0772
   98MOL   C12113895   6.635   0.549   7.024  0.2891 -0.4866  0.2819
   98MOL   C12213896   6.771   0.551   6.949 -0.2531  0.2272 -0.1645
   98MOL   O12313897   6.569   0.665   6.994  0.1517  0.2299 -0.0962
   98MOL   H12413898   6.643   0.529   7.130  2.2222  0.7278  0.3923
   98MOL   H12513899   6.805   0.651   6.977 -0.1440  0.0081  0.5187
   98MOL   H12613900   6.757   0.552   6.841  2.5519  0.3797 -0.5719
   98MOL   H12713901   6.839   0.471   6.978  0.1210  0.4552 -0.4097
   98MOL   C12813902   6.467   0.687   7.084  0.3857  0.0795 -0.3316
   98MOL   C12913903   6.510   0.793   7.185 -0.0675 -0.8825 -0.3623
   98MOL   O13013904   6.355   0.736   7.011 -0.4244  0.4835 -0.2914
   98MOL   H13113905   6.443   0.594   7.136 -1.0504  1.8691  2.3243
   98MOL   H13213906   6.601   0.774   7.241 -0.1511  1.7294  0.7550
   98MOL   H13313907   6.439   0.802   7.267 -0.4832 -1.1419 -0.6943
   98MOL   H13413908   6.512   0.888   7.131  1.1727 -0.7610 -0.1129
   98MOL   C13513909   6.272   0.628   6.971 -0.2606 -0.1044  0.2220
   98MOL   C13613910   6.142   0.697   6.929 -0.5047  0.4544 -0.0228
   98MOL   O13713911   6.322   0.555   6.867  0.5040  0.3136 -0.1182
   98MOL   H13813912   6.247   0.552   7.045 -0.1923 -0.4118 -0.0698
   98MOL   H13913913   6.070   0.627   6.889 -0.8879 -0.4410  2.1868
   98MOL   H14013914   6.155   0.773   6.851  0.1135 -1.6389 -2.0297
   98MOL   H14113915   6.105   0.755   7.013 -2.5988 -0.4447 -0.2963
   98MOL   H14213916   6.405   0.521   6.898  1.2974  0.1998 -2.3176
   99MOL     C113917   0.184   1.968   0.848  0.5599 -0.4865  0.7801
   99MOL     C213918   0.048   2.028   0.826  0.1750 -0.0532  0.1203
   99MOL     O313919   0.167   1.843   0.904  0.5300 -0.3885 -0.0811
   99MOL     H413920   0.248   2.026   0.915  0.1810 -1.2277  1.7934
   99MOL     H513921   0.002   1.960   0.754  2.4405  0.2308 -1.6529
   99MOL     H613922   0.064   2.131   0.794  1.1051 -0.1741  0.1933
   99MOL     H713923   7.897   2.032   0.913 -0.5138  0.5193 -0.4075
   99MOL     H813924   0.245   1.964   0.758 -0.5274  2.9674 -0.1747
   99MOL     C913925   0.282   1.770   0.922  0.0001  0.5557 -0.0614
   99MOL    C1013926   0.274   1.721   1.067  0.1725  0.2174  0.4810
   99MOL    O1113927   0.288   1.654   0.843 -0.3133  0.3513  0.0133
   99MOL    H1213928   0.371   1.829   0.899  0.1637  0.7568  1.0166
   99MOL    H1313929   0.178   1.670   1.078 -0.4481  1.3579  0.4502
   99MOL    H1413930   0.290   1.804   1.135  0.5712  1.6275 -1.3010
   99MOL    H1513931   0.357   1.650   1.074 -0.4600 -0.9473 -2.7359
   99MOL    C1613932   0.328   1.671   0.710  0.4557  0.0805  0.5291
   99MOL    C1713933   0.468   1.617   0.708  0.0922  0.5311  0.2690
   99MOL    O1813934   0.251   1.595   0.623  0.6864  0.8644 -0.2949
   99MOL    H1913935   0.318   1.776   0.683  2.0371 -0.1403 -1.0058
   99MOL    H2013936   0.544   1.667   0.768  0.8008  1.0305 -1.0022
   99MOL    H2113937   0.520   1.627   0.612  0.5783  1.1411  0.5892
   99MOL    H2213938   0.467   1.514   0.742  1.8498  1.2357  2.5554
   99MOL    C2313939   0.123   1.648   0.604  0.6653  0.3593 -0.7392
   99MOL    C2413940   0.114   1.703   0.461 -0.4834 -0.2161 -0.5822
   99MOL    O2513941   0.020   1.553   0.608 -0.4057  0.0116 -0.9693
   99MOL    H2613942   0.086   1.727   0.669 -0.0818 -1.7093  1.4187
   99MOL    H2713943   0.017   1.743   0.431 -0.8182 -0.9941 -0.5499
   99MOL    H2813944   0.149   1.623   0.395  0.4426 -0.9930  0.8252
   99MOL    H2913945   0.187   1.783   0.454 -1.2760  0.4818 -0.9720
   99MOL    C3013946   7.892   1.530   0.740  0.0159 -0.2273 -0.0917
   99MOL    C3113947   7.754   1.601   0.745 -0.3874  0.7224 -0.4140
   99MOL    O3213948   7.874   1.400   0.764 -0.2989 -0.4490  0.2282
   99MOL    H3313949   0.047   1.560   0.818 -0.3008 -0.6487  0.3529
   99MOL    H3413950   7.754   1.703   0.705 -0.4871  0.7336 -0.3856
   99MOL    H3513951   7.725   1.622   0.848 -1.4967 -1.3166 -0.3056
   99MOL    H3613952   7.676   1.545   0.693  0.3985 -0.4275 -0.3664
   99MOL    C3713953   0.080   1.324   0.770  0.9657 -0.0160  0.0553
   99MOL    C3813954   0.076   1.251   0.906 -0.3023  0.0824  0.0371
   99MOL    O3913955   0.069   1.219   0.672  0.1392 -0.0775  0.2949
   99MOL    H4013956   0.169   1.388   0.763 -0.5517  1.9320 -2.0742
   99MOL    H4113957   0.065   1.318   0.991 -2.3312 -0.0285 -0.1098
   99MOL    H4213958   0.167   1.197   0.933  1.0370  1.8160 -0.9467
   99MOL    H4313959   7.904   1.183   0.903 -0.9508  0.7832  2.0340
   99MOL    C4413960   0.141   1.243   0.557  0.0362 -0.4954 -0.3273
   99MOL    C4513961   0.268   1.151   0.562  0.0727  0.2862  0.2885
   99MOL    O4613962   0.070   1.201   0.442  0.0217 -0.0508  0.8155
   99MOL    H4713963   0.174   1.346   0.547 -0.9826 -0.1505 -0.1786
   99MOL    H4813964   0.241   1.054   0.604  1.2587 -0.1536  0.0484
   99MOL    H4913965   0.344   1.195   0.628  0.4055 -2.7187  1.9864
   99MOL    H5013966   0.320   1.136   0.468  1.1832 -0.7453  1.0477
   99MOL    C5113967   7.873   1.275   0.413  0.5991  0.7049 -1.0997
   99MOL    C5213968   7.881   1.340   0.272  0.0096  0.1012  0.2783
   99MOL    O5313969   7.757   1.195   0.407 -0.1521  0.2461  0.1770
   99MOL    H5413970   7.846   1.352   0.486 -4.5260 -1.7895 -0.1170
   99MOL    H5513971   7.899   1.269   0.191 -1.4614  1.5606 -1.3677
   99MOL    H5613972   0.050   1.411   0.262  1.3484 -1.7073 -2.0653
   99MOL    H5713973   7.796   1.401   0.245 -0.1088 -0.2802 -0.2138
   99MOL    C5813974   7.702   1.160   0.539  0.7037  0.6870  0.0003
   99MOL    C5913975   7.560   1.224   0.537  0.6544  0.3423  0.0280
   99MOL    O6013976   7.687   1.020   0.544 -0.1423  0.1169  0.5715
   99MOL    H6113977   7.757   1.198   0.625 -0.9598 -0.6093  1.6957
   99MOL    H6213978   7.583   1.327   0.509 -0.7376  0.5130 -0.5281
   99MOL    H6313979   7.510   1.226   0.634  1.2488  3.3937  0.3420
   99MOL    H6413980   7.499   1.172   0.464  0.1192  2.4704 -1.0693
   99MOL    C6513981   7.803   0.950   0.569  0.1315  0.2978 -0.6169
   99MOL    C6613982   7.795   0.907   0.716  0.4108  0.2620 -0.6213
   99MOL    O6713983   7.798   0.836   0.496 -0.2758 -0.2965  0.3494
   99MOL    H6813984   7.897   1.005   0.562  1.1898 -1.1714  1.4487
   99MOL    H6913985   7.702   0.853   0.735  0.4885  0.0880 -0.7362
   99MOL    H7013986   7.809   1.001   0.770 -1.0833  0.9521 -1.4249
   99MOL    H7113987   7.877   0.839   0.740  0.7935  0.8799 -0.1388
   99MOL    C7213988   7.866   0.864   0.379  0.4254  0.1295 -0.2915
   99MOL    C7313989   0.095   0.791   0.396 -0.5963 -0.5601 -0.0501
   99MOL    O7413990   7.801   0.802   0.269 -0.8943 -0.5283 -0.5536
   99MOL    H7513991   7.880   0.971   0.362 -0.0407  0.4492  1.2456
   99MOL    H7613992   0.093   0.696   0.450 -0.7565 -0.3155  0.3752
   99MOL    H7713993   0.159   0.857   0.453  1.1179 -0.3259 -2.1912
   99MOL    H7813994   0.148   0.773   0.303 -1.0097  2.0143 -0.8007
   99MOL    C7913995   7.677   0.860   0.236 -0.5928 -0.4092  0.0929
   99MOL    C8013996   7.702   0.978   0.143  0.0134  0.0602  0.0409
   99MOL    O8113997   7.584   0.776   0.173 -0.5919  0.3419 -0.1724
   99MOL    H8213998   7.631   0.903   0.325 -0.7443 -0.1942 -0.0891
   99MOL    H8313999   7.740   0.950   0.045 -2.1562 -1.0713 -0.5015
   99MOL    H8414000   7.774   1.048   0.186 -0.0477  0.2418 -0.1588
   99MOL    H8514001   7.607   1.026   0.123 -1.0979 -1.1725  2.0924
   99MOL    C8614002   7.526   0.700   0.272  0.7561  0.3190 -1.0507
   99MOL    C8714003   7.377   0.733   0.259 -0.3070  0.0506 -0.0777
   99MOL    O8814004   7.537   0.564   0.247 -0.2705 -0.6873 -0.2524
   99MOL    H8914005   7.550   0.725   0.375 -1.2387  0.2865 -0.5468
   99MOL    H9014006   7.316   0.688   0.337  0.6832  0.9314  1.2182
   99MOL    H9114007   7.326   0.712   0.164  0.2457  0.6894 -0.5178
   99MOL    H9214008   7.363   0.839   0.283 -1.3746 -0.3165  0.9422
   99MOL    C9314009   7.656   0.503   0.293  0.9832 -0.3348 -0.8608
   99MOL    C9414010   7.623   0.447   0.433 -0.2561 -0.0021  0.4833
   99MOL    O9514011   7.691   0.390   0.213  0.3302  0.3264  0.2936
   99MOL    H9614012   7.741   0.568   0.310 -0.6305  1.1968  1.7042
   99MOL    H9714013   7.515   0.441   0.443 -0.4266 -1.3910 -1.8879
   99MOL    H9814014   7.670   0.506   0.512 -0.1911  2.3664 -1.2873
   99MOL    H9914015   7.673   0.350   0.444  1.6163  0.9755  0.6776
   99MOL   C10014016   7.712   0.427   0.075  0.4089 -0.0493 -0.7342
   99MOL   C10114017   7.860   0.440   0.060  0.9401  0.2455 -0.0714
   99MOL   O10214018   7.661   0.340   7.893  0.3346  0.6310 -0.3920
   99MOL   H10314019   7.659   0.520   0.051  0.5936 -0.1036 -1.3607
   99MOL   H10414020   7.891   0.475   7.876 -0.6605  0.0928 -0.6468
   99MOL   H10514021   7.909   0.348   0.092  0.5383 -0.2207 -0.7746
   99MOL   H10614022   7.898   0.515   0.129 -0.4642  2.5711 -1.7523
   99MOL   C10714023   7.527   0.306   7.904  0.1454 -0.1728 -0.0256
   99MOL   C10814024   7.464   0.358   7.773 -0.1273  0.3393  0.3083
   99MOL   O10914025   7.515   0.167   7.905 -0.0626 -0.3894  0.5401
   99MOL   H11014026   7.460   0.358   0.059 -1.9873  0.9983 -2.8807
   99MOL   H11114027   7.357   0.340   7.781 -0.5107  2.4302  0.3445
   99MOL   H11214028   7.509   0.311   7.686  0.6345 -0.0121  0.8855
   99MOL   H11314029   7.467   0.467   7.774  3.1355  0.2870  1.0481
   99MOL   C11414030   7.515   0.109   0.125  0.5469 -0.5049  0.5828
   99MOL   C11514031   7.379   0.050   0.160  0.0627 -0.1494 -0.2029
   99MOL   O11614032   7.606   7.913   0.115  0.2168 -0.6698 -0.3753
   99MOL   H11714033   7.553   0.181   0.198  0.4806 -0.6467  0.7574
   99MOL   H11814034   7.357   7.889   0.084 -1.0451 -0.5675  0.5266
   99MOL   H11914035   7.304   0.129   0.170 -1.0372 -1.4803  2.6884
   99MOL   H12014036   7.387   0.008   0.260  1.1821  1.3995  0.3915
   99MOL   C12114037   7.741   0.031   0.127  0.6193 -0.5135  0.3245
   99MOL   C12214038   7.766   0.025   0.281  0.0611  0.0377 -0.2276
   99MOL   O12314039   7.825   7.866   0.055  0.2132 -0.8427 -0.1068
   99MOL   H12414040   7.768   0.130   0.088 -0.1400 -0.7718 -0.9012
   99MOL   H12514041   7.747   7.841   0.324  0.7599 -0.4986 -1.1043
   99MOL   H12614042   7.696   0.091   0.331 -0.9388 -0.1320 -1.3649
   99MOL   H12714043   7.866   0.057   0.311 -0.3811  0.8919  0.3508
   99MOL   C12814044   7.819   7.889   7.829 -0.3694  0.4757  0.5266
   99MOL   C12914045   0.019   0.076   7.808  0.8869 -0.2614  0.6513
   99MOL   O13014046   7.832   7.775   7.750 -0.3360 -0.0326  0.0035
   99MOL   H13114047   7.724   0.020   7.797  0.1704  1.4839  0.3166
   99MOL   H13214048   0.023   0.081   7.699 -1.7595  4.1995  0.6025
   99MOL   H13314049   0.112   0.046   7.857  1.5846 -1.0602 -1.1070
   99MOL   H13414050   7.913   0.176   7.848 -1.2741  0.1649 -1.3497
   99MOL   C13514051   7.738   7.676   7.770  0.1190 -0.0273  0.3506
   99MOL   C13614052   7.779   7.557   7.672 -0.6813  0.1137  0.2458
   99MOL   O13714053   7.740   7.631   7.898  0.2565  0.1686  0.1478
   99MOL   H13814054   7.636   7.712   7.757  0.3804  0.0442 -1.7976
   99MOL   H13914055   7.712   7.473   7.689  0.7227 -1.1403 -0.2538
   99MOL   H14014056   7.885   7.531   7.678 -0.3517  1.8386  2.1844
   99MOL   H14114057   7.764   7.589   7.569  0.3778 -1.2914 -0.3584
   99MOL   H14214058   7.785   7.692   0.041 -1.4511  1.0702  0.5683
  100MOL     C114059   4.956   5.813   6.179 -0.2833  0.1876  0.5723
  100MOL     C214060   4.864   5.936   6.198  0.1244  0.7812  0.1458
  100MOL     O314061   4.957   5.746   6.309 -0.0928  0.3998  0.1861
  100MOL     H414062   5.059   5.841   6.156 -0.3828  0.8015  0.8544
  100MOL     H514063   4.910   5.990   6.281  1.6425  1.3552 -1.0515
  100MOL     H614064   4.768   5.904   6.240  1.2779 -2.4407  0.4142
  100MOL     H714065   4.851   5.994   6.106 -0.7163 -1.1264 -0.9668
  100MOL     H814066   4.925   5.746   6.099 -2.0426  0.9174  0.6239
  100MOL     C914067   5.048   5.639   6.321 -0.2043  0.0681  0.0259
  100MOL    C1014068   5.050   5.600   6.473  0.4124  0.3374  0.1776
  100MOL    O1114069   5.005   5.523   6.248 -0.4123  0.5885  0.0244
  100MOL    H1214070   5.144   5.672   6.281  0.6614 -0.9262  1.2256
  100MOL    H1314071   5.099   5.504   6.483  0.6167  0.7184  3.2560
  100MOL    H1414072   4.947   5.588   6.506  0.0150  1.0565 -0.7604
  100MOL    H1514073   5.105   5.675   6.530  1.6435 -0.9522  0.6935
  100MOL    C1614074   5.098   5.485   6.151 -0.1743  0.7297  0.1562
  100MOL    C1714075   5.051   5.351   6.102 -0.2338  0.0457 -0.2659
  100MOL    O1814076   5.094   5.573   6.046 -0.1596  0.0181 -0.2294
  100MOL    H1914077   5.198   5.479   6.193 -0.4761  2.5800  1.1672
  100MOL    H2014078   4.950   5.354   6.062 -0.2506  0.3886 -0.2001
  100MOL    H2114079   5.035   5.282   6.185 -2.2049 -0.0336 -0.6981
  100MOL    H2214080   5.123   5.313   6.029 -1.0874  0.6735 -1.4577
  100MOL    C2314081   5.217   5.584   5.977  0.2572  0.5479  0.9107
  100MOL    C2414082   5.198   5.663   5.842  0.1294 -0.2256  0.2618
  100MOL    O2514083   5.313   5.649   6.055  0.5081  0.0670 -0.0443
  100MOL    H2614084   5.243   5.481   5.955  1.7133  0.6454  2.0895
  100MOL    H2714085   5.144   5.758   5.853  1.4789  0.4086  1.4936
  100MOL    H2814086   5.154   5.598   5.766 -1.4863  0.3083  0.7113
  100MOL    H2914087   5.298   5.689   5.808 -0.0790  0.7398  0.3592
  100MOL    C3014088   5.439   5.585   6.066  0.9208 -0.5502  0.0799
  100MOL    C3114089   5.533   5.685   6.131  0.3345 -0.0382  0.4982
  100MOL    O3214090   5.429   5.476   6.151  0.1918  0.1850  0.2809
  100MOL    H3314091   5.472   5.551   5.967 -0.5240 -2.1305  0.1204
  100MOL    H3414092   5.563   5.765   6.063  2.3769 -1.0093  0.2302
  100MOL    H3514093   5.628   5.634   6.146 -0.4738 -1.6291  0.2326
  100MOL    H3614094   5.492   5.724   6.224 -1.1402 -1.0586  0.2891
  100MOL    C3714095   5.505   5.367   6.124  0.4576 -0.2890 -0.1946
  100MOL    C3814096   5.487   5.267   6.243 -0.2706  0.4545  0.6346
  100MOL    O3914097   5.459   5.302   6.003 -0.3575  0.2148 -0.2481
  100MOL    H4014098   5.611   5.392   6.118  0.0604  1.1413 -1.7172
  100MOL    H4114099   5.560   5.186   6.250 -1.7566 -1.1772 -1.9130
  100MOL    H4214100   5.390   5.223   6.222  0.1440  0.5640 -1.5552
  100MOL    H4314101   5.482   5.334   6.329  1.1734  1.6208 -0.1824
  100MOL    C4414102   5.565   5.261   5.928  0.2518  0.0213 -0.7009
  100MOL    C4514103   5.507   5.169   5.824 -0.3933  0.4315 -1.2422
  100MOL    O4614104   5.620   5.367   5.859 -0.2784 -0.3530  0.4173
  100MOL    H4714105   5.641   5.209   5.987 -0.0666 -0.9930 -1.1759
  100MOL    H4814106   5.445   5.213   5.745 -2.4153 -0.1802 -0.0366
  100MOL    H4914107   5.447   5.092   5.874  0.5096 -0.2112 -1.1394
  100MOL    H5014108   5.585   5.121   5.764  0.0445 -0.8657  0.3296
  100MOL    C5114109   5.754   5.360   5.827  0.3410 -0.2563  0.6288
  100MOL    C5214110   5.781   5.464   5.720  0.2630  0.5336  0.4808
  100MOL    O5314111   5.829   5.399   5.940 -0.0917  0.4560 -0.1575
  100MOL    H5414112   5.776   5.261   5.789 -0.1767 -0.6554  1.3494
  100MOL    H5514113   5.885   5.449   5.692  0.2310 -1.3235  1.2708
  100MOL    H5614114   5.779   5.562   5.766 -1.2913 -0.0470  1.6674
  100MOL    H5714115   5.711   5.450   5.637  1.2363 -1.9138  0.0173
  100MOL    C5814116   5.934   5.317   5.971 -0.0355  0.3198 -0.9306
  100MOL    C5914117   6.034   5.414   6.030 -0.3959 -0.1387  0.1648
  100MOL    O6014118   5.900   5.229   6.072 -0.2762  0.0144 -0.2438
  100MOL    H6114119   5.971   5.259   5.886 -0.4704 -1.8581  0.3286
  100MOL    H6214120   6.008   5.463   6.123  1.6980  2.1681 -0.3982
  100MOL    H6314121   6.060   5.491   5.957  2.0592 -1.2768 -0.2323
  100MOL    H6414122   6.123   5.357   6.057  0.4885  1.8295  1.5642
  100MOL    C6514123   5.938   5.096   6.045  0.0740  0.0493 -0.0362
  100MOL    C6614124   5.920   5.029   6.176 -0.3981 -0.1629 -0.2915
  100MOL    O6714125   5.845   5.052   5.956  0.3873 -0.1993  0.5027
  100MOL    H6814126   6.042   5.101   6.014  0.1113  0.5616  0.1588
  100MOL    H6914127   5.817   5.019   6.210 -0.6945 -0.0874 -1.1358
  100MOL    H7014128   5.978   5.087   6.248  0.8724  0.6754 -1.9588
  100MOL    H7114129   5.958   4.927   6.170  0.9734  0.1669  2.1617
  100MOL    C7214130   5.888   4.940   5.877  0.4454 -0.0043 -0.4370
  100MOL    C7314131   5.760   4.887   5.804  0.0076 -0.3339 -0.4357
  100MOL    O7414132   5.979   4.985   5.785  0.8959  0.0242 -0.2700
  100MOL    H7514133   5.920   4.854   5.935 -0.2156  0.8480  1.2365
  100MOL    H7614134   5.736   4.965   5.732 -1.6172 -0.7560 -0.3816
  100MOL    H7714135   5.681   4.872   5.878  1.2655 -0.4773  0.8918
  100MOL    H7814136   5.795   4.795   5.758  1.2942  1.4372 -3.1259
  100MOL    C7914137   6.093   4.905   5.772 -0.2274  0.3363  0.2130
  100MOL    C8014138   6.190   4.995   5.699  0.0104 -0.1530  0.1834
  100MOL    O8114139   6.154   4.883   5.898  0.4671 -0.0037 -0.8491
  100MOL    H8214140   6.068   4.812   5.723  1.3698  0.4257 -0.8229
  100MOL    H8314141   6.134   5.043   5.619  1.5266 -2.2461 -2.2295
  100MOL    H8414142   6.269   4.930   5.661 -0.4836 -0.0040 -1.1340
  100MOL    H8514143   6.223   5.070   5.770  2.0212  0.0194 -0.8858
  100MOL    C8614144   6.192   4.752   5.915  0.4492 -0.2508 -0.5799
  100MOL    C8714145   6.234   4.726   6.057  0.1115 -0.4088  0.6147
  100MOL    O8814146   6.093   4.663   5.890  0.3299 -0.1319 -0.1151
  100MOL    H8914147   6.281   4.754   5.851  0.3033  0.8529 -0.7485
  100MOL    H9014148   6.145   4.737   6.119 -0.6023 -1.6759 -0.1646
  100MOL    H9114149   6.304   4.805   6.084  0.7891 -1.3105  1.5849
  100MOL    H9214150   6.283   4.628   6.060  0.6750 -0.2898 -2.7558
  100MOL    C9314151   6.129   4.538   5.831  0.2647 -0.2701  0.2827
  100MOL    C9414152   5.998   4.467   5.794  1.0477 -0.3097 -0.4031
  100MOL    O9514153   6.208   4.549   5.710 -0.3732 -0.0496  0.1163
  100MOL    H9614154   6.190   4.482   5.901  1.9885  0.8085 -0.2945
  100MOL    H9714155   5.953   4.436   5.889  1.8151  1.2051  0.4617
  100MOL    H9814156   6.018   4.379   5.733 -1.1846 -0.3578 -1.1183
  100MOL    H9914157   5.945   4.535   5.727 -0.1612  0.5093  1.3474
  100MOL   C10014158   6.325   4.470   5.717 -0.3086  0.4790 -0.5478
  100MOL   C10114159   6.392   4.496   5.582 -0.2136 -0.1959  0.0582
  100MOL   O10214160   6.405   4.518   5.820  0.5119 -0.5754  0.3072
  100MOL   H10314161   6.283   4.370   5.723  0.9502  0.0010  0.6401
  100MOL   H10414162   6.402   4.604   5.576  0.4891 -0.2806 -0.3848
  100MOL   H10514163   6.331   4.446   5.507 -1.6660 -0.3714  1.3282
  100MOL   H10614164   6.494   4.458   5.582  0.1404  0.5720 -4.1119
  100MOL   C10714165   6.513   4.437   5.861 -0.2994  0.0216 -0.4685
  100MOL   C10814166   6.575   4.500   5.989 -0.0300 -0.1439 -0.4525
  100MOL   O10914167   6.465   4.305   5.892 -0.1094  0.2128 -0.2893
  100MOL   H11014168   6.586   4.432   5.780  0.2953  1.7702 -0.0638
  100MOL   H11114169   6.582   4.608   5.971 -0.7771 -0.5270 -3.2967
  100MOL   H11214170   6.675   4.465   6.013  0.1144  0.2154 -0.5178
  100MOL   H11314171   6.509   4.476   6.072 -0.3654  1.0873 -0.3458
  100MOL   C11414172   6.564   4.211   5.881  0.0025 -0.0288  0.5763
  100MOL   C11514173   6.498   4.075   5.916  0.7967  0.9049  0.4503
  100MOL   O11614174   6.619   4.206   5.755 -0.6050  0.7958  0.4341
  100MOL   H11714175   6.640   4.220   5.959  0.5262 -0.2353  0.0936
  100MOL   H11814176   6.453   4.086   6.015 -0.1816 -0.7378  0.2030
  100MOL   H11914177   6.580   4.004   5.913 -0.9306 -1.0880 -1.4542
  100MOL   H12014178   6.425   4.052   5.838 -0.7008 -1.7172  2.5471
  100MOL   C12114179   6.760   4.183   5.751  0.3701 -0.7135  0.2443
  100MOL   C12214180   6.790   4.166   5.605  0.8426  0.3746  0.5638
  100MOL   O12314181   6.819   4.307   5.788 -0.4578  0.1308 -0.3156
  100MOL   H12414182   6.792   4.102   5.816  2.7493 -0.0595 -0.0795
  100MOL   H12514183   6.768   4.064   5.572 -0.0190  0.2858  1.3929
  100MOL   H12614184   6.891   4.192   5.574 -0.0501  1.2664 -1.6853
  100MOL   H12714185   6.721   4.232   5.553  2.2130  0.7772 -0.7791
  100MOL   C12814186   6.926   4.298   5.875 -0.3403  0.2503  0.4573
  100MOL   C12914187   6.975   4.440   5.898 -0.3917  0.4896  0.1393
  100MOL   O13014188   6.878   4.243   5.998  0.3989 -0.5132  0.0315
  100MOL   H13114189   7.002   4.244   5.818 -1.3839 -0.2436 -0.4802
  100MOL   H13214190   6.895   4.497   5.946 -1.6633  0.6020 -2.0176
  100MOL   H13314191   6.990   4.481   5.798 -1.6966  0.1207 -0.2133
  100MOL   H13414192   7.063   4.431   5.962 -0.9997  1.5271  1.1356
  100MOL   C13514193   6.961   4.156   6.068  0.0041  0.6252  0.9234
  100MOL   C13614194   6.919   4.172   6.209  0.7932 -0.1018 -1.0375
  100MOL   O13714195   6.935   4.025   6.035 -0.5223  0.2556  0.2296
  100MOL   H13814196   7.064   4.173   6.038  0.5948 -2.0888  1.2819
  100MOL   H13914197   6.984   4.120   6.279 -1.4212  0.5059  1.5229
  100MOL   H14014198   6.819   4.131   6.222  0.2659  1.3413 -0.4484
  100MOL   H14114199   6.917   4.275   6.244 -1.1033 -0.5428  0.2302
  100MOL   H14214200   6.958   3.975   6.112  0.0085  1.8774  1.1288
  101MOL     C114201   1.501   6.681   3.077  0.0797  0.3204 -0.0173
  101MOL     C214202   1.412   6.746   3.176 -0.0131 -0.3849 -0.4469
  101MOL     O314203   1.614   6.766   3.084 -0.3961 -0.0808 -0.0398
  101MOL     H414204   1.452   6.673   2.979  0.2997  0.0167 -0.1046
  101MOL     H514205   1.391   6.846   3.139 -0.2229 -0.4239 -0.4351
  101MOL     H614206   1.441   6.741   3.281 -0.9752 -2.4633 -0.2547
  101MOL     H714207   1.314   6.698   3.167  0.5154 -1.4043 -0.8935
  101MOL     H814208   1.528   6.578   3.097 -0.9029  0.3420  1.4936
  101MOL     C914209   1.727   6.709   3.028  0.0581 -0.6681  0.8281
  101MOL    C1014210   1.756   6.794   2.902  0.2419 -0.5176 -0.6167
  101MOL    O1114211   1.839   6.717   3.113  0.1324  0.3962  0.1257
  101MOL    H1214212   1.726   6.604   3.000 -0.3615 -0.9703  1.9536
  101MOL    H1314213   1.789   6.893   2.934 -2.5228  0.0639  0.5820
  101MOL    H1414214   1.680   6.798   2.823  0.6434  0.1468 -0.9789
  101MOL    H1514215   1.840   6.748   2.851  0.0438 -0.4288 -1.0312
  101MOL    C1614216   1.833   6.631   3.226 -0.0165 -0.3912  0.1776
  101MOL    C1714217   1.918   6.499   3.191 -0.0877 -0.6664 -0.5609
  101MOL    O1814218   1.895   6.684   3.342  0.4415  0.2342 -0.1959
  101MOL    H1914219   1.730   6.617   3.260 -0.2772  0.9459 -0.0283
  101MOL    H2014220   1.886   6.447   3.101  0.9057 -1.0977 -0.6678
  101MOL    H2114221   1.915   6.420   3.267 -3.0991  1.6273  1.8700
  101MOL    H2214222   2.024   6.521   3.179  0.0712 -1.2009 -0.1549
  101MOL    C2314223   1.818   6.780   3.405 -0.3252  0.0224  0.4889
  101MOL    C2414224   1.744   6.715   3.520 -0.3948  0.0367 -0.0687
  101MOL    O2514225   1.918   6.871   3.457  0.4814  0.0843  0.7299
  101MOL    H2614226   1.758   6.842   3.338 -1.7454 -1.3406  0.4633
  101MOL    H2714227   1.663   6.649   3.490 -1.0324  0.6904  0.1948
  101MOL    H2814228   1.682   6.789   3.570 -0.0586 -0.2001  0.7109
  101MOL    H2914229   1.816   6.675   3.591  0.9972  0.5696 -1.1588
  101MOL    C3014230   1.991   6.939   3.355  0.0328 -0.0453  0.7044
  101MOL    C3114231   1.950   7.091   3.353 -0.3522 -0.6593  0.2285
  101MOL    O3214232   2.128   6.945   3.385  0.5315  0.3393  0.4934
  101MOL    H3314233   1.984   6.899   3.254 -0.1552  1.0880  0.2619
  101MOL    H3414234   1.841   7.093   3.353 -0.3957  1.5609 -3.8814
  101MOL    H3514235   1.981   7.144   3.263 -0.7325 -0.4575  0.2135
  101MOL    H3614236   1.972   7.143   3.447 -0.9898 -1.0901  0.6186
  101MOL    C3714237   2.195   6.821   3.383  0.4336 -0.9865  0.2021
  101MOL    C3814238   2.243   6.804   3.236  0.3061  0.0726  0.4758
  101MOL    O3914239   2.316   6.815   3.460 -0.5458  1.3735  0.2320
  101MOL    H4014240   2.128   6.739   3.410  0.3502 -0.5051  1.4937
  101MOL    H4114241   2.285   6.900   3.208  0.7292  0.3630  2.0699
  101MOL    H4214242   2.166   6.770   3.166  0.9053 -1.7105  0.6364
  101MOL    H4314243   2.329   6.736   3.233 -0.5330 -1.3045  4.2464
  101MOL    C4414244   2.300   6.816   3.606  0.2333 -0.0212  0.1428
  101MOL    C4514245   2.393   6.705   3.645  0.1665 -0.4247 -0.2155
  101MOL    O4614246   2.359   6.930   3.675  0.3709 -0.0667  0.3259
  101MOL    H4714247   2.195   6.803   3.632  0.2484 -2.4380 -0.8205
  101MOL    H4814248   2.366   6.620   3.582 -0.3966  0.3658 -1.0409
  101MOL    H4914249   2.385   6.682   3.752  0.4207 -2.0166 -0.5245
  101MOL    H5014250   2.498   6.735   3.640 -0.2220  0.5843 -3.1967
  101MOL    C5114251   2.297   7.049   3.651  0.0291  0.9568 -0.7037
  101MOL    C5214252   2.235   7.087   3.789  0.9827  0.0979 -0.7136
  101MOL    O5314253   2.379   7.148   3.615 -0.5085  0.3673 -0.1588
  101MOL    H5414254   2.215   7.036   3.580 -1.5554  1.0276  1.0811
  101MOL    H5514255   2.214   7.193   3.778  1.0168  0.1529 -0.2630
  101MOL    H5614256   2.293   7.058   3.877 -0.0033 -0.6169 -0.2869
  101MOL    H5714257   2.134   7.048   3.792  0.6198  0.7992 -3.0744
  101MOL    C5814258   2.391   7.156   3.476 -0.3183  0.1422 -0.1473
  101MOL    C5914259   2.308   7.276   3.422  0.4318 -0.1029 -0.3610
  101MOL    O6014260   2.526   7.165   3.450  0.4657 -0.1637  0.2792
  101MOL    H6114261   2.370   7.066   3.417  0.9635 -0.7915  0.7910
  101MOL    H6214262   2.223   7.294   3.488  0.2144  0.3963 -0.7773
  101MOL    H6314263   2.273   7.265   3.320 -1.3982  1.3844  0.0804
  101MOL    H6414264   2.362   7.371   3.421 -0.1743  0.2719  1.2663
  101MOL    C6514265   2.604   7.064   3.495 -0.0777  0.5076  0.0918
  101MOL    C6614266   2.691   7.020   3.376 -0.3018 -0.0173 -0.0302
  101MOL    O6714267   2.700   7.100   3.587 -1.1524  0.0526 -0.0890
  101MOL    H6814268   2.539   6.984   3.531  0.3997  0.0260 -0.1042
  101MOL    H6914269   2.745   6.932   3.412 -0.5315  0.0666  0.5158
  101MOL    H7014270   2.762   7.100   3.360  1.0285 -0.8874  1.4373
  101MOL    H7114271   2.631   6.996   3.288  0.5933 -0.2536 -0.5756
  101MOL    C7214272   2.681   7.056   3.715 -0.3537  0.3030 -0.1383
  101MOL    C7314273   2.787   6.953   3.736 -0.6655 -0.4818  0.7120
  101MOL    O7414274   2.717   7.165   3.803 -0.2235 -0.1508 -0.1245
  101MOL    H7514275   2.581   7.025   3.742  0.3776 -2.3234 -0.3224
  101MOL    H7614276   2.757   6.858   3.691 -0.7938 -0.9364  1.7409
  101MOL    H7714277   2.793   6.935   3.843 -0.2482  0.5291  0.8641
  101MOL    H7814278   2.886   6.981   3.699 -0.4273 -0.9612  0.9762
  101MOL    C7914279   2.615   7.261   3.821 -0.2149 -0.3915 -0.3513
  101MOL    C8014280   2.526   7.234   3.946 -0.3595 -0.2503  0.1173
  101MOL    O8114281   2.667   7.388   3.827  0.5327  0.4684  0.0403
  101MOL    H8214282   2.546   7.267   3.737 -1.3970 -0.6852  0.5905
  101MOL    H8314283   2.487   7.132   3.939  0.4432 -0.5669  0.0611
  101MOL    H8414284   2.442   7.301   3.959  0.0435  1.0836 -3.5775
  101MOL    H8514285   2.589   7.239   4.035 -1.2761 -2.4157  0.9337
  101MOL    C8614286   2.727   7.425   3.715 -0.4174 -0.3088 -0.1750
  101MOL    C8714287   2.642   7.532   3.656  0.4786 -0.0802  0.1902
  101MOL    O8814288   2.853   7.480   3.738  1.0249 -0.2292  0.4543
  101MOL    H8914289   2.742   7.340   3.649  0.6977  0.5281 -1.0053
  101MOL    H9014290   2.634   7.617   3.724 -0.4075  0.4810 -0.6028
  101MOL    H9114291   2.545   7.493   3.625  0.9029 -1.3101  0.3798
  101MOL    H9214292   2.701   7.566   3.571 -1.4119  1.3917 -0.5678
  101MOL    C9314293   2.947   7.390   3.789  0.1169  0.0221  0.0787
  101MOL    C9414294   3.015   7.328   3.670  0.2535 -0.4356  0.1764
  101MOL    O9514295   3.043   7.451   3.867 -0.0304 -0.3053  0.9910
  101MOL    H9614296   2.894   7.318   3.851  2.5291 -1.0151  0.9756
  101MOL    H9714297   2.954   7.308   3.581 -0.0948  0.5427  0.1866
  101MOL    H9814298   3.072   7.241   3.701 -1.1915 -1.2522  0.5515
  101MOL    H9914299   3.090   7.399   3.634 -0.9177  0.5205 -0.4105
  101MOL   C10014300   2.985   7.520   3.976 -0.0753 -0.0792 -0.1378
  101MOL   C10114301   3.014   7.436   4.106 -0.3106 -0.0547  0.7721
  101MOL   O10214302   3.038   7.646   3.995 -0.4521  0.4151  0.2690
  101MOL   H10314303   2.877   7.523   3.967 -0.3492 -1.2069  2.3738
  101MOL   H10414304   2.962   7.481   4.191  0.4451  1.8574  0.2434
  101MOL   H10514305   3.121   7.434   4.127  0.2251  1.2298 -1.6577
  101MOL   H10614306   2.964   7.341   4.084  1.0002 -0.8604  1.2585
  101MOL   C10714307   2.993   7.754   3.915  0.6055  0.2503  0.0928
  101MOL   C10814308   2.874   7.825   3.989  0.0466  0.4785  1.1805
  101MOL   O10914309   3.098   7.844   3.908  0.5033 -0.3427  0.0410
  101MOL   H11014310   2.957   7.723   3.817  0.5055 -0.4852  0.3595
  101MOL   H11114311   2.901   7.848   4.092  2.2788  1.4232  0.4009
  101MOL   H11214312   2.783   7.767   3.976  0.3191  0.3351 -0.1116
  101MOL   H11314313   2.848   7.911   3.929  0.9042  0.7196  1.1539
  101MOL   C11414314   3.175   7.840   3.793 -0.2526  0.7754  0.4652
  101MOL   C11514315   3.130   0.045   3.705  0.2380 -0.0592 -0.0043
  101MOL   O11614316   3.310   7.865   3.827  0.6829 -0.0271 -0.1197
  101MOL   H11714317   3.183   7.750   3.732  1.0351  0.3919  1.1677
  101MOL   H11814318   3.026   0.070   3.724  0.2484 -0.8507  1.1226
  101MOL   H11914319   3.136   0.021   3.599  2.1377 -0.9128  0.2720
  101MOL   H12014320   3.188   0.134   3.733  2.2036 -1.1569 -0.4910
  101MOL   C12114321   3.385   7.758   3.873  0.2703  0.0628 -0.5574
  101MOL   C12214322   3.481   7.715   3.760 -0.1592  0.0384  0.1845
  101MOL   O12314323   3.467   7.790   3.981 -0.1364 -0.3203  0.7399
  101MOL   H12414324   3.324   7.671   3.899  0.3092  0.8067  2.1381
  101MOL   H12514325   3.420   7.694   3.672  0.5020 -2.8990  0.3710
  101MOL   H12614326   3.544   7.628   3.778 -2.7546 -2.4636 -2.2406
  101MOL   H12714327   3.547   7.799   3.737 -0.1627  0.1762  0.6772
  101MOL   C12814328   3.393   7.806   4.101 -0.6962  0.3018  0.7052
  101MOL   C12914329   3.456   7.696   4.197 -0.0465  1.1971 -0.1720
  101MOL   O13014330   3.407   0.011   4.167  0.0240 -0.6126 -0.1232
  101MOL   H13114331   3.287   7.781   4.096 -1.1866  2.7772 -3.5606
  101MOL   H13214332   3.417   7.692   4.299 -1.6709  2.3708 -0.7287
  101MOL   H13314333   3.565   7.684   4.199 -0.3191 -1.6318  1.6180
  101MOL   H13414334   3.411   7.602   4.164  0.3517  0.6788  0.7279
  101MOL   C13514335   3.329   0.113   4.116 -0.4495  0.0544 -0.0016
  101MOL   C13614336   3.339   0.229   4.218  0.5935 -0.7845  1.2418
  101MOL   O13714337   3.367   0.154   3.995  0.1373 -0.0352  0.3161
  101MOL   H13814338   3.226   0.078   4.105 -0.5825  0.9013 -1.6274
  101MOL   H13914339   3.286   0.200   4.308 -1.2143 -0.3397  0.3491
  101MOL   H14014340   3.288   0.318   4.179 -0.1987 -1.3249  1.0229
  101MOL   H14114341   3.440   0.255   4.249  0.3489  0.5709  0.9658
  101MOL   H14214342   3.320   0.103   3.930  0.6212  0.0788 -0.1294
  102MOL     C114343   6.924   1.195   0.304  0.3457  0.1827  0.1962
  102MOL     C214344   6.846   1.205   0.172 -0.0440 -0.0554 -0.0370
  102MOL     O314345   7.066   1.196   0.267 -0.3206  1.4712  0.0389
  102MOL     H414346   6.897   1.099   0.348  0.5968  0.7488  1.6041
  102MOL     H514347   6.872   1.125   0.103  0.0094 -0.0807  0.0129
  102MOL     H614348   6.888   1.297   0.131 -2.8384  1.5641  0.5997
  102MOL     H714349   6.738   1.213   0.189 -0.3950 -0.9046 -1.7238
  102MOL     H814350   6.897   1.272   0.376 -0.6231  1.1413 -1.1801
  102MOL     C914351   7.152   1.202   0.375 -0.0241  0.3342 -0.3030
  102MOL    C1014352   7.236   1.069   0.370 -0.5249  0.2630  0.3295
  102MOL    O1114353   7.232   1.310   0.358  0.4290 -0.1720 -0.0680
  102MOL    H1214354   7.102   1.202   0.471  0.3125  0.9383 -0.1281
  102MOL    H1314355   7.167   0.985   0.379 -0.5500  0.0868 -1.2839
  102MOL    H1414356   7.311   1.065   0.449  0.5911 -1.7399 -0.7811
  102MOL    H1514357   7.278   1.062   0.270 -1.8666 -1.1123 -0.1531
  102MOL    C1614358   7.182   1.429   0.401 -0.4992  0.1352 -0.6739
  102MOL    C1714359   7.241   1.459   0.539  0.8715 -0.8308  0.3467
  102MOL    O1814360   7.217   1.528   0.311 -0.5827  0.1352 -0.4024
  102MOL    H1914361   7.074   1.434   0.411 -0.6363  0.7050 -2.2985
  102MOL    H2014362   7.350   1.454   0.538  0.9018 -0.3276  0.7097
  102MOL    H2114363   7.204   1.392   0.616  0.0579  0.2174  0.8784
  102MOL    H2214364   7.208   1.562   0.556  0.6314 -0.9547  0.6203
  102MOL    C2314365   7.135   1.537   0.200  0.4770 -0.1801 -0.3393
  102MOL    C2414366   7.022   1.637   0.207  0.4994 -0.3993 -0.4996
  102MOL    O2514367   7.213   1.575   0.090 -0.3163  0.2493 -0.1481
  102MOL    H2614368   7.092   1.438   0.186 -0.0308 -0.1466  0.9101
  102MOL    H2714369   7.061   1.735   0.233 -0.7056 -0.1393  0.3930
  102MOL    H2814370   6.948   1.597   0.277 -1.9402  2.5041 -1.3285
  102MOL    H2914371   6.988   1.635   0.104  1.1753 -1.0285 -0.7137
  102MOL    C3014372   7.290   1.465   0.037  0.1668  0.1439  0.2894
  102MOL    C3114373   7.251   1.454   7.802 -0.6165 -0.3298  0.4499
  102MOL    O3214374   7.426   1.493   0.041 -0.0306 -0.0414 -0.1036
  102MOL    H3314375   7.269   1.367   0.079  1.2694 -0.5330 -0.7234
  102MOL    H3414376   7.318   1.387   7.748 -0.8403  0.6070 -1.0013
  102MOL    H3514377   7.266   1.554   7.763  1.3038  0.5192  3.1832
  102MOL    H3614378   7.146   1.427   7.789 -0.5126 -0.4556 -0.1161
  102MOL    C3714379   7.487   1.437   0.160 -0.3113  1.0873 -0.0454
  102MOL    C3814380   7.538   1.288   0.133  1.1325  0.4074 -0.2352
  102MOL    O3914381   7.598   1.516   0.198  0.2936 -0.7776  0.0558
  102MOL    H4014382   7.422   1.420   0.245  0.5915  1.4368  0.7179
  102MOL    H4114383   7.560   1.247   0.232 -1.8652 -0.3277  0.1507
  102MOL    H4214384   7.626   1.283   0.068  1.5625 -2.0251  0.4636
  102MOL    H4314385   7.465   1.220   0.090  1.0537 -0.3726  1.1184
  102MOL    C4414386   7.555   1.623   0.276  0.1349  0.3424  0.2197
  102MOL    C4514387   7.630   1.612   0.410  0.1265  0.1113  0.2692
  102MOL    O4614388   7.592   1.747   0.228  0.1940  0.2450 -0.5627
  102MOL    H4714389   7.448   1.619   0.295 -0.0477 -1.9960 -1.1216
  102MOL    H4814390   7.574   1.537   0.466 -1.8834  1.1377 -0.3108
  102MOL    H4914391   7.627   1.711   0.455 -1.8027  1.2810 -2.2569
  102MOL    H5014392   7.733   1.577   0.408 -0.0109 -0.2751 -0.2985
  102MOL    C5114393   7.515   1.797   0.120  0.0727  0.2168  0.6658
  102MOL    C5214394   7.427   1.917   0.164  0.0908 -0.4144 -0.7026
  102MOL    O5314395   7.589   1.838   0.009 -0.0881 -0.4521 -0.0500
  102MOL    H5414396   7.455   1.713   0.084  0.7893 -0.6593  1.5001
  102MOL    H5514397   7.491   2.005   0.166 -1.4760  0.7685 -1.7157
  102MOL    H5614398   7.383   1.898   0.262 -0.6183 -2.3190 -1.3609
  102MOL    H5714399   7.351   1.927   0.087 -0.5184  1.4645  0.1217
  102MOL    C5814400   7.619   1.738   7.830 -0.2935  0.0210 -0.1300
  102MOL    C5914401   7.519   1.749   7.713 -0.5147 -0.0810 -0.5032
  102MOL    O6014402   7.746   1.759   7.782 -0.0263  0.1841 -0.5383
  102MOL    H6114403   7.627   1.641   7.880 -0.6325 -0.6534 -1.3662
  102MOL    H6214404   7.528   1.670   7.640 -2.2644  0.6670 -1.5597
  102MOL    H6314405   7.506   1.850   7.674 -0.3822 -0.0697 -0.5181
  102MOL    H6414406   7.415   1.736   7.743 -0.7170  1.5176 -0.4462
  102MOL    C6514407   7.848   1.738   7.875  0.8974  0.4230 -0.0764
  102MOL    C6614408   0.007   1.602   7.851 -0.5848  0.4810 -0.7143
  102MOL    O6714409   0.028   1.840   7.860 -0.0227  0.4472  0.1910
  102MOL    H6814410   7.815   1.748   0.064 -1.0569  2.0643 -0.8361
  102MOL    H6914411   0.077   1.575   0.017  0.1944  2.0015 -0.8710
  102MOL    H7014412   0.072   1.616   7.764  1.4959 -0.0357  0.7023
  102MOL    H7114413   7.847   1.525   7.831 -0.5727 -0.2435  1.8260
  102MOL    C7214414   7.912   1.949   0.022 -0.1570 -0.7704 -0.0283
  102MOL    C7314415   0.074   1.946   0.161  0.2269  0.0967 -0.1835
  102MOL    O7414416   0.029   2.069   7.872  0.6439  0.0216  0.0419
  102MOL    H7514417   7.805   1.944   0.040 -0.1504 -2.1226 -0.2948
  102MOL    H7614418   0.033   2.023   0.226  1.4155  0.9108 -0.3866
  102MOL    H7714419   0.179   1.975   0.149  0.3364 -0.4023 -0.4412
  102MOL    H7814420   0.070   1.845   0.201 -2.2001 -0.4236 -1.6949
  102MOL    C7914421   7.836   2.125   7.801  0.9349  0.4939 -0.0400
  102MOL    C8014422   7.786   2.244   7.889 -0.5181 -0.0505  0.3255
  102MOL    O8114423   7.866   2.174   7.677  0.3751 -0.1883 -0.0326
  102MOL    H8214424   7.751   2.057   7.787 -0.5488  2.1679  0.6359
  102MOL    H8314425   7.695   2.293   7.852 -1.6773 -0.2935  2.7535
  102MOL    H8414426   7.866   2.318   7.897 -0.2383 -0.1509 -1.3248
  102MOL    H8514427   7.770   2.206   0.076  1.3423 -1.8548 -0.0474
  102MOL    C8614428   7.906   2.086   7.584  0.5212 -0.3380 -0.7314
  102MOL    C8714429   7.793   2.058   7.488 -0.6551 -0.3232 -0.1852
  102MOL    O8814430   0.097   2.146   7.509  0.0214 -0.0314  0.5186
  102MOL    H8914431   0.025   1.996   7.635  0.4881  2.0524  3.7831
  102MOL    H9014432   7.712   2.008   7.540 -0.5166 -1.8740 -1.4088
  102MOL    H9114433   7.825   1.988   7.411 -0.4012  1.1346 -1.4309
  102MOL    H9214434   7.752   2.142   7.432  1.2371  1.4655  1.0416
  102MOL    C9314435   0.212   2.157   7.590 -0.2697  0.8431  0.2315
  102MOL    C9414436   0.304   2.039   7.548  0.1705  0.1347  0.5330
  102MOL    O9514437   0.275   2.282   7.562  0.3100  0.5249  0.0314
  102MOL    H9614438   0.197   2.145   7.698 -1.0057 -0.2847  0.0138
  102MOL    H9714439   0.357   2.060   7.455 -0.1322 -2.6528 -0.3261
  102MOL    H9814440   0.258   1.941   7.558  1.7192 -0.8399 -1.6410
  102MOL    H9914441   0.395   2.044   7.609  0.6303  3.2328 -0.3351
  102MOL   C10014442   0.198   2.393   7.596  0.2333 -0.1389 -0.4211
  102MOL   C10114443   0.257   2.467   7.714  0.3344  0.2374  0.0380
  102MOL   O10214444   0.173   2.478   7.487 -0.0866  0.4724  0.6998
  102MOL   H10314445   0.100   2.355   7.626  0.4507 -1.1579 -0.9493
  102MOL   H10414446   0.251   2.423   7.814  1.1836  0.3674  0.1497
  102MOL   H10514447   0.222   2.570   7.719  0.0616  0.1290  0.3633
  102MOL   H10614448   0.365   2.471   7.696 -0.0710  1.9799 -2.0743
  102MOL   C10714449   0.104   2.417   7.376 -0.2129  0.0501 -0.4846
  102MOL   C10814450   7.869   2.431   7.394 -0.0243 -0.3135 -0.4056
  102MOL   O10914451   0.131   2.491   7.264 -0.0357 -0.6671  0.5517
  102MOL   H11014452   0.137   2.314   7.361  1.0097 -0.1685  3.1451
  102MOL   H11114453   7.826   2.357   7.327 -1.1052 -0.1872  0.1316
  102MOL   H11214454   7.840   2.534   7.373 -2.7638 -0.7127  1.2427
  102MOL   H11314455   7.839   2.408   7.496 -1.4142  0.6649 -0.5932
  102MOL   C11414456   0.266   2.473   7.229  0.3305  0.3234  0.3281
  102MOL   C11514457   0.268   2.359   7.127  0.3633  0.6829 -0.0286
  102MOL   O11614458   0.310   2.591   7.169  0.4029  0.4397 -0.6814
  102MOL   H11714459   0.327   2.449   7.316  0.0491  0.0394  0.4501
  102MOL   H11814460   0.368   2.365   7.082 -0.1820  0.3698 -1.3252
  102MOL   H11914461   0.188   2.357   7.053 -0.6993  0.9944  1.0928
  102MOL   H12014462   0.258   2.264   7.179 -0.9081  1.9650  2.1270
  102MOL   C12114463   0.311   2.696   7.253  0.2784  0.1811  0.1295
  102MOL   C12214464   0.456   2.729   7.296  0.0452  0.9398 -0.3604
  102MOL   O12314465   0.261   2.808   7.193 -0.2824 -0.2544  0.3985
  102MOL   H12414466   0.257   2.690   7.347 -1.9235  3.4597 -0.8428
  102MOL   H12514467   0.510   2.638   7.325 -0.8621  0.2520 -0.7974
  102MOL   H12614468   0.439   2.795   7.380  0.2069 -1.0121  1.2411
  102MOL   H12714469   0.504   2.783   7.214 -1.1101  0.3847 -1.4152
  102MOL   C12814470   0.123   2.817   7.192  0.1581  0.9309  0.6694
  102MOL   C12914471   0.074   2.956   7.257 -0.2435 -0.0041  0.1130
  102MOL   O13014472   0.079   2.825   7.056 -0.4219  0.1882 -0.2557
  102MOL   H13114473   0.075   2.734   7.244  2.0816  0.0389  1.0573
  102MOL   H13214474   0.118   2.967   7.356  2.8180 -3.1072 -0.8102
  102MOL   H13314475   7.880   2.971   7.259 -0.4082 -1.2299  0.4399
  102MOL   H13414476   0.126   3.025   7.190  1.0422 -1.8482 -0.8147
  102MOL   C13514477   0.021   2.701   7.011  0.5938 -0.0881  0.1724
  102MOL   C13614478   7.863   2.735   6.879  0.1704  0.3244  0.6074
  102MOL   O13714479   0.127   2.620   6.976  0.0192  0.3302 -0.3402
  102MOL   H13814480   7.871   2.654   7.086 -1.3822  0.6044 -1.0594
  102MOL   H13914481   0.004   2.810   6.822 -2.6699  0.8000 -1.6440
  102MOL   H14014482   7.765   2.773   6.908  0.0440  1.2742 -1.0170
  102MOL   H14114483   7.843   2.653   6.810 -0.6829  1.1239 -0.1090
  102MOL   H14214484   0.177   2.610   7.056 -0.0168  0.7070 -0.2709
  103MOL     C114485   0.666   6.172   4.143 -0.3042  0.2132  0.7119
  103MOL     C214486   0.768   6.203   4.031 -0.1652 -0.5784 -0.9829
  103MOL     O314487   0.602   6.051   4.100  0.1831  0.4602  0.1827
  103MOL     H414488   0.598   6.256   4.156 -0.8871 -0.0968 -0.3052
  103MOL     H514489   0.718   6.166   3.942 -0.1416 -1.0114 -0.8199
  103MOL     H614490   0.863   6.150   4.036  0.4792  0.7461  1.6186
  103MOL     H714491   0.790   6.309   4.032  0.0987 -0.6340 -0.9748
  103MOL     H814492   0.718   6.160   4.238  2.6132  0.3053 -0.8305
  103MOL     C914493   0.520   6.005   4.206 -0.3060 -0.2748  0.1219
  103MOL    C1014494   0.386   6.075   4.202 -1.3284  0.1256  0.1702
  103MOL    O1114495   0.491   5.874   4.176 -0.2192 -0.5073  0.1518
  103MOL    H1214496   0.551   6.010   4.311  0.8101 -0.7376 -0.1830
  103MOL    H1314497   0.326   6.064   4.112 -0.9207 -2.8192  0.2208
  103MOL    H1414498   0.394   6.183   4.220 -0.7511  0.1732 -0.3845
  103MOL    H1514499   0.335   6.030   4.287  0.2549 -3.0080 -0.5029
  103MOL    C1614500   0.595   5.788   4.207  0.2257  0.0952  0.0409
  103MOL    C1714501   0.557   5.699   4.323 -0.6332  0.5965  0.1607
  103MOL    O1814502   0.610   5.711   4.094  0.2384 -0.0942 -0.4642
  103MOL    H1914503   0.687   5.844   4.222  0.4761 -0.5553  0.9338
  103MOL    H2014504   0.522   5.759   4.407 -0.7090 -0.6774  1.0449
  103MOL    H2114505   0.638   5.635   4.357  0.7654  1.2424 -1.8724
  103MOL    H2214506   0.479   5.630   4.291  0.2493  0.2207 -1.2039
  103MOL    C2314507   0.716   5.759   4.011 -0.5939 -0.9093  0.4194
  103MOL    C2414508   0.847   5.685   4.036  0.1772 -0.2739  0.5559
  103MOL    O2514509   0.680   5.717   3.880 -0.8687  0.0984 -0.0226
  103MOL    H2614510   0.735   5.866   4.016  2.4543 -1.3456 -0.6164
  103MOL    H2714511   0.903   5.678   3.943 -0.6197 -3.1394  0.2509
  103MOL    H2814512   0.841   5.586   4.081 -0.4902  0.8920  3.1504
  103MOL    H2914513   0.901   5.742   4.112 -1.4902  0.8070  0.9534
  103MOL    C3014514   0.588   5.798   3.826 -0.6620 -0.5389 -0.1320
  103MOL    C3114515   0.659   5.885   3.716  0.3035 -0.0625  0.6829
  103MOL    O3214516   0.494   5.719   3.762  0.4784 -0.2500 -0.2797
  103MOL    H3314517   0.541   5.864   3.899 -2.4761  0.6266 -2.2664
  103MOL    H3414518   0.684   5.827   3.628 -0.5857  0.2423  0.2187
  103MOL    H3514519   0.750   5.931   3.755 -0.0125  1.6298 -0.5062
  103MOL    H3614520   0.592   5.965   3.683  0.3806 -1.2927 -2.6042
  103MOL    C3714521   0.389   5.680   3.848  0.4373 -0.4252  0.2269
  103MOL    C3814522   0.263   5.765   3.817  0.1616  0.0345  0.0473
  103MOL    O3914523   0.352   5.543   3.822  0.2383  0.5919  0.0807
  103MOL    H4014524   0.406   5.703   3.953 -1.2544 -1.3748  0.7456
  103MOL    H4114525   0.180   5.764   3.888  0.1167 -1.6891 -0.0103
  103MOL    H4214526   0.222   5.729   3.723  0.2851  0.1102 -0.0357
  103MOL    H4314527   0.298   5.867   3.799  0.1859  0.0352  0.0981
  103MOL    C4414528   0.439   5.461   3.888 -0.0002 -0.7583 -0.0331
  103MOL    C4514529   0.358   5.392   3.991  0.0122  0.1840 -0.2865
  103MOL    O4614530   0.487   5.368   3.805  0.1758  0.0342 -0.2517
  103MOL    H4714531   0.517   5.514   3.941 -1.4807  0.0347  1.4227
  103MOL    H4814532   0.292   5.315   3.952  2.0817 -2.6369  1.6500
  103MOL    H4914533   0.296   5.468   4.041  0.6620  0.1177  0.6367
  103MOL    H5014534   0.427   5.342   4.059  1.1580 -0.8631 -2.2126
  103MOL    C5114535   0.608   5.402   3.748 -0.2544 -0.2056  0.1318
  103MOL    C5214536   0.713   5.323   3.815 -0.5890  0.5846  0.5634
  103MOL    O5314537   0.607   5.369   3.614  0.1007 -0.0788 -0.0365
  103MOL    H5414538   0.621   5.510   3.758  0.4495 -0.1973 -0.8591
  103MOL    H5514539   0.684   5.225   3.855 -0.2492  0.8875  1.5735
  103MOL    H5614540   0.743   5.349   3.917 -0.9565  0.5791  0.6762
  103MOL    H5714541   0.799   5.302   3.752 -0.7746 -3.0638  1.3761
  103MOL    C5814542   0.549   5.473   3.528  0.5161  0.5377  0.0143
  103MOL    C5914543   0.660   5.540   3.447  0.0808  0.1424 -0.1869
  103MOL    O6014544   0.456   5.417   3.447  0.1986  0.0084  0.6669
  103MOL    H6114545   0.501   5.552   3.585 -0.8205 -0.0954 -0.1868
  103MOL    H6214546   0.699   5.477   3.367  1.4726  1.9235 -0.9437
  103MOL    H6314547   0.737   5.587   3.508 -0.8755  0.9746  0.3920
  103MOL    H6414548   0.605   5.617   3.394  0.7241 -0.9284 -2.4872
  103MOL    C6514549   0.341   5.365   3.512  0.2827 -0.1375 -0.5378
  103MOL    C6614550   0.222   5.455   3.466 -0.2910 -0.2370 -0.3953
  103MOL    O6714551   0.312   5.231   3.475 -0.0706  0.3197  0.0827
  103MOL    H6814552   0.342   5.361   3.621 -0.6258 -0.0745 -0.5218
  103MOL    H6914553   0.139   5.401   3.511  1.2071 -1.0511  1.4420
  103MOL    H7014554   0.212   5.451   3.357  0.2477 -0.6621 -0.4331
  103MOL    H7114555   0.232   5.559   3.496  2.4313 -0.6705  0.3659
  103MOL    C7214556   0.388   5.129   3.530  0.6029 -0.2883  0.2245
  103MOL    C7314557   0.296   5.042   3.625  0.4088 -0.1878 -0.3527
  103MOL    O7414558   0.425   5.048   3.426 -0.1004 -0.0006 -0.4450
  103MOL    H7514559   0.478   5.162   3.581  0.5183  0.1259  0.1059
  103MOL    H7614560   0.360   4.961   3.658  2.3143  0.9885 -1.1229
  103MOL    H7714561   0.209   5.006   3.570 -0.9183 -0.3792  1.8254
  103MOL    H7814562   0.260   5.104   3.707  2.4788  0.9909 -0.3194
  103MOL    C7914563   0.540   5.099   3.352  0.1265  0.0332 -0.2391
  103MOL    C8014564   0.648   4.992   3.369 -0.3404  0.1632  0.4608
  103MOL    O8114565   0.510   5.102   3.218 -0.1394 -0.7937  0.0035
  103MOL    H8214566   0.582   5.193   3.387  0.4192 -0.5777  1.0624
  103MOL    H8314567   0.620   4.888   3.353 -1.5979  0.5994 -0.1994
  103MOL    H8414568   0.696   4.998   3.467  0.3422  1.6903  0.0548
  103MOL    H8514569   0.731   5.019   3.305 -0.6678  2.6194  1.0156
  103MOL    C8614570   0.402   5.183   3.177  0.1737 -0.2098  0.2502
  103MOL    C8714571   0.454   5.300   3.088 -0.1236  0.2553 -0.1305
  103MOL    O8814572   0.303   5.108   3.108  0.2523 -0.1037 -0.0723
  103MOL    H8914573   0.357   5.226   3.267 -0.0359  0.9063 -0.3766
  103MOL    H9014574   0.375   5.374   3.079  0.5081  0.9313 -0.1403
  103MOL    H9114575   0.479   5.254   2.992  0.0630  0.4451 -0.1738
  103MOL    H9214576   0.543   5.338   3.138 -0.7549 -0.3600  1.4885
  103MOL    C9314577   0.210   5.040   3.192 -0.4223 -0.5629  0.1319
  103MOL    C9414578   0.080   5.103   3.147 -0.7114  0.0477  0.0162
  103MOL    O9514579   0.208   4.908   3.169  0.0518  0.0466  0.1224
  103MOL    H9614580   0.227   5.072   3.295  1.1505  1.1166 -0.6186
  103MOL    H9714581   0.090   5.211   3.145 -0.8697  0.0729 -4.5228
  103MOL    H9814582   0.006   5.072   3.222  0.7950 -1.1547  1.0581
  103MOL    H9914583   0.042   5.079   3.048 -2.3012 -1.2033  0.9031
  103MOL   C10014584   0.318   4.831   3.208 -0.0745  0.2439 -0.3717
  103MOL   C10114585   0.281   4.755   3.337  0.2047 -0.1918 -0.2777
  103MOL   O10214586   0.343   4.735   3.107  0.0117  0.2726  0.1414
  103MOL   H10314587   0.413   4.883   3.225 -0.1110  1.1024 -2.5950
  103MOL   H10414588   0.236   4.826   3.405  2.0002  1.3606 -0.6715
  103MOL   H10514589   0.372   4.706   3.371 -0.4694 -1.3360 -0.0905
  103MOL   H10614590   0.212   4.673   3.317  0.9713 -0.5111 -1.6951
  103MOL   C10714591   0.425   4.778   3.001  0.3472  0.4066  0.2891
  103MOL   C10814592   0.552   4.696   3.007 -0.4169  0.2599 -0.0988
  103MOL   O10914593   0.362   4.750   2.880  0.2618  0.2034  0.0731
  103MOL   H11014594   0.454   4.883   3.008  2.3733 -0.1467  0.6067
  103MOL   H11114595   0.537   4.589   3.000 -0.2791  0.2893 -0.8636
  103MOL   H11214596   0.592   4.704   3.108 -0.9232 -1.9969  0.2904
  103MOL   H11314597   0.628   4.712   2.930 -2.5157  1.1092 -2.0654
  103MOL   C11414598   0.262   4.846   2.853 -0.8260 -0.1713  0.2958
  103MOL   C11514599   0.315   4.957   2.770 -0.6893 -0.2197  0.0557
  103MOL   O11614600   0.159   4.778   2.783 -0.1782  0.1241 -0.0675
  103MOL   H11714601   0.224   4.887   2.947 -1.0616  2.9311 -1.1220
  103MOL   H11814602   0.245   5.030   2.732 -0.8982  0.7314  2.1986
  103MOL   H11914603   0.369   4.919   2.684  0.6873  1.6361  0.0664
  103MOL   H12014604   0.393   5.005   2.830 -0.3115 -1.1644  0.3454
  103MOL   C12114605   0.068   4.718   2.874  0.5672  0.2940 -0.0532
  103MOL   C12214606   7.858   4.797   2.863 -0.2533 -0.5791  0.4977
  103MOL   O12314607   0.038   4.580   2.851 -0.2878  0.6513  0.4607
  103MOL   H12414608   0.104   4.726   2.976  0.4386 -1.0274  0.1106
  103MOL   H12514609   7.779   4.763   2.930 -1.1388  2.1759  0.9310
  103MOL   H12614610   7.825   4.799   2.759 -0.9814  1.0373  0.7345
  103MOL   H12714611   7.875   4.902   2.888  2.0997 -0.6219 -0.7637
  103MOL   C12814612   0.146   4.500   2.840  0.1999  0.0183  0.1439
  103MOL   C12914613   0.180   4.454   2.983  0.3231  0.1376 -0.0836
  103MOL   O13014614   0.125   4.389   2.765  0.7884  0.4654 -0.0082
  103MOL   H13114615   0.227   4.559   2.796 -0.3049  0.3619 -0.3227
  103MOL   H13214616   0.265   4.388   2.994  0.8949  0.6389 -1.3219
  103MOL   H13314617   0.089   4.420   3.033 -0.4398  0.8183 -0.9850
  103MOL   H13414618   0.225   4.539   3.035 -0.1557  0.5982 -0.4062
  103MOL   C13514619   0.118   4.408   2.631  0.4739 -0.2129 -0.5833
  103MOL   C13614620   0.170   4.280   2.562 -0.3075  0.4024  0.2977
  103MOL   O13714621   7.905   4.430   2.586  0.2200 -0.0290  0.3277
  103MOL   H13814622   0.185   4.489   2.602 -0.9341  1.3218  0.3661
  103MOL   H13914623   0.106   4.197   2.592  1.3568  0.2208  3.5422
  103MOL   H14014624   0.276   4.266   2.582  0.2024  2.5404 -0.7608
  103MOL   H14114625   0.152   4.290   2.455 -0.5771 -2.7015  0.0065
  103MOL   H14214626   7.876   4.507   2.632 -1.4097 -0.7889  0.5914
  104MOL     C114627   4.924   1.089   1.223 -0.0231 -0.5255 -0.1603
  104MOL     C214628   4.900   1.240   1.235  0.1076 -0.4808  0.0005
  104MOL     O314629   5.058   1.064   1.178 -0.0074  0.2626 -0.4794
  104MOL     H414630   4.849   1.047   1.155 -0.9070 -0.1288  0.5650
  104MOL     H514631   4.920   1.289   1.140  0.6199  0.0193  0.3600
  104MOL     H614632   4.964   1.283   1.313 -0.0932  1.4599 -0.8586
  104MOL     H714633   4.798   1.263   1.266  0.3382  1.4259 -0.5774
  104MOL     H814634   4.908   1.040   1.319  3.5936  0.7151  1.1280
  104MOL     C914635   5.101   0.930   1.195 -0.0406 -0.0002  0.0003
  104MOL    C1014636   5.191   0.891   1.074 -0.7019 -0.3506 -0.6142
  104MOL    O1114637   5.181   0.920   1.310 -0.3671 -0.3875  0.0813
  104MOL    H1214638   5.015   0.863   1.188  0.9153 -1.2755  0.3067
  104MOL    H1314639   5.238   0.794   1.087  0.8402  0.4286 -0.2958
  104MOL    H1414640   5.276   0.959   1.068 -0.1621 -0.8117  1.6283
  104MOL    H1514641   5.136   0.898   0.979 -2.4009  0.0840  0.3834
  104MOL    C1614642   5.135   0.833   1.400  0.4026 -0.0815 -0.1515
  104MOL    C1714643   5.223   0.708   1.380  0.2793 -0.0597 -0.2444
  104MOL    O1814644   5.166   0.874   1.530 -0.3933 -1.0757  0.4124
  104MOL    H1914645   5.029   0.809   1.388  0.6714 -0.8140 -1.2111
  104MOL    H2014646   5.170   0.638   1.316 -0.9998 -0.3588  1.1233
  104MOL    H2114647   5.239   0.652   1.472 -0.6708 -1.7714 -1.0911
  104MOL    H2214648   5.325   0.733   1.351 -0.0249 -0.4639 -1.6722
  104MOL    C2314649   5.056   0.947   1.587 -0.5862 -0.2353 -0.2951
  104MOL    C2414650   4.995   0.856   1.700  0.0607  1.4104  0.3005
  104MOL    O2514651   5.089   1.064   1.657 -0.8992 -0.5031 -0.4120
  104MOL    H2614652   4.976   0.974   1.518 -1.6377 -0.7983  0.6766
  104MOL    H2714653   4.911   0.895   1.757 -0.7027 -1.6594  1.3334
  104MOL    H2814654   5.078   0.827   1.764  1.2473 -0.3749 -1.9801
  104MOL    H2914655   4.961   0.761   1.658  0.1481  1.3689  0.3243
  104MOL    C3014656   5.150   1.160   1.577  0.6226 -0.6173  0.2564
  104MOL    C3114657   5.066   1.291   1.585 -0.1677  0.4256  0.6325
  104MOL    O3214658   5.273   1.189   1.629  0.0907 -1.0143 -0.0543
  104MOL    H3314659   5.158   1.139   1.471  1.6454  1.3371 -0.0835
  104MOL    H3414660   5.110   1.363   1.517 -1.9644  1.9694  1.0783
  104MOL    H3514661   5.072   1.331   1.687  1.4390 -0.5262  0.9302
  104MOL    H3614662   4.963   1.268   1.559  0.4531  0.3791 -1.8502
  104MOL    C3714663   5.382   1.126   1.562  0.0755  0.1295  0.3483
  104MOL    C3814664   5.450   1.236   1.485 -0.1265  0.4262  0.6132
  104MOL    O3914665   5.477   1.065   1.644  0.1406  0.6301 -0.0320
  104MOL    H4014666   5.346   1.060   1.483  1.0301  1.7197 -1.4784
  104MOL    H4114667   5.377   1.281   1.418  0.6199  2.0090  0.8304
  104MOL    H4214668   5.529   1.191   1.426 -1.1051 -1.1348  0.4781
  104MOL    H4314669   5.487   1.305   1.562  0.3383  0.4392  0.3824
  104MOL    C4414670   5.424   0.946   1.683  0.4256  0.0402  0.6328
  104MOL    C4514671   5.482   0.827   1.596  0.5992  0.3870  0.7053
  104MOL    O4614672   5.462   0.925   1.807 -0.0884 -0.1083 -0.8934
  104MOL    H4714673   5.316   0.960   1.695  0.6237  0.1680  2.4461
  104MOL    H4814674   5.432   0.733   1.616  1.3703  0.2818  2.1706
  104MOL    H4914675   5.589   0.818   1.612  0.1552 -1.6569  2.6817
  104MOL    H5014676   5.455   0.831   1.490 -1.8650 -2.4801  1.1614
  104MOL    C5114677   5.398   1.007   1.909  0.2881  0.3452 -0.1210
  104MOL    C5214678   5.297   0.914   1.972 -0.4307  0.1331 -0.6340
  104MOL    O5314679   5.488   1.043   2.006  0.5258 -0.4972 -0.0112
  104MOL    H5414680   5.346   1.089   1.858 -0.3724 -0.0696 -0.1298
  104MOL    H5514681   5.337   0.842   2.044  0.8714  1.3863 -0.0764
  104MOL    H5614682   5.233   0.873   1.894  0.1020 -1.0266 -0.4731
  104MOL    H5714683   5.231   0.978   2.030  0.7245  0.9428 -0.1779
  104MOL    C5814684   5.587   1.128   1.961 -0.5794  0.2856 -0.7011
  104MOL    C5914685   5.558   1.270   2.009 -0.1157  0.3300 -0.0653
  104MOL    O6014686   5.711   1.086   2.018 -0.0003  0.3060  0.1865
  104MOL    H6114687   5.602   1.133   1.853  0.5529 -1.3797 -0.6413
  104MOL    H6214688   5.493   1.314   1.933 -0.1536  1.3631  0.5544
  104MOL    H6314689   5.651   1.326   2.012 -0.1032  0.3331 -0.5489
  104MOL    H6414690   5.515   1.267   2.110 -0.8019 -1.7286 -0.3877
  104MOL    C6514691   5.737   0.953   1.978 -0.4466 -0.5466 -0.3046
  104MOL    C6614692   5.801   0.951   1.835 -0.2773  0.4526  0.0605
  104MOL    O6714693   5.824   0.891   2.061  0.1493  0.2542  0.3406
  104MOL    H6814694   5.654   0.882   1.973  0.2257 -1.3578  0.0258
  104MOL    H6914695   5.743   1.001   1.757 -0.2373  0.1823 -0.1453
  104MOL    H7014696   5.805   0.847   1.803 -0.5037 -0.7567  3.7103
  104MOL    H7114697   5.901   0.992   1.834 -0.6015  1.3117  1.3133
  104MOL    C7214698   5.777   0.863   2.193  0.4028 -0.6119 -0.2219
  104MOL    C7314699   5.724   0.724   2.182 -0.3056 -0.6035 -0.0209
  104MOL    O7414700   5.880   0.862   2.283 -0.3311 -0.7372 -0.2980
  104MOL    H7514701   5.699   0.935   2.215  0.2060 -1.1444  0.8600
  104MOL    H7614702   5.790   0.676   2.110 -0.3773 -0.8930  0.1070
  104MOL    H7714703   5.625   0.720   2.136 -0.0832  1.6426 -0.7946
  104MOL    H7814704   5.725   0.671   2.277  1.4365  0.9826  0.8871
  104MOL    C7914705   5.932   0.985   2.316  0.1107  0.1548  0.2915
  104MOL    C8014706   5.850   1.031   2.434 -0.3558 -0.2633 -0.5786
  104MOL    O8114707   6.059   0.978   2.369  0.1021 -0.0420 -0.2310
  104MOL    H8214708   5.922   1.051   2.230  0.3388  1.4541  1.2527
  104MOL    H8314709   5.886   1.130   2.461  2.3357 -1.3206 -0.2458
  104MOL    H8414710   5.857   0.971   2.524  0.1774 -0.3743 -0.6907
  104MOL    H8514711   5.741   1.029   2.423 -0.8452  1.4598  3.3589
  104MOL    C8614712   6.161   0.981   2.277  0.0465 -0.6581  0.1963
  104MOL    C8714713   6.279   1.062   2.345  0.6092 -0.4044  0.3774
  104MOL    O8814714   6.212   0.847   2.253 -0.3820  0.2600  0.1768
  104MOL    H8914715   6.130   1.039   2.190  2.2903  0.1741 -0.0935
  104MOL    H9014716   6.294   1.007   2.438 -0.2801  0.3022  0.9441
  104MOL    H9114717   6.250   1.160   2.382  1.4324  0.4527 -1.1577
  104MOL    H9214718   6.376   1.058   2.294  1.5492 -3.1566  2.2381
  104MOL    C9314719   6.146   0.769   2.159  0.6784  0.7102  0.8319
  104MOL    C9414720   6.234   0.783   2.028  0.4243  0.0611  0.4988
  104MOL    O9514721   6.160   0.636   2.184 -0.0743 -0.3781 -0.0570
  104MOL    H9614722   6.045   0.805   2.140 -0.4365 -2.0625  1.2345
  104MOL    H9714723   6.338   0.757   2.047  0.4408  0.2822  0.7106
  104MOL    H9814724   6.217   0.880   1.981 -0.5108  0.9396  2.5724
  104MOL    H9914725   6.198   0.722   1.945  1.2242 -0.8394  0.8140
  104MOL   C10014726   6.088   0.581   2.286  0.7960 -0.5215 -0.6558
  104MOL   C10114727   6.045   0.446   2.238  0.3629  0.1619 -0.0028
  104MOL   O10214728   6.166   0.549   2.403 -0.2100 -0.1738  0.0887
  104MOL   H10314729   5.993   0.632   2.297  1.5288  0.5377  0.8388
  104MOL   H10414730   6.005   0.457   2.137  0.8712  1.0852 -0.1070
  104MOL   H10514731   5.962   0.418   2.303  1.2115  0.5894  1.2848
  104MOL   H10614732   6.133   0.383   2.247  0.4784  0.1555 -1.1727
  104MOL   C10714733   6.155   0.641   2.503  0.4750 -0.9426  0.1515
  104MOL   C10814734   6.013   0.626   2.562 -0.0495  0.0020  0.0205
  104MOL   O10914735   6.247   0.630   2.604 -0.4073  0.0698  0.3379
  104MOL   H11014736   6.164   0.744   2.468  1.2949 -2.1994 -3.5219
  104MOL   H11114737   5.949   0.687   2.499 -0.7183 -1.9536 -1.2747
  104MOL   H11214738   6.009   0.675   2.659 -0.4247  0.3619 -0.1756
  104MOL   H11314739   5.986   0.520   2.565 -2.0011  0.4824 -0.1238
  104MOL   C11414740   6.374   0.691   2.580  0.1957 -0.8429  0.4979
  104MOL   C11514741   6.411   0.765   2.704 -0.8573 -0.3697 -0.0884
  104MOL   O11614742   6.475   0.604   2.532 -0.2443 -0.5013  0.0751
  104MOL   H11714743   6.368   0.767   2.502  1.9249  0.2989  1.4397
  104MOL   H11814744   6.494   0.834   2.686 -0.9695 -0.3624 -0.5854
  104MOL   H11914745   6.426   0.694   2.785  1.9196  0.6503  0.3359
  104MOL   H12014746   6.332   0.830   2.743  1.3946  0.9409  2.4530
  104MOL   C12114747   6.486   0.593   2.398  0.0864  0.3257 -0.2644
  104MOL   C12214748   6.579   0.704   2.344 -0.3366 -0.5874 -0.1548
  104MOL   O12314749   6.552   0.472   2.360  0.3102 -0.4147 -0.3226
  104MOL   H12414750   6.386   0.598   2.354 -1.2328  0.8377  2.6823
  104MOL   H12514751   6.598   0.688   2.238 -0.9543 -0.6847 -0.2561
  104MOL   H12614752   6.674   0.708   2.396 -0.4372  0.1978 -0.0309
  104MOL   H12714753   6.539   0.800   2.375 -1.4447 -0.6879 -1.2388
  104MOL   C12814754   6.465   0.368   2.328  0.2909  0.4336  0.0243
  104MOL   C12914755   6.429   0.387   2.180 -0.2739  0.2733 -0.4964
  104MOL   O13014756   6.527   0.245   2.352 -1.3447 -0.1951  0.4272
  104MOL   H13114757   6.375   0.378   2.389  1.5487 -2.0093  2.3760
  104MOL   H13214758   6.335   0.331   2.171 -1.0435  1.5688 -0.6571
  104MOL   H13314759   6.503   0.347   2.112 -1.2734 -2.0332 -0.2758
  104MOL   H13414760   6.404   0.492   2.163 -0.8617  0.7263  2.8941
  104MOL   C13514761   6.564   0.233   2.483  0.0051  0.2495  0.0419
  104MOL   C13614762   6.569   0.084   2.517  0.2436 -0.2510  0.6101
  104MOL   O13714763   6.691   0.293   2.509  0.2717 -0.7908  0.3654
  104MOL   H13814764   6.489   0.282   2.544 -1.1262  0.2686 -1.3435
  104MOL   H13914765   6.583   0.067   2.623 -1.5162  0.4081  0.9657
  104MOL   H14014766   6.656   0.043   2.466  0.5695  0.7976  0.3225
  104MOL   H14114767   6.484   0.029   2.477  1.1782 -2.9917  2.2523
  104MOL   H14214768   6.686   0.387   2.499  2.8435 -0.6234  0.3502
  105MOL     C114769   7.636   2.726   6.305  0.1003  0.2453  0.3198
  105MOL     C214770   7.701   2.590   6.273  0.5346  0.4081  0.2153
  105MOL     O314771   7.497   2.743   6.283  0.2665  0.0963  0.1871
  105MOL     H414772   7.677   2.805   6.242  0.2422  0.3381  0.5274
  105MOL     H514773   7.651   2.512   6.330  0.2514 -0.5572 -1.3098
  105MOL     H614774   7.810   2.589   6.283  0.7265  1.9827 -1.3661
  105MOL     H714775   7.677   2.552   6.173 -1.4496  0.3716  0.6879
  105MOL     H814776   7.667   2.748   6.407 -0.7286  0.9721  0.4276
  105MOL     C914777   7.435   2.864   6.315 -0.0716 -0.2754  0.1728
  105MOL    C1014778   7.359   2.901   6.184 -0.1596  0.0925 -0.2488
  105MOL    O1114779   7.337   2.843   6.408 -0.0730  0.1215 -0.2944
  105MOL    H1214780   7.509   2.939   6.344  1.3887 -0.6164 -2.5017
  105MOL    H1314781   7.275   2.832   6.169  0.8748 -0.7344 -2.5656
  105MOL    H1414782   7.422   2.912   6.095 -1.2907  0.3385 -1.0370
  105MOL    H1514783   7.324   3.004   6.196 -0.9278 -0.4514  2.3765
  105MOL    C1614784   7.364   2.866   6.545 -0.5188  0.6361 -0.7103
  105MOL    C1714785   7.267   2.974   6.597  0.2165 -0.7168  0.1562
  105MOL    O1814786   7.345   2.751   6.621 -0.5367  0.2389 -0.1465
  105MOL    H1914787   7.464   2.905   6.562 -0.6375  0.6223  0.0400
  105MOL    H2014788   7.289   3.000   6.700 -1.7588 -0.9495  0.6619
  105MOL    H2114789   7.164   2.948   6.573  0.3713 -0.2385 -1.1071
  105MOL    H2214790   7.277   3.070   6.545  3.0630 -0.5163  0.9817
  105MOL    C2314791   7.446   2.650   6.611 -0.3498 -0.1423  0.6254
  105MOL    C2414792   7.559   2.661   6.710  0.6081  0.2340  0.1093
  105MOL    O2514793   7.400   2.514   6.609 -0.0230  0.6488 -0.3913
  105MOL    H2614794   7.494   2.659   6.513 -1.5927 -0.3853 -0.0134
  105MOL    H2714795   7.521   2.646   6.811 -2.2359 -1.9883 -1.2157
  105MOL    H2814796   7.608   2.758   6.706 -2.6553  2.0767  2.2671
  105MOL    H2914797   7.625   2.579   6.683  0.4603 -0.4251  1.7080
  105MOL    C3014798   7.305   2.478   6.513 -0.0404 -0.6460 -0.3511
  105MOL    C3114799   7.340   2.336   6.469  0.2988 -0.2149  0.5534
  105MOL    O3214800   7.185   2.453   6.561  0.8822 -0.3150 -0.2228
  105MOL    H3314801   7.306   2.547   6.428 -1.2868  0.7998  0.7820
  105MOL    H3414802   7.443   2.320   6.437  0.7499  1.6699  1.0349
  105MOL    H3514803   7.287   2.318   6.376  1.7334 -1.0128 -0.1374
  105MOL    H3614804   7.306   2.258   6.536  4.0702 -1.9043  0.6455
  105MOL    C3714805   7.098   2.562   6.548 -0.9478 -0.8989  0.9632
  105MOL    C3814806   7.000   2.523   6.444 -0.0390 -0.1342  0.6436
  105MOL    O3914807   7.019   2.570   6.665 -0.4144 -0.4900 -0.1390
  105MOL    H4014808   7.139   2.662   6.533  0.9029 -1.6223  1.0164
  105MOL    H4114809   7.048   2.522   6.346  0.7334  0.7400  1.0004
  105MOL    H4214810   6.914   2.589   6.452  0.0610 -0.2066  2.4928
  105MOL    H4314811   6.952   2.426   6.454 -2.3933  0.6446 -2.4245
  105MOL    C4414812   7.094   2.606   6.782  0.4196  0.5469  0.0589
  105MOL    C4514813   7.040   2.744   6.829 -0.1335  0.3718  0.1911
  105MOL    O4614814   7.061   2.504   6.878 -0.1007 -0.3566 -0.7935
  105MOL    H4714815   7.203   2.604   6.786  0.4571  0.8118 -0.7254
  105MOL    H4814816   7.093   2.823   6.777  0.9340 -1.4575 -1.5488
  105MOL    H4914817   7.067   2.760   6.934 -1.7029  3.6935  0.1686
  105MOL    H5014818   6.932   2.754   6.824 -0.0859  0.7991 -0.0172
  105MOL    C5114819   7.151   2.400   6.879 -0.3324 -0.0179 -0.3870
  105MOL    C5214820   7.241   2.410   7.004  0.2061  0.1470  0.4188
  105MOL    O5314821   7.082   2.277   6.887  0.5552 -0.4006 -0.3456
  105MOL    H5414822   7.224   2.385   6.799  0.1782 -0.5307  0.1636
  105MOL    H5514823   7.302   2.500   7.010  0.2324  0.0853  1.1254
  105MOL    H5614824   7.307   2.328   6.979 -0.6220 -0.6901  0.9348
  105MOL    H5714825   7.189   2.385   7.097 -2.2258 -1.8407 -1.4234
  105MOL    C5814826   6.982   2.255   6.789 -0.0247  0.1165 -0.2520
  105MOL    C5914827   7.021   2.130   6.713 -0.3767  0.3248 -0.2008
  105MOL    O6014828   6.857   2.235   6.843 -0.0962 -0.5488  0.0673
  105MOL    H6114829   6.982   2.341   6.722  1.4575  1.4283  1.3695
  105MOL    H6214830   7.108   2.147   6.649 -0.2999  1.2839  0.1477
  105MOL    H6314831   6.940   2.099   6.647 -0.2894  1.5741 -0.9094
  105MOL    H6414832   7.049   2.052   6.784  0.4938 -1.1925 -2.1653
  105MOL    C6514833   6.777   2.355   6.836 -0.0965 -0.4623  0.8410
  105MOL    C6614834   6.694   2.355   6.702 -0.4471  0.3377  0.3391
  105MOL    O6714835   6.689   2.373   6.939 -0.1541  0.0749 -0.2859
  105MOL    H6814836   6.843   2.442   6.841 -0.4344  0.0443 -2.2353
  105MOL    H6914837   6.637   2.262   6.697  0.2438 -0.1304  1.0646
  105MOL    H7014838   6.761   2.343   6.618 -0.6229 -2.0590  0.5005
  105MOL    H7114839   6.634   2.443   6.681 -1.5157 -0.3178  0.5958
  105MOL    C7214840   6.746   2.420   7.062  0.2321  0.6863 -0.1998
  105MOL    C7314841   6.657   2.533   7.122 -0.0808  0.0559  0.2715
  105MOL    O7414842   6.739   2.327   7.164 -0.2060  0.3851 -0.1839
  105MOL    H7514843   6.849   2.452   7.044  1.6578 -3.7127 -0.4210
  105MOL    H7614844   6.640   2.601   7.039  1.0785  0.8074  0.6357
  105MOL    H7714845   6.708   2.576   7.209 -1.8589  2.0480  0.3622
  105MOL    H7814846   6.562   2.495   7.159 -0.2588  1.2369  1.0643
  105MOL    C7914847   6.853   2.237   7.167  0.2964 -0.0783 -0.7416
  105MOL    C8014848   6.922   2.281   7.299 -0.0526  0.8035  0.3551
  105MOL    O8114849   6.802   2.110   7.186 -0.2749 -0.0862 -0.0222
  105MOL    H8214850   6.915   2.237   7.078 -1.6671 -1.2382 -2.1636
  105MOL    H8314851   6.865   2.301   7.389  2.0464 -1.2635  2.2148
  105MOL    H8414852   6.988   2.364   7.270  0.6768  0.5364  1.2184
  105MOL    H8514853   6.981   2.193   7.327 -0.0682  0.0460 -1.8537
  105MOL    C8614854   6.713   2.064   7.085  0.3051 -0.2778  0.2927
  105MOL    C8714855   6.802   1.956   7.021  0.6377 -0.7208  0.8081
  105MOL    O8814856   6.609   2.007   7.146  0.0331  0.6676  0.3660
  105MOL    H8914857   6.674   2.143   7.021  0.6080 -0.3802 -0.0143
  105MOL    H9014858   6.891   2.001   6.978  0.0539 -0.2259  0.1003
  105MOL    H9114859   6.742   1.914   6.939 -0.1325  1.9375 -0.0483
  105MOL    H9214860   6.817   1.875   7.091  1.9544 -0.6706  0.5972
  105MOL    C9314861   6.524   2.095   7.211 -0.1299  0.5044 -0.3378
  105MOL    C9414862   6.413   2.124   7.109  0.1240  0.1584 -0.4936
  105MOL    O9514863   6.459   2.044   7.322 -0.0318  0.1909  0.2537
  105MOL    H9614864   6.579   2.185   7.240  1.0303 -1.5390  4.3486
  105MOL    H9714865   6.355   2.212   7.138  0.8220 -0.7261  3.8638
  105MOL    H9814866   6.357   2.032   7.094 -2.6118  1.6081  0.4516
  105MOL    H9914867   6.462   2.152   7.016 -1.3027  0.4428 -1.1777
  105MOL   C10014868   6.548   1.997   7.422  0.0920  0.1064  0.2821
  105MOL   C10114869   6.581   2.114   7.517 -0.5546  0.1636  0.2451
  105MOL   O10214870   6.488   1.899   7.504  0.2972 -0.1579 -0.5680
  105MOL   H10314871   6.636   1.949   7.379  0.5685  0.6949  0.5828
  105MOL   H10414872   6.488   2.166   7.542 -0.1818  0.1380  1.7189
  105MOL   H10514873   6.654   2.183   7.475 -3.9360  3.3918 -0.5909
  105MOL   H10614874   6.631   2.082   7.608 -0.2094  1.3108  0.4698
  105MOL   C10714875   6.447   1.785   7.431 -0.1815  0.0724 -0.3072
  105MOL   C10814876   6.562   1.681   7.455 -0.1941 -0.5539  0.0939
  105MOL   O10914877   6.337   1.727   7.489 -0.1326  0.6280 -0.6312
  105MOL   H11014878   6.429   1.801   7.325 -2.3630 -1.4214 -0.1864
  105MOL   H11114879   6.655   1.722   7.416 -0.7198  0.1917 -0.3779
  105MOL   H11214880   6.542   1.580   7.418  2.3796 -0.8867 -0.4692
  105MOL   H11314881   6.573   1.653   7.560 -0.3284  0.3229  0.3403
  105MOL   C11414882   6.219   1.813   7.497 -0.5500 -0.4975  0.0656
  105MOL   C11514883   6.124   1.758   7.391 -0.1706  0.7079 -0.6671
  105MOL   O11614884   6.163   1.801   7.624 -0.5105  0.4265 -0.3406
  105MOL   H11714885   6.238   1.918   7.474 -1.9644 -0.3465 -0.4922
  105MOL   H11814886   6.028   1.809   7.390 -0.1297  0.8477  1.3096
  105MOL   H11914887   6.092   1.662   7.432  1.7743 -0.0765 -0.9347
  105MOL   H12014888   6.179   1.763   7.297  0.5459 -0.2235 -0.3142
  105MOL   C12114889   6.230   1.863   7.729  0.3002  0.0812  0.2262
  105MOL   C12214890   6.145   1.979   7.783  0.0781 -0.1455  0.7240
  105MOL   O12314891   6.233   1.772   7.838 -0.0731 -0.0032  0.0464
  105MOL   H12414892   6.328   1.899   7.697 -0.5299  2.0296 -0.2038
  105MOL   H12514893   6.046   1.933   7.781 -0.1667  0.3717  0.7758
  105MOL   H12614894   6.169   2.065   7.721 -1.6520  0.2602  0.6110
  105MOL   H12714895   6.167   1.997   7.888  0.2197 -1.2874  0.9052
  105MOL   C12814896   6.331   1.676   7.821  0.0159 -0.4567  0.2915
  105MOL   C12914897   6.458   1.729   7.884 -0.0806  0.6381  0.6411
  105MOL   O13014898   6.301   1.560   7.903  1.3226  1.1314  0.1661
  105MOL   H13114899   6.347   1.650   7.716  0.8802 -0.7035  0.4767
  105MOL   H13214900   6.490   1.821   7.836 -0.6231  0.9188  0.8057
  105MOL   H13314901   6.527   1.648   7.863  0.8819  1.1234  1.8875
  105MOL   H13414902   6.442   1.741   0.078  0.1029  2.7892  0.4478
  105MOL   C13514903   6.222   1.463   7.844  0.1611 -0.0571 -0.2759
  105MOL   C13614904   6.314   1.368   7.762  0.7261  0.2880  0.4023
  105MOL   O13714905   6.150   1.386   0.022 -0.6651 -0.4664  0.3460
  105MOL   H13814906   6.152   1.513   7.777  1.1478  0.1520 -1.1454
  105MOL   H13914907   6.262   1.294   7.701 -1.2485  1.2135  0.9590
  105MOL   H14014908   6.378   1.321   7.837  1.1143  0.7852  0.3825
  105MOL   H14114909   6.378   1.426   7.696  2.2273 -1.4270  0.2928
  105MOL   H14214910   6.085   1.441   0.062 -1.6439  0.3283 -2.2211
  106MOL     C114911   3.878   7.812   3.705 -0.3415 -0.4578 -0.0027
  106MOL     C214912   4.001   7.816   3.617  0.2547 -0.4817 -0.5052
  106MOL     O314913   3.910   7.845   3.839  0.1832 -0.1553  0.3800
  106MOL     H414914   3.827   7.716   3.698  0.4762 -0.8621 -0.4751
  106MOL     H514915   4.037   0.005   3.613 -0.2154 -0.3347 -0.9290
  106MOL     H614916   3.970   7.792   3.515  1.6800  0.0333 -1.0655
  106MOL     H714917   4.084   7.752   3.647 -1.0967 -1.4203  1.3411
  106MOL     H814918   3.809   7.886   3.663 -0.3847  0.0124  0.8719
  106MOL     C914919   3.800   7.877   3.916  0.3917  0.4566 -0.5077
  106MOL    C1014920   3.808   7.788   4.042  0.0664 -0.1953  0.6345
  106MOL    O1114921   3.812   0.089   3.974 -0.6098  0.8775 -0.5649
  106MOL    H1214922   3.703   7.863   3.868  0.0762 -0.8988  0.4813
  106MOL    H1314923   3.788   7.681   4.028 -0.8377  0.4067 -2.9104
  106MOL    H1414924   3.739   7.823   4.119  0.8337  1.0798  0.7519
  106MOL    H1514925   3.903   7.803   4.095  0.3671 -0.2335  0.1045
  106MOL    C1614926   3.800   0.196   3.887  0.0804  0.0770 -0.0230
  106MOL    C1714927   3.647   0.229   3.878  0.2579  0.1570 -0.0592
  106MOL    O1814928   3.843   0.316   3.946 -0.0499 -0.0497 -0.0512
  106MOL    H1914929   3.841   0.169   3.790  0.0406 -0.7957  0.1994
  106MOL    H2014930   3.641   0.307   3.801 -0.9002 -0.1803 -0.3209
  106MOL    H2114931   3.608   0.258   3.975  1.5448 -1.0644  0.8380
  106MOL    H2214932   3.599   0.136   3.845  1.7345  0.1055 -2.1585
  106MOL    C2314933   3.977   0.335   3.963  0.2483  0.1696 -0.4070
  106MOL    C2414934   4.019   0.438   3.855 -0.1950  0.5530 -0.1522
  106MOL    O2514935   3.984   0.401   4.081  0.4091 -0.1345 -0.1071
  106MOL    H2614936   4.041   0.247   3.953  0.2068  0.0491  0.3345
  106MOL    H2714937   3.962   0.529   3.869 -0.5100  0.4895 -0.9821
  106MOL    H2814938   4.008   0.395   3.755 -2.5460 -0.1960  0.4101
  106MOL    H2914939   4.125   0.462   3.868 -0.3624  2.8006 -2.6030
  106MOL    C3014940   3.997   0.310   4.191 -0.1632  0.2708  0.3780
  106MOL    C3114941   4.144   0.298   4.231  0.4921  0.7631 -1.0479
  106MOL    O3214942   3.933   0.358   4.301  1.1202 -0.0632 -0.0011
  106MOL    H3314943   3.960   0.209   4.170 -0.2789  0.3438  0.2319
  106MOL    H3414944   4.187   0.392   4.266 -0.2232  1.1401 -1.1504
  106MOL    H3514945   4.204   0.250   4.155 -1.9065 -0.1463 -2.4336
  106MOL    H3614946   4.148   0.222   4.309  0.0323  0.0612 -1.7034
  106MOL    C3714947   3.798   0.344   4.285 -0.2418 -0.3890 -0.7223
  106MOL    C3814948   3.741   0.220   4.363 -0.2070 -0.2772 -0.0429
  106MOL    O3914949   3.727   0.460   4.326 -0.6764  0.4565 -0.5426
  106MOL    H4014950   3.770   0.324   4.182  1.1845 -1.1942 -0.9720
  106MOL    H4114951   3.794   0.136   4.317 -0.6694 -0.2001 -0.7209
  106MOL    H4214952   3.634   0.222   4.342 -1.0630 -1.0273  3.7887
  106MOL    H4314953   3.771   0.229   4.467 -3.6986  1.3792  0.9055
  106MOL    C4414954   3.711   0.569   4.240  0.1167  0.3997  0.2401
  106MOL    C4514955   3.569   0.574   4.198 -0.4672  0.0415  0.4966
  106MOL    O4614956   3.737   0.686   4.303  0.4746  0.1000 -0.1442
  106MOL    H4714957   3.772   0.553   4.151  0.3826  4.0225 -0.2717
  106MOL    H4814958   3.539   0.477   4.160 -1.2186 -0.3311  2.0031
  106MOL    H4914959   3.556   0.644   4.116 -1.3099 -0.0570  0.5447
  106MOL    H5014960   3.513   0.600   4.288  0.6384 -1.4321  1.6491
  106MOL    C5114961   3.875   0.704   4.331 -0.1525  0.4247 -0.0340
  106MOL    C5214962   3.933   0.789   4.210  0.4101 -0.3386  0.3004
  106MOL    O5314963   3.894   0.775   4.445  0.6747 -0.3405 -0.5298
  106MOL    H5414964   3.935   0.613   4.343 -1.5123 -0.1383  2.9293
  106MOL    H5514965   3.899   0.892   4.220 -0.8482 -0.7987  0.8702
  106MOL    H5614966   3.899   0.755   4.113 -0.9213 -0.6972  0.8826
  106MOL    H5714967   4.042   0.789   4.220  0.4346  2.0854  0.3128
  106MOL    C5814968   3.853   0.710   4.564 -0.0956 -0.3242  0.1152
  106MOL    C5914969   3.949   0.592   4.596  1.1667 -0.1561  0.0738
  106MOL    O6014970   3.873   0.804   4.667  0.3783 -0.5546  0.4586
  106MOL    H6114971   3.748   0.680   4.563 -0.3835  0.6653  0.3297
  106MOL    H6214972   3.914   0.532   4.680  0.6792  2.5984  1.8882
  106MOL    H6314973   4.053   0.625   4.597  1.4623 -1.0994  1.6927
  106MOL    H6414974   3.932   0.516   4.519  0.6583 -2.2840  2.2108
  106MOL    C6514975   3.782   0.909   4.655 -0.1201  0.6970 -0.4894
  106MOL    C6614976   3.672   0.899   4.767  0.5465  0.1632  0.2137
  106MOL    O6714977   3.838   1.021   4.691  0.0105  0.5378 -0.2445
  106MOL    H6814978   3.738   0.914   4.555  0.9784  1.9264 -0.9231
  106MOL    H6914979   3.601   0.980   4.751  0.3101 -0.2746 -1.0318
  106MOL    H7014980   3.707   0.909   4.870  0.6352 -0.3355  0.2356
  106MOL    H7114981   3.614   0.806   4.756  0.8944 -0.2488  1.7199
  106MOL    C7214982   3.897   1.091   4.580  0.4848  0.6681  0.0586
  106MOL    C7314983   3.793   1.204   4.548 -0.4355  0.4196 -0.3638
  106MOL    O7414984   4.017   1.159   4.613 -0.1765 -0.9137 -0.3966
  106MOL    H7514985   3.916   1.025   4.495 -1.2893 -2.0485  1.7163
  106MOL    H7614986   3.839   1.268   4.473 -0.0290 -0.7466 -1.1013
  106MOL    H7714987   3.776   1.252   4.645  2.5501 -1.1596  1.0180
  106MOL    H7814988   3.708   1.151   4.506 -2.1289  2.4607  0.3871
  106MOL    C7914989   4.129   1.078   4.626  0.3413 -0.3376 -0.3364
  106MOL    C8014990   4.225   1.128   4.529  0.5551 -0.0435 -0.3049
  106MOL    O8114991   4.198   1.086   4.749 -0.3437  0.2470  0.0086
  106MOL    H8214992   4.107   0.971   4.617 -0.7485 -0.2750  1.3275
  106MOL    H8314993   4.274   1.215   4.572  2.1891  0.3813 -2.8894
  106MOL    H8414994   4.188   1.156   4.430  1.4127  2.1391 -0.0335
  106MOL    H8514995   4.299   1.049   4.521  2.6384  1.8259  0.0871
  106MOL    C8614996   4.125   1.033   4.852 -0.0942 -0.0777  0.1115
  106MOL    C8714997   4.224   0.943   4.917  0.5875  0.5173 -0.0045
  106MOL    O8814998   4.104   1.129   4.946 -0.0445  0.5735  0.1627
  106MOL    H8914999   4.033   0.978   4.836  0.5452 -1.3785  0.8177
  106MOL    H9015000   4.264   0.875   4.842 -0.3804  1.8161 -1.7397
  106MOL    H9115001   4.187   0.884   5.000 -0.1073  2.2723  0.9675
  106MOL    H9215002   4.310   1.001   4.953 -0.7541  1.5403  1.6186
  106MOL    C9315003   3.994   1.203   4.929  0.0238  0.2739  0.4098
  106MOL    C9415004   3.876   1.162   5.027 -0.0773 -0.9239  0.0082
  106MOL    O9515005   4.019   1.332   4.961  0.4457  0.2102 -0.4393
  106MOL    H9615006   3.951   1.199   4.829  1.6680 -0.8507 -0.2642
  106MOL    H9715007   3.843   1.059   5.019 -0.2344 -0.9780  1.2112
  106MOL    H9815008   3.793   1.224   4.993  0.6147 -0.5674 -1.0610
  106MOL    H9915009   3.897   1.181   5.132  0.7198  0.1662 -0.3312
  106MOL   C10015010   4.067   1.402   4.854 -0.2265 -0.3125 -0.1351
  106MOL   C10115011   3.956   1.492   4.803  0.6573 -0.9105 -0.4517
  106MOL   O10215012   4.175   1.482   4.902  0.1756 -0.2607  0.5786
  106MOL   H10315013   4.106   1.343   4.771 -2.1607  0.4747 -1.6817
  106MOL   H10415014   3.985   1.548   4.714 -1.2233 -2.0407 -1.8381
  106MOL   H10515015   3.936   1.555   4.889  0.8831  0.8566 -1.6630
  106MOL   H10615016   3.865   1.434   4.788  1.6421 -2.5320 -0.2639
  106MOL   C10715017   4.292   1.414   4.938  1.1694  0.3027 -0.6006
  106MOL   C10815018   4.394   1.453   4.832  0.2504 -0.3995  0.4782
  106MOL   O10915019   4.332   1.464   5.062 -0.1979  0.4611 -0.3941
  106MOL   H11015020   4.287   1.305   4.931 -1.6590  0.3856 -0.3958
  106MOL   H11115021   4.484   1.394   4.851  0.0928 -0.3440  1.4018
  106MOL   H11215022   4.420   1.559   4.830  2.5076 -0.8379  2.8812
  106MOL   H11315023   4.363   1.409   4.737  0.2224  1.7113 -0.4984
  106MOL   C11415024   4.276   1.392   5.166  0.3466  0.4193 -0.6134
  106MOL   C11515025   4.389   1.318   5.236  0.5960 -0.0862  0.0673
  106MOL   O11615026   4.232   1.489   5.255  0.1558  0.1248 -0.3461
  106MOL   H11715027   4.192   1.327   5.142 -0.9058  1.1129  1.7558
  106MOL   H11815028   4.341   1.261   5.316 -2.2101 -1.4199 -2.4816
  106MOL   H11915029   4.462   1.381   5.286 -1.2649  0.5453  2.0778
  106MOL   H12015030   4.431   1.255   5.158 -2.1618 -0.3048 -1.3084
  106MOL   C12115031   4.110   1.545   5.232  0.0646  0.5401 -0.2692
  106MOL   C12215032   4.002   1.479   5.315 -0.2063  0.0699 -0.3993
  106MOL   O12315033   4.104   1.678   5.260 -0.2608 -0.0583  0.1751
  106MOL   H12415034   4.090   1.539   5.125  1.4859  1.1363 -0.5702
  106MOL   H12515035   3.947   1.402   5.261 -2.1341  0.6594  0.6552
  106MOL   H12615036   3.927   1.556   5.334  0.1627  0.5726 -0.9754
  106MOL   H12715037   4.038   1.443   5.412 -1.3248 -2.5488 -0.9090
  106MOL   C12815038   4.172   1.755   5.168  0.7458 -0.4469  0.4156
  106MOL   C12915039   4.080   1.821   5.073 -0.5946  0.5490  0.2762
  106MOL   O13015040   4.245   1.849   5.242 -0.3104 -0.3062 -0.8832
  106MOL   H13115041   4.244   1.693   5.114 -0.4684 -2.5479  1.1234
  106MOL   H13215042   4.142   1.893   5.018  2.6374 -2.7286 -0.5937
  106MOL   H13315043   3.998   1.862   5.132 -0.8966 -0.3307  0.4654
  106MOL   H13415044   4.037   1.752   5.001 -0.2075  1.5731 -0.9656
  106MOL   C13515045   4.352   1.795   5.312  0.1313  0.4762  0.0799
  106MOL   C13615046   4.476   1.805   5.224 -0.0043 -0.9403 -0.2195
  106MOL   O13715047   4.373   1.873   5.425 -0.4430  0.2842  0.2941
  106MOL   H13815048   4.340   1.691   5.343 -1.8982  0.5211 -0.5126
  106MOL   H13915049   4.480   1.911   5.200 -1.1504 -0.9076 -0.2739
  106MOL   H14015050   4.470   1.746   5.132  1.4162 -0.4618 -0.6453
  106MOL   H14115051   4.567   1.781   5.279 -0.3657 -1.0008  0.3524
  106MOL   H14215052   4.362   1.813   5.496  1.5246 -0.1265  0.2718
  107MOL     C115053   3.835   4.327   1.984  0.1090  0.4975  0.5536
  107MOL     C215054   3.927   4.332   1.861 -0.1240  0.2957  0.2308
  107MOL     O315055   3.701   4.342   1.946 -0.4608  0.3799 -0.4059
  107MOL     H415056   3.860   4.407   2.053 -0.0915  1.5285 -0.5524
  107MOL     H515057   3.885   4.265   1.786  3.0293 -1.6887  0.1471
  107MOL     H615058   4.033   4.309   1.876 -0.0922 -0.0304 -0.4858
  107MOL     H715059   3.926   4.435   1.826  0.2052  0.6388  1.1882
  107MOL     H815060   3.850   4.230   2.032 -0.3915 -0.2255 -0.7060
  107MOL     C915061   3.596   4.323   2.036 -0.0471 -0.6539  0.7628
  107MOL    C1015062   3.508   4.445   2.003  0.5213  0.3809 -1.0118
  107MOL    O1115063   3.520   4.204   2.004 -0.0849  0.7454 -0.7414
  107MOL    H1215064   3.628   4.337   2.139  3.3970 -0.9392 -0.2237
  107MOL    H1315065   3.420   4.456   2.067 -0.3649 -0.6525 -2.0207
  107MOL    H1415066   3.475   4.429   1.901 -1.2242  1.1906 -0.6011
  107MOL    H1515067   3.573   4.532   2.010  2.0107 -0.6368 -2.0607
  107MOL    C1615068   3.558   4.093   2.075 -0.0070 -0.0637 -0.0962
  107MOL    C1715069   3.461   4.057   2.189  0.2218 -0.3438  0.0343
  107MOL    O1815070   3.568   3.983   1.990 -0.3184  1.1416  0.4349
  107MOL    H1915071   3.656   4.096   2.122  0.1189 -2.4706 -0.0984
  107MOL    H2015072   3.515   3.978   2.240 -1.4755 -1.6431 -0.1579
  107MOL    H2115073   3.373   4.013   2.143  1.2399 -0.1649 -2.1507
  107MOL    H2215074   3.433   4.144   2.249  1.2434 -0.8583  1.2753
  107MOL    C2315075   3.691   3.963   1.922 -1.0258  0.2843  0.1206
  107MOL    C2415076   3.751   3.834   1.967  0.4092  0.2844 -0.2705
  107MOL    O2515077   3.665   3.948   1.785  0.1925 -0.4875  0.1838
  107MOL    H2615078   3.763   4.044   1.933 -1.8407  1.2432 -1.4393
  107MOL    H2715079   3.666   3.766   1.955 -0.0547  0.5291  1.5255
  107MOL    H2815080   3.786   3.836   2.070  0.7912  1.4325 -0.4173
  107MOL    H2915081   3.840   3.793   1.920 -0.7977 -1.7694 -0.8664
  107MOL    C3015082   3.646   4.056   1.709  0.0654 -0.5563  0.0846
  107MOL    C3115083   3.764   4.053   1.609 -0.4587  0.2347 -0.2228
  107MOL    O3215084   3.530   4.038   1.633 -0.3808 -0.1367 -0.0661
  107MOL    H3315085   3.645   4.152   1.760 -1.6272 -0.3165 -0.3503
  107MOL    H3415086   3.752   4.134   1.537  0.7678 -0.4641 -1.2254
  107MOL    H3515087   3.747   3.959   1.557 -0.8436 -0.7946  1.7120
  107MOL    H3615088   3.859   4.047   1.663 -0.0640 -1.4716 -1.0672
  107MOL    C3715089   3.408   4.071   1.701 -0.4276 -0.1455  0.6807
  107MOL    C3815090   3.353   4.195   1.637  0.3045  0.2016  0.5673
  107MOL    O3915091   3.313   3.973   1.686  0.3299  0.3163  0.4080
  107MOL    H4015092   3.416   4.087   1.809 -2.2547  0.4902  0.7396
  107MOL    H4115093   3.354   4.191   1.528  0.5192  0.8896  0.5387
  107MOL    H4215094   3.411   4.283   1.663 -0.1053  0.3943  0.8469
  107MOL    H4315095   3.252   4.210   1.676 -0.0454 -0.8646  0.0863
  107MOL    C4415096   3.324   3.858   1.759 -0.4684 -0.4181  0.0785
  107MOL    C4515097   3.210   3.847   1.864  0.1693  0.7041 -0.6288
  107MOL    O4615098   3.315   3.752   1.673  0.0152 -0.1470  0.5387
  107MOL    H4715099   3.417   3.852   1.817  0.2246  0.3678 -0.9256
  107MOL    H4815100   3.115   3.858   1.811 -0.5652  1.5791  0.8435
  107MOL    H4915101   3.213   3.937   1.925 -0.3220  1.0031 -1.0359
  107MOL    H5015102   3.211   3.759   1.928  2.5182  1.4162  0.3342
  107MOL    C5115103   3.435   3.726   1.602  0.9202 -1.2565 -0.1225
  107MOL    C5215104   3.483   3.596   1.624 -1.0551  0.1447 -0.7761
  107MOL    O5315105   3.409   3.728   1.466 -0.1428 -0.1719  0.2349
  107MOL    H5415106   3.510   3.801   1.628  0.4706 -1.0570  0.6132
  107MOL    H5515107   3.403   3.524   1.638 -2.6564  1.8849 -0.8973
  107MOL    H5615108   3.540   3.609   1.716  0.2118  1.0882 -1.6730
  107MOL    H5715109   3.553   3.561   1.548 -0.4821 -0.4581  0.0143
  107MOL    C5815110   3.415   3.852   1.402 -0.2424 -0.6223 -0.3601
  107MOL    C5915111   3.544   3.851   1.323  0.2366  0.5169  0.4133
  107MOL    O6015112   3.314   3.863   1.314 -0.0941  0.2724  0.1650
  107MOL    H6115113   3.421   3.930   1.477 -0.2756 -1.2766  0.3383
  107MOL    H6215114   3.527   3.764   1.260  0.3859  2.3147 -2.2140
  107MOL    H6315115   3.634   3.844   1.383 -0.8907 -0.7713  1.9945
  107MOL    H6415116   3.557   3.938   1.257  3.2796 -0.1493  0.0601
  107MOL    C6515117   3.190   3.901   1.378  0.0453  0.1226 -0.0271
  107MOL    C6615118   3.151   4.040   1.334  0.1822  0.4358  0.6171
  107MOL    O6715119   3.087   3.829   1.326 -0.2490 -0.4218 -0.3950
  107MOL    H6815120   3.191   3.894   1.487  0.0883  1.3469  0.0647
  107MOL    H6915121   3.236   4.108   1.347 -0.8391  2.0296 -0.6862
  107MOL    H7015122   3.069   4.080   1.394 -0.7368 -2.9778  1.7207
  107MOL    H7115123   3.117   4.039   1.230 -0.6461 -1.9034  0.8995
  107MOL    C7215124   3.089   3.698   1.369 -0.5837  0.7624 -0.9698
  107MOL    C7315125   2.981   3.675   1.476  0.4614  0.0178 -0.2073
  107MOL    O7415126   3.046   3.612   1.263  0.3057  0.0658 -0.0488
  107MOL    H7515127   3.182   3.664   1.415 -1.6521 -0.6302  0.2149
  107MOL    H7615128   2.997   3.740   1.562  0.8378  0.0444 -0.2942
  107MOL    H7715129   2.972   3.575   1.519 -0.4659 -0.1878 -0.8859
  107MOL    H7815130   2.885   3.689   1.427  0.0834 -0.8506  0.2621
  107MOL    C7915131   3.127   3.613   1.154 -0.0517  0.2036 -0.5495
  107MOL    C8015132   3.247   3.514   1.182 -0.5701  0.0754  0.9520
  107MOL    O8115133   3.067   3.567   1.040  0.2527  0.3238 -0.1090
  107MOL    H8215134   3.161   3.712   1.124  0.0322 -0.6993 -3.5781
  107MOL    H8315135   3.214   3.413   1.206 -0.2835 -0.4841 -0.9575
  107MOL    H8415136   3.310   3.545   1.266 -2.6125 -0.1918  2.6272
  107MOL    H8515137   3.304   3.508   1.090 -0.9226 -0.2422  0.7565
  107MOL    C8615138   2.956   3.645   1.001  0.6511  0.0813  0.1659
  107MOL    C8715139   2.996   3.736   0.893 -0.3275  0.3897 -0.1742
  107MOL    O8815140   2.858   3.554   0.962  0.2444 -0.0850  0.5350
  107MOL    H8915141   2.915   3.708   1.080  0.8225 -0.6139  0.8044
  107MOL    H9015142   3.069   3.814   0.916 -0.6073  0.2697  1.1778
  107MOL    H9115143   2.913   3.772   0.833 -1.1147 -1.0362  0.0626
  107MOL    H9215144   3.046   3.674   0.819  0.6052  0.2917  0.5285
  107MOL    C9315145   2.787   3.485   1.073 -0.0273  0.7727  0.0644
  107MOL    C9415146   2.643   3.533   1.055  0.6191  0.2593 -0.4811
  107MOL    O9515147   2.796   3.347   1.078  0.7081  0.0690  0.2279
  107MOL    H9615148   2.826   3.524   1.167  1.7924  0.0576 -0.3865
  107MOL    H9715149   2.605   3.480   0.968 -0.3058  0.4983 -0.2231
  107MOL    H9815150   2.641   3.642   1.055  1.5842  0.3090 -3.0728
  107MOL    H9915151   2.590   3.499   1.144  1.1832  1.7687  0.4531
  107MOL   C10015152   2.918   3.304   1.128  0.7326 -0.2684 -0.1988
  107MOL   C10115153   2.889   3.235   1.257  0.1712 -0.4584  0.0995
  107MOL   O10215154   2.974   3.207   1.046 -0.1837  0.0875 -0.2508
  107MOL   H10315155   2.992   3.383   1.138  0.9106 -0.0589 -2.8035
  107MOL   H10415156   2.844   3.306   1.327  1.5365  1.1274 -0.5823
  107MOL   H10515157   2.981   3.209   1.310  0.3489  0.9810  0.5326
  107MOL   H10615158   2.822   3.150   1.251  0.8667 -0.9673 -0.4196
  107MOL   C10715159   3.040   3.254   0.933  0.2997 -0.4939  0.7720
  107MOL   C10815160   3.180   3.203   0.948 -0.0157  0.3289  0.3326
  107MOL   O10915161   2.986   3.191   0.815 -0.2213  0.4607 -0.1634
  107MOL   H11015162   3.038   3.362   0.922  1.4911 -0.4612  0.8197
  107MOL   H11115163   3.252   3.254   0.883  0.9298 -0.3966  0.7873
  107MOL   H11215164   3.181   3.099   0.913  0.6666  1.3809 -3.0058
  107MOL   H11315165   3.190   3.211   1.056  0.6328  2.5954  0.1232
  107MOL   C11415166   2.869   3.249   0.770 -0.8199 -0.3273 -0.2614
  107MOL   C11515167   2.898   3.317   0.636  0.1744 -0.3073 -0.2612
  107MOL   O11615168   2.777   3.157   0.729  0.3845  0.0675 -0.1315
  107MOL   H11715169   2.829   3.323   0.839 -0.7104  0.6904 -1.2796
  107MOL   H11815170   2.970   3.394   0.664 -0.2420 -0.8683  2.5414
  107MOL   H11915171   2.808   3.363   0.595 -0.1149 -0.5378  0.1092
  107MOL   H12015172   2.940   3.241   0.571 -1.4162 -1.6691  0.2575
  107MOL   C12115173   2.706   3.103   0.840 -0.5756  0.0587  0.7234
  107MOL   C12215174   2.565   3.156   0.814  0.3860  0.3566  0.4167
  107MOL   O12315175   2.692   2.961   0.838  0.2109  0.1435 -0.5418
  107MOL   H12415176   2.734   3.141   0.939  0.0162 -0.7043  0.8494
  107MOL   H12515177   2.485   3.107   0.870  1.5296 -2.9966 -0.7566
  107MOL   H12615178   2.538   3.128   0.712  0.5400 -2.1545  1.0381
  107MOL   H12715179   2.556   3.264   0.804  0.8109  0.0779 -3.7948
  107MOL   C12815180   2.808   2.896   0.850 -0.5258  0.0520 -0.2061
  107MOL   C12915181   2.806   2.818   0.977  0.2097  0.1142 -0.4733
  107MOL   O13015182   2.821   2.793   0.755  0.4852  0.3214 -0.0397
  107MOL   H13115183   2.883   2.973   0.836  0.4235 -0.9030 -0.4783
  107MOL   H13215184   2.775   2.889   1.054 -2.0953 -0.1304 -1.1495
  107MOL   H13315185   2.901   2.775   1.010 -0.0280  0.3995  0.6004
  107MOL   H13415186   2.728   2.742   0.978 -0.3584  0.6933  1.3233
  107MOL   C13515187   2.882   2.825   0.637 -0.3867 -0.2396 -0.4643
  107MOL   C13615188   2.876   2.700   0.553  0.1828 -0.1802  0.1727
  107MOL   O13715189   2.821   2.932   0.570  0.1886  0.2413  0.0259
  107MOL   H13815190   2.987   2.849   0.655 -0.7963  0.2105  1.5114
  107MOL   H13915191   2.779   2.651   0.547  0.3818 -0.9083  2.5004
  107MOL   H14015192   2.938   2.617   0.587  3.0320  1.5513 -0.6712
  107MOL   H14115193   2.899   2.716   0.448  1.0974 -1.8425  0.1039
  107MOL   H14215194   2.805   3.004   0.630  0.2850  0.9211 -0.7549
  108MOL     C115195   5.935   2.115   2.239 -0.7793 -0.2245 -0.2818
  108MOL     C215196   5.872   1.986   2.176  0.2376 -1.4733  0.2220
  108MOL     O315197   5.973   2.098   2.373 -0.0125 -0.2780 -0.5881
  108MOL     H415198   5.868   2.200   2.228 -0.4359  0.0765 -0.0691
  108MOL     H515199   5.947   1.910   2.158  1.4688 -0.0248 -0.9329
  108MOL     H615200   5.833   2.019   2.080  0.1695  0.0443  0.7569
  108MOL     H715201   5.788   1.953   2.238  0.9388  0.4528  2.2721
  108MOL     H815202   6.026   2.151   2.190 -0.5565  0.2232  0.4622
  108MOL     C915203   6.052   2.202   2.420  0.2250 -0.3733 -0.0385
  108MOL    C1015204   5.987   2.236   2.553 -0.1672  0.5294  0.2820
  108MOL    O1115205   6.180   2.175   2.447 -0.3243 -0.7572 -0.1557
  108MOL    H1215206   6.047   2.291   2.357  0.5290  0.2129  0.7503
  108MOL    H1315207   5.884   2.263   2.529  0.4317  1.2051 -1.6054
  108MOL    H1415208   6.043   2.317   2.599 -0.7954  1.2709 -0.2347
  108MOL    H1515209   5.985   2.144   2.612  1.2293 -0.5733 -1.3457
  108MOL    C1615210   6.274   2.196   2.344  0.1114  0.5410 -0.4641
  108MOL    C1715211   6.334   2.332   2.356 -0.8061 -0.1673  0.2122
  108MOL    O1815212   6.373   2.111   2.363 -0.1107  0.1596 -0.1595
  108MOL    H1915213   6.224   2.187   2.247 -0.9965  0.8882  0.0690
  108MOL    H2015214   6.416   2.348   2.426 -1.9685  0.2999  1.4871
  108MOL    H2115215   6.256   2.395   2.401  1.1239  0.6713  2.5299
  108MOL    H2215216   6.377   2.378   2.267 -1.8834 -0.5805 -0.5185
  108MOL    C2315217   6.338   1.974   2.327  0.1708 -0.4727 -0.3504
  108MOL    C2415218   6.413   1.927   2.199  0.0491  0.3436 -0.3489
  108MOL    O2515219   6.378   1.882   2.425 -0.4184 -0.0124 -0.7198
  108MOL    H2615220   6.231   1.966   2.310  0.4811 -0.7889 -2.2820
  108MOL    H2715221   6.395   1.822   2.177 -0.0422 -0.3395  2.6863
  108MOL    H2815222   6.518   1.940   2.223  0.3598 -1.2678 -0.7760
  108MOL    H2915223   6.405   1.999   2.118  1.4877 -2.1812 -2.7978
  108MOL    C3015224   6.294   1.882   2.536 -0.2716  1.4176 -0.6996
  108MOL    C3115225   6.214   1.747   2.531  1.0672 -0.9183 -0.1469
  108MOL    O3215226   6.367   1.879   2.655  0.2318  0.4625 -0.1067
  108MOL    H3315227   6.219   1.961   2.541 -3.6061 -1.5693 -1.3736
  108MOL    H3415228   6.287   1.668   2.550  0.0239 -2.2111 -1.4526
  108MOL    H3515229   6.150   1.743   2.443  0.7476  1.5544 -0.0522
  108MOL    H3615230   6.144   1.759   2.614  2.1475  1.2669  0.4868
  108MOL    C3715231   6.381   2.008   2.711 -0.4681  0.5274  0.2773
  108MOL    C3815232   6.305   2.025   2.842 -0.2787 -0.0169  0.1449
  108MOL    O3915233   6.509   2.034   2.738 -0.2475  0.1407 -0.0768
  108MOL    H4015234   6.347   2.082   2.637 -0.3161  1.5595  1.2195
  108MOL    H4115235   6.202   1.989   2.842 -0.5839  0.7876 -1.5415
  108MOL    H4215236   6.305   2.132   2.865  1.5018 -0.0960  0.5311
  108MOL    H4315237   6.357   1.964   2.916  2.1516 -0.0721 -1.5765
  108MOL    C4415238   6.603   2.045   2.630  0.6089 -0.4075 -0.2456
  108MOL    C4515239   6.634   2.196   2.611 -0.4185  0.4255  0.1800
  108MOL    O4615240   6.724   1.988   2.657  0.2319  0.4110 -0.4715
  108MOL    H4715241   6.566   2.003   2.536  1.0330 -0.8765 -0.2012
  108MOL    H4815242   6.538   2.247   2.603 -0.5789  0.3487  1.5068
  108MOL    H4915243   6.698   2.213   2.525  0.6364 -1.5596  0.5408
  108MOL    H5015244   6.685   2.226   2.702  3.2664 -2.3947 -0.8204
  108MOL    C5115245   6.721   1.850   2.646  0.3154  0.3424 -0.0968
  108MOL    C5215246   6.814   1.816   2.534  0.2380 -0.1821 -0.5143
  108MOL    O5315247   6.766   1.795   2.761 -1.0688  0.4930  0.0996
  108MOL    H5415248   6.627   1.800   2.624  0.9242 -1.1315  0.5723
  108MOL    H5515249   6.782   1.853   2.437  3.3333  2.7303 -0.5239
  108MOL    H5615250   6.831   1.708   2.535  4.4311  0.3794 -1.7383
  108MOL    H5715251   6.912   1.857   2.558 -0.6214 -0.1247  3.2206
  108MOL    C5815252   6.666   1.764   2.855 -0.6260  0.6363  0.2260
  108MOL    C5915253   6.652   1.608   2.855 -0.1539  0.0660  0.1053
  108MOL    O6015254   6.707   1.805   2.982 -0.3322 -0.3667  0.7383
  108MOL    H6115255   6.568   1.810   2.847 -0.6129  0.5178 -0.6168
  108MOL    H6215256   6.581   1.572   2.930 -2.4174  1.3048 -1.4117
  108MOL    H6315257   6.747   1.566   2.888  0.9465  1.9708 -0.6083
  108MOL    H6415258   6.619   1.578   2.756  1.9118  1.2901 -0.9989
  108MOL    C6515259   6.719   1.947   2.999  0.9645  0.4724 -1.0307
  108MOL    C6615260   6.623   1.962   3.123 -0.1462  1.1353  0.3537
  108MOL    O6715261   6.841   1.989   3.039  0.2611 -0.5426 -0.2746
  108MOL    H6815262   6.667   1.997   2.918  0.6371 -0.8018 -1.6167
  108MOL    H6915263   6.607   2.069   3.141 -0.5864  0.7703  2.2908
  108MOL    H7015264   6.671   1.916   3.209 -0.7363  0.0375  0.1052
  108MOL    H7115265   6.529   1.915   3.094 -1.1968  1.9799  2.2492
  108MOL    C7215266   6.940   2.000   2.942  0.4833  0.0680  0.4977
  108MOL    C7315267   6.983   2.143   2.935  0.2263  0.1718 -0.5557
  108MOL    O7415268   7.056   1.940   2.986 -0.5886 -0.0393  0.2231
  108MOL    H7515269   6.904   1.961   2.847  1.7374  0.1647 -0.0237
  108MOL    H7615270   7.049   2.166   2.852 -0.9264 -0.1469 -1.5668
  108MOL    H7715271   7.001   2.186   3.034 -0.8233 -1.1458  0.2341
  108MOL    H7815272   6.903   2.208   2.901  1.9181  2.0582 -0.9957
  108MOL    C7915273   7.064   1.800   2.967  0.1513 -0.6426 -0.3901
  108MOL    C8015274   7.182   1.762   2.878 -0.0872  0.3820 -0.6565
  108MOL    O8115275   7.086   1.741   3.089 -0.0242  0.3940 -0.3770
  108MOL    H8215276   6.975   1.761   2.917  0.0618  0.7315 -1.3223
  108MOL    H8315277   7.181   1.827   2.790 -0.6315  1.0542 -0.1641
  108MOL    H8415278   7.176   1.662   2.836  1.4112  0.0690 -0.1454
  108MOL    H8515279   7.276   1.767   2.933  0.4572 -1.1877 -1.4090
  108MOL    C8615280   6.980   1.717   3.170  0.6370 -0.3079  0.4849
  108MOL    C8715281   6.951   1.569   3.169 -0.3449 -0.1438  0.0130
  108MOL    O8815282   7.017   1.753   3.298  0.3785 -1.1508  0.0421
  108MOL    H8915283   6.896   1.779   3.139  0.6396 -0.3201  0.4548
  108MOL    H9015284   6.863   1.557   3.233  0.5818  2.8434  1.9534
  108MOL    H9115285   7.036   1.516   3.212  0.0687  0.0697 -0.5345
  108MOL    H9215286   6.937   1.543   3.064  0.2316  0.9683 -0.3493
  108MOL    C9315287   7.040   1.893   3.305  0.4315  0.3368 -0.4307
  108MOL    C9415288   6.932   1.955   3.392 -0.0185  0.1644  0.5688
  108MOL    O9515289   7.162   1.918   3.379 -0.1836  0.5148 -0.5590
  108MOL    H9615290   7.055   1.944   3.210  0.4429  2.5190  0.6930
  108MOL    H9715291   6.836   1.953   3.341  1.1819 -0.0846 -1.7477
  108MOL    H9815292   6.960   2.060   3.395  1.0426 -0.1584  2.2546
  108MOL    H9915293   6.931   1.928   3.497  2.5816  0.0907  0.6038
  108MOL   C10015294   7.274   1.917   3.297  0.6739 -0.2441 -0.0785
  108MOL   C10115295   7.328   2.053   3.307 -0.3673  0.2346  0.1680
  108MOL   O10215296   7.374   1.837   3.351 -0.4722 -0.5534 -0.0871
  108MOL   H10315297   7.261   1.895   3.191  2.1671  1.5889 -0.6696
  108MOL   H10415298   7.244   2.122   3.298  2.0938  3.4882  0.9688
  108MOL   H10515299   7.400   2.067   3.225 -0.1871  1.4878  0.5217
  108MOL   H10615300   7.376   2.066   3.404 -2.7997  0.0259  1.4249
  108MOL   C10715301   7.359   1.706   3.314 -0.3648 -0.1722 -0.6471
  108MOL   C10815302   7.450   1.678   3.193 -0.7444  0.3090 -0.6387
  108MOL   O10915303   7.399   1.610   3.411 -0.0967  0.2207 -0.2920
  108MOL   H11015304   7.256   1.678   3.288  0.2417 -1.4931 -1.6914
  108MOL   H11115305   7.554   1.704   3.213 -0.5685 -1.2314  0.5214
  108MOL   H11215306   7.419   1.723   3.099 -1.9574 -3.0723 -1.9156
  108MOL   H11315307   7.456   1.573   3.163 -0.0131  0.4604 -1.0362
  108MOL   C11415308   7.305   1.595   3.514 -0.2370  0.0966  0.1095
  108MOL   C11515309   7.262   1.451   3.502 -0.0272  0.5636  0.0759
  108MOL   O11615310   7.370   1.614   3.633 -0.0392 -0.3928  0.2355
  108MOL   H11715311   7.222   1.665   3.509 -2.7485 -2.8246 -0.3308
  108MOL   H11815312   7.349   1.393   3.531  0.3828  1.2065  0.1143
  108MOL   H11915313   7.245   1.427   3.396 -0.6998 -1.7095  0.6620
  108MOL   H12015314   7.170   1.438   3.560 -0.1123  0.7748 -0.0124
  108MOL   C12115315   7.367   1.745   3.683 -0.4356 -0.3258 -0.0861
  108MOL   C12215316   7.261   1.762   3.803 -0.3505  0.0157  0.2802
  108MOL   O12315317   7.495   1.782   3.732 -0.1024 -0.7553 -0.5062
  108MOL   H12415318   7.345   1.820   3.607 -2.1216  0.0371  0.7380
  108MOL   H12515319   7.296   1.698   3.884  0.1866 -0.0065  0.0368
  108MOL   H12615320   7.159   1.742   3.771  0.6839 -3.0484 -1.3529
  108MOL   H12715321   7.269   1.862   3.845  0.3019  0.8733 -1.8458
  108MOL   C12815322   7.592   1.797   3.628  0.0139  0.1192  0.0614
  108MOL   C12915323   7.639   1.939   3.641 -0.4904  0.2720  0.0397
  108MOL   O13015324   7.694   1.702   3.643 -0.5419 -0.0967 -0.6629
  108MOL   H13115325   7.555   1.783   3.526  0.1571  0.2865 -0.0129
  108MOL   H13215326   7.675   1.964   3.741 -1.2799 -2.4023  1.0228
  108MOL   H13315327   7.560   2.009   3.612 -0.1216  0.6112 -0.1552
  108MOL   H13415328   7.718   1.955   3.567 -1.7885 -0.3634 -1.5038
  108MOL   C13515329   7.659   1.576   3.608  0.0813  0.1039  0.2220
  108MOL   C13615330   7.787   1.499   3.584 -0.1950  0.2517  0.2335
  108MOL   O13715331   7.590   1.508   3.712  0.3560  0.2817  0.1105
  108MOL   H13815332   7.599   1.574   3.517  0.4401  1.6659 -0.0601
  108MOL   H13915333   7.762   1.394   3.575  0.5122  0.2167 -1.5341
  108MOL   H14015334   7.846   1.515   3.674  0.8662 -2.5833  0.1039
  108MOL   H14115335   7.846   1.532   3.498  1.7387 -1.2874  0.9330
  108MOL   H14215336   7.501   1.539   3.705  0.0923  0.3227  2.9500
  109MOL     C115337   3.707   0.931   6.003 -0.3911  0.9496 -0.4681
  109MOL     C215338   3.826   1.027   6.005 -0.7346  0.2739 -0.5592
  109MOL     O315339   3.616   0.946   6.117  0.1230  0.0759 -0.5457
  109MOL     H415340   3.736   0.826   5.995  0.7734  0.9847  2.6321
  109MOL     H515341   3.792   1.120   6.051 -2.3896 -1.0430  0.9848
  109MOL     H615342   3.866   1.058   5.909 -0.1731  1.5392  0.0736
  109MOL     H715343   3.906   0.995   6.071 -1.0144 -0.5655 -0.6182
  109MOL     H815344   3.654   0.961   5.912  0.6867  0.9715 -1.0968
  109MOL     C915345   3.490   0.894   6.099 -0.1319  0.2562  0.1991
  109MOL    C1015346   3.420   0.889   6.238 -0.3513 -0.1242  0.0433
  109MOL    O1115347   3.427   0.988   6.025 -0.4659  0.4524  0.3857
  109MOL    H1215348   3.481   0.792   6.062 -0.9107  0.4875 -0.2489
  109MOL    H1315349   3.485   0.835   6.307 -0.3676 -1.1634 -0.7621
  109MOL    H1415350   3.326   0.836   6.228 -0.5983  0.2830  0.1680
  109MOL    H1515351   3.397   0.990   6.274 -0.1278  0.8164 -2.4064
  109MOL    C1615352   3.375   0.948   5.906 -0.1934  0.0895  0.2031
  109MOL    C1715353   3.282   1.054   5.852  0.5828 -0.3076  0.1708
  109MOL    O1815354   3.463   0.918   5.807 -0.1575 -0.3109 -0.1510
  109MOL    H1915355   3.307   0.867   5.932 -0.6995  0.0156 -1.2882
  109MOL    H2015356   3.218   1.015   5.773  0.8509 -0.0161 -0.1879
  109MOL    H2115357   3.348   1.127   5.806  0.5152 -0.4892 -0.2118
  109MOL    H2215358   3.217   1.110   5.919  1.4390  2.2124 -1.0565
  109MOL    C2315359   3.456   0.786   5.766  1.1944  0.7105 -0.6915
  109MOL    C2415360   3.538   0.787   5.645 -0.1979 -0.1757  0.2253
  109MOL    O2515361   3.505   0.694   5.850 -0.7391  0.1808  0.3584
  109MOL    H2615362   3.353   0.770   5.734  0.2591  1.8148  1.6423
  109MOL    H2715363   3.636   0.835   5.648 -0.0521 -0.5235  1.0206
  109MOL    H2815364   3.486   0.838   5.564  1.4807 -0.3337 -0.9963
  109MOL    H2915365   3.552   0.683   5.617 -0.7892  0.1863 -1.4867
  109MOL    C3015366   3.453   0.569   5.836  0.6453  0.2346 -0.1507
  109MOL    C3115367   3.560   0.472   5.886 -0.5619 -0.4172  0.3991
  109MOL    O3215368   3.341   0.550   5.923  0.1418 -0.4271 -0.0137
  109MOL    H3315369   3.435   0.537   5.734 -0.4143 -1.4031  0.5184
  109MOL    H3415370   3.526   0.368   5.883  1.8693 -1.3106  1.8981
  109MOL    H3515371   3.592   0.488   5.989  0.2230 -0.5341  0.1703
  109MOL    H3615372   3.649   0.479   5.824 -0.9921  1.5832 -0.0326
  109MOL    C3715373   3.214   0.532   5.865 -0.0752  0.3043  0.3823
  109MOL    C3815374   3.130   0.488   5.977 -0.7216  0.4893  0.1000
  109MOL    O3915375   3.173   0.660   5.826 -0.0933 -0.5138  0.3515
  109MOL    H4015376   3.225   0.441   5.806 -0.8699 -0.3932  1.2902
  109MOL    H4115377   3.173   0.397   6.018 -1.4980  0.4649  0.8838
  109MOL    H4215378   3.026   0.477   5.946  0.0685 -1.3098 -2.0073
  109MOL    H4315379   3.145   0.565   6.054 -1.1160  1.8373 -1.1536
  109MOL    C4415380   3.136   0.650   5.686 -0.1208  0.2894 -0.2281
  109MOL    C4515381   3.070   0.777   5.648  0.0393 -0.5547 -0.0885
  109MOL    O4615382   3.243   0.632   5.601 -0.1060 -0.0585 -0.0692
  109MOL    H4715383   3.069   0.564   5.675 -0.5945  0.3802  1.7830
  109MOL    H4815384   3.138   0.862   5.643  0.4296 -0.9011 -0.7171
  109MOL    H4915385   2.997   0.803   5.725 -1.6452 -1.9014 -1.2143
  109MOL    H5015386   3.015   0.765   5.555 -2.3501  1.4881  0.9967
  109MOL    C5115387   3.220   0.535   5.506  0.1621  0.3434  0.1739
  109MOL    C5215388   3.312   0.579   5.390  0.1592 -0.6751 -0.6846
  109MOL    O5315389   3.255   0.406   5.544 -0.2638  0.9836 -0.4685
  109MOL    H5415390   3.116   0.537   5.475  0.5012 -0.7222 -1.1128
  109MOL    H5515391   3.302   0.687   5.378 -0.6580 -0.8620 -1.8047
  109MOL    H5615392   3.285   0.527   5.298 -1.9909  0.2091 -0.5986
  109MOL    H5715393   3.413   0.556   5.424  0.4307  1.9897  0.4229
  109MOL    C5815394   3.164   0.306   5.495 -0.0565  0.3370  0.2428
  109MOL    C5915395   3.244   0.179   5.490  0.4435 -0.0622 -0.3965
  109MOL    O6015396   3.062   0.297   5.590 -0.3770 -0.0841  0.0904
  109MOL    H6115397   3.135   0.338   5.395  3.5272  0.1572 -0.9222
  109MOL    H6215398   3.327   0.199   5.422 -0.0027  0.8152 -0.6953
  109MOL    H6315399   3.169   0.113   5.446 -0.6616  0.6444  0.3854
  109MOL    H6415400   3.267   0.145   5.591 -1.1152 -1.6001 -0.5309
  109MOL    C6515401   2.930   0.278   5.527 -0.9003 -0.3182  0.3267
  109MOL    C6615402   2.854   0.196   5.639  0.1429 -0.5446 -0.1175
  109MOL    O6715403   2.855   0.394   5.512  0.0432 -0.3790 -0.1408
  109MOL    H6815404   2.936   0.224   5.432  1.1275 -0.4928  0.5276
  109MOL    H6915405   2.827   0.245   5.733 -1.7445 -2.0994  0.1927
  109MOL    H7015406   2.906   0.107   5.677 -2.5403 -2.0572  0.1622
  109MOL    H7115407   2.758   0.159   5.604 -1.3078  2.8016  0.1753
  109MOL    C7215408   2.826   0.434   5.377  0.6335  0.0122  0.1733
  109MOL    C7315409   2.749   0.569   5.383 -0.2407  0.2034 -0.1130
  109MOL    O7415410   2.939   0.456   5.292 -0.5502  0.0595 -0.2512
  109MOL    H7515411   2.760   0.359   5.334 -0.0251  0.8910 -0.3447
  109MOL    H7615412   2.692   0.601   5.296 -2.3433  0.1223  1.1786
  109MOL    H7715413   2.822   0.646   5.409 -0.6010  0.5402 -0.0939
  109MOL    H7815414   2.684   0.567   5.471  0.3553 -0.1261  0.3274
  109MOL    C7915415   2.916   0.394   5.166  0.6697  0.0622 -0.0673
  109MOL    C8015416   3.028   0.431   5.064  1.0309 -0.1128  0.5812
  109MOL    O8115417   2.925   0.253   5.182 -0.7543  0.0777 -0.7333
  109MOL    H8215418   2.819   0.423   5.127  0.1464  0.0820  1.2460
  109MOL    H8315419   2.990   0.421   4.962  0.6578 -0.7455  0.7779
  109MOL    H8415420   3.111   0.362   5.083  0.4579 -1.1965 -0.7629
  109MOL    H8515421   3.059   0.534   5.080  1.1789  0.6837 -4.1140
  109MOL    C8615422   2.836   0.179   5.112 -0.4318  0.1477  0.0381
  109MOL    C8715423   2.915   0.048   5.081 -0.0981  0.1745  0.0187
  109MOL    O8815424   2.732   0.147   5.201  0.2650 -0.0008  0.5300
  109MOL    H8915425   2.807   0.228   5.019  1.9662  0.5493 -0.5251
  109MOL    H9015426   2.857   7.888   5.025 -2.5745  1.0793  1.2964
  109MOL    H9115427   2.954   0.014   5.176  1.0114 -0.8667 -0.8062
  109MOL    H9215428   2.998   0.077   5.017 -0.8459  2.2386 -0.0619
  109MOL    C9315429   2.607   0.170   5.155 -0.3004  0.1928 -0.6096
  109MOL    C9415430   2.519   0.113   5.265  0.4995  0.2882 -0.2879
  109MOL    O9515431   2.585   0.305   5.132  0.1036 -0.4921 -0.6679
  109MOL    H9615432   2.611   0.116   5.061 -1.1130  1.1262 -1.1837
  109MOL    H9715433   2.525   0.004   5.265  2.4278  0.3790 -1.4966
  109MOL    H9815434   2.416   0.145   5.248  0.8541  2.6549  1.6290
  109MOL    H9915435   2.563   0.152   5.357  1.9086  2.1557 -1.7195
  109MOL   C10015436   2.524   0.328   5.005  0.4918  0.2075  0.6865
  109MOL   C10115437   2.451   0.464   5.007 -0.2006 -0.1520  0.8095
  109MOL   O10215438   2.632   0.336   4.908  0.2908 -0.6858 -0.7828
  109MOL   H10315439   2.453   0.248   4.982  2.7554 -1.7995  0.3871
  109MOL   H10415440   2.513   0.553   5.002  0.9860 -0.8399  2.7507
  109MOL   H10515441   2.389   0.480   5.094 -1.4100  1.7561 -0.3633
  109MOL   H10615442   2.390   0.465   4.916 -0.0042 -0.7875  0.6622
  109MOL   C10715443   2.596   0.274   4.790  0.3300 -0.1089 -0.4574
  109MOL   C10815444   2.684   0.343   4.688  0.3992 -0.6907 -0.6663
  109MOL   O10915445   2.626   0.140   4.802 -0.2124 -0.0724 -0.7329
  109MOL   H11015446   2.491   0.298   4.772 -0.8565 -2.1266  3.1492
  109MOL   H11115447   2.663   0.311   4.586  0.9431  0.3525 -1.1132
  109MOL   H11215448   2.790   0.330   4.710  0.1077  1.1247  2.0745
  109MOL   H11315449   2.651   0.447   4.689 -0.1222 -0.8617  0.3556
  109MOL   C11415450   2.533   0.058   4.737 -0.0167 -0.0908 -0.3278
  109MOL   C11515451   2.568   7.826   4.766  0.1376 -0.2815  0.5974
  109MOL   O11615452   2.402   0.084   4.778  0.1077 -0.3860  0.4321
  109MOL   H11715453   2.548   0.074   4.630  4.3284  0.6472  0.3272
  109MOL   H11815454   2.582   7.822   4.874 -0.5012 -0.5168  0.6725
  109MOL   H11915455   2.665   7.804   4.722 -0.3763  0.1525 -0.7861
  109MOL   H12015456   2.495   7.761   4.718 -0.1146  1.6174 -1.6985
  109MOL   C12115457   2.307   0.099   4.677 -0.8556 -0.1341  0.1867
  109MOL   C12215458   2.181   0.129   4.749  0.1261  0.6913 -0.2745
  109MOL   O12315459   2.351   0.196   4.588  0.1557  0.2232 -0.2092
  109MOL   H12415460   2.290   0.009   4.618  1.3011  1.0176 -2.3230
  109MOL   H12515461   2.192   0.222   4.806  0.4076  0.2540  0.3930
  109MOL   H12615462   2.162   0.049   4.820  0.3025  2.1551  1.4658
  109MOL   H12715463   2.102   0.154   4.679 -1.6481 -0.7315  1.1416
  109MOL   C12815464   2.343   0.157   4.454 -0.5197  0.2567  0.0085
  109MOL   C12915465   2.365   0.288   4.368  0.7234 -0.1094 -0.4231
  109MOL   O13015466   2.442   0.071   4.418 -0.2923  0.3604  0.0051
  109MOL   H13115467   2.246   0.113   4.433  0.3925 -0.9367 -1.8491
  109MOL   H13215468   2.302   0.373   4.395  1.5013  0.8466 -1.5915
  109MOL   H13315469   2.359   0.273   4.261 -1.8949 -0.7614 -0.2153
  109MOL   H13415470   2.466   0.323   4.386 -0.0138  1.3992  0.9548
  109MOL   C13515471   2.412   7.896   4.312  0.2738  0.0318 -0.4221
  109MOL   C13615472   2.541   7.856   4.242  0.1948 -0.1249 -0.9559
  109MOL   O13715473   2.350   7.778   4.360  0.0111 -0.0556  1.0201
  109MOL   H13815474   2.341   0.031   4.246 -1.4670 -1.2056  0.4953
  109MOL   H13915475   2.528   7.768   4.179 -0.3495  0.2241 -1.3305
  109MOL   H14015476   2.622   7.841   4.314 -1.8439  0.1310  1.4423
  109MOL   H14115477   2.570   0.027   4.181  2.2377 -0.1476 -0.0750
  109MOL   H14215478   2.296   7.747   4.289  0.5717 -0.8203  0.9238
  110MOL     C115479   3.544   5.578   2.517 -0.2251 -0.7839  0.0129
  110MOL     C215480   3.644   5.643   2.611  0.6167 -0.6040 -0.4121
  110MOL     O315481   3.415   5.566   2.582  0.3012  0.0355 -0.5164
  110MOL     H415482   3.583   5.479   2.492  1.7320 -1.0629  3.7037
  110MOL     H515483   3.603   5.733   2.656  1.4495 -2.6962  4.8034
  110MOL     H615484   3.736   5.662   2.556  0.5473 -3.7848 -1.7772
  110MOL     H715485   3.671   5.569   2.686 -0.8005  0.8130  1.5442
  110MOL     H815486   3.557   5.633   2.425  0.7611 -1.7940 -0.4583
  110MOL     C915487   3.324   5.499   2.498  0.0327  0.1138  0.1317
  110MOL    C1015488   3.216   5.435   2.592 -0.3560  0.5875 -0.2011
  110MOL    O1115489   3.247   5.583   2.415  0.3457  0.0306  0.5694
  110MOL    H1215490   3.376   5.423   2.440 -1.2417  1.2104 -2.5516
  110MOL    H1315491   3.134   5.389   2.536 -0.1944 -1.3243  1.1181
  110MOL    H1415492   3.176   5.517   2.652 -0.2039  1.1788 -0.8899
  110MOL    H1515493   3.267   5.364   2.656 -0.9311 -0.2506 -0.6658
  110MOL    C1615494   3.248   5.543   2.286 -0.2702  0.1926  0.1373
  110MOL    C1715495   3.141   5.622   2.213  0.4278  0.0576  0.4477
  110MOL    O1815496   3.372   5.583   2.231  0.1511 -0.4778 -0.0570
  110MOL    H1915497   3.230   5.436   2.275 -0.9616  0.2702  0.5145
  110MOL    H2015498   3.138   5.605   2.106 -0.3305  0.6541  0.3771
  110MOL    H2115499   3.156   5.730   2.211 -1.1213  0.2434 -2.5561
  110MOL    H2215500   3.042   5.608   2.256  0.9499 -2.1887  0.9903
  110MOL    C2315501   3.427   5.492   2.140  0.2787  0.1569  0.2387
  110MOL    C2415502   3.554   5.555   2.066 -0.0141  0.0383 -0.1429
  110MOL    O2515503   3.471   5.382   2.208  0.2991 -0.0696 -0.4157
  110MOL    H2615504   3.353   5.460   2.066  1.1811 -0.8984 -0.2368
  110MOL    H2715505   3.531   5.662   2.067  1.4490  0.3648  0.7820
  110MOL    H2815506   3.546   5.520   1.964 -3.1736  0.1262  0.0485
  110MOL    H2915507   3.649   5.532   2.116  0.9264  0.9246 -1.4788
  110MOL    C3015508   3.438   5.263   2.156  0.0117 -0.0808 -0.3486
  110MOL    C3115509   3.544   5.171   2.214  0.3811  0.1169 -0.2662
  110MOL    O3215510   3.318   5.211   2.202 -0.3376 -0.1616  0.1748
  110MOL    H3315511   3.455   5.272   2.049 -1.4775 -0.5870 -0.6376
  110MOL    H3415512   3.635   5.184   2.157  0.2424  1.3080 -0.2308
  110MOL    H3515513   3.516   5.071   2.180  2.3505  0.3759 -2.8190
  110MOL    H3615514   3.560   5.186   2.321  1.1708  1.9466 -0.6253
  110MOL    C3715515   3.237   5.180   2.103  0.5794 -0.4273 -0.1532
  110MOL    C3815516   3.116   5.113   2.179 -0.1250  0.2032 -0.1569
  110MOL    O3915517   3.180   5.286   2.037 -0.1569  0.1900 -0.0958
  110MOL    H4015518   3.289   5.108   2.040  1.0338 -1.0587  0.9367
  110MOL    H4115519   3.076   5.184   2.252 -1.5546 -1.6516  0.9139
  110MOL    H4215520   3.164   5.032   2.234  1.6783  1.7393  0.6206
  110MOL    H4315521   3.041   5.067   2.115 -0.0088 -1.4344  0.8710
  110MOL    C4415522   3.171   5.284   1.896 -0.1486  0.4543  0.3330
  110MOL    C4515523   3.046   5.364   1.845 -0.2876 -0.2167  0.4744
  110MOL    O4615524   3.288   5.331   1.833  0.2154 -0.3270 -0.3997
  110MOL    H4715525   3.153   5.179   1.873  2.1179  0.0284  0.4452
  110MOL    H4815526   2.967   5.319   1.905  1.3041 -2.3038  1.0973
  110MOL    H4915527   3.028   5.353   1.738  1.1532 -0.5247  0.2542
  110MOL    H5015528   3.058   5.467   1.879  1.2542 -0.8022  1.8145
  110MOL    C5115529   3.348   5.243   1.743 -0.4427  0.7079 -0.8390
  110MOL    C5215530   3.442   5.324   1.665 -0.0557 -0.1249 -0.2372
  110MOL    O5315531   3.419   5.136   1.815  0.0808 -0.2416  0.0896
  110MOL    H5415532   3.269   5.202   1.680 -0.6840 -1.1328  0.6100
  110MOL    H5515533   3.497   5.391   1.732 -0.0428 -0.3763  0.0035
  110MOL    H5615534   3.386   5.391   1.600  1.3449  1.1564 -0.1531
  110MOL    H5715535   3.513   5.267   1.606 -0.1960  1.0161 -1.5527
  110MOL    C5815536   3.388   5.004   1.774  1.1208  0.0473  0.2041
  110MOL    C5915537   3.470   4.914   1.861  0.0552 -0.8521 -0.3307
  110MOL    O6015538   3.249   4.976   1.804  0.1573  0.2026 -0.6197
  110MOL    H6115539   3.412   5.009   1.668  1.4218 -2.0769  0.1545
  110MOL    H6215540   3.574   4.915   1.826  0.3729  0.9234  0.6137
  110MOL    H6315541   3.441   4.809   1.858 -0.1090 -0.7696 -2.1449
  110MOL    H6415542   3.486   4.964   1.957  0.7329 -0.0769 -0.8372
  110MOL    C6515543   3.179   4.917   1.696  0.1372  0.4903  0.0947
  110MOL    C6615544   3.038   4.884   1.753  0.0091  0.6249 -0.5606
  110MOL    O6715545   3.160   5.013   1.597 -0.1417 -0.0325  0.4550
  110MOL    H6815546   3.235   4.828   1.666 -1.6531 -0.3408 -0.8388
  110MOL    H6915547   3.004   4.982   1.785 -0.8711  0.9057 -2.2838
  110MOL    H7015548   3.050   4.808   1.829 -1.3927  0.5066 -0.4460
  110MOL    H7115549   2.959   4.852   1.685  0.8378 -3.8019  0.4242
  110MOL    C7215550   3.181   4.966   1.466  0.5964  0.5522 -0.0047
  110MOL    C7315551   3.156   5.070   1.361  0.3412 -0.2662  0.0446
  110MOL    O7415552   3.313   4.916   1.449 -0.2210 -0.7879 -0.0943
  110MOL    H7515553   3.104   4.891   1.449 -0.0119  1.0562  0.5122
  110MOL    H7615554   3.243   5.136   1.360  0.8721 -0.9162  1.6412
  110MOL    H7715555   3.067   5.129   1.386  0.8528 -0.1423  1.6366
  110MOL    H7815556   3.150   5.029   1.260  0.2179 -0.5430  0.1637
  110MOL    C7915557   3.314   4.790   1.379 -0.1102  0.4759  0.1473
  110MOL    C8015558   3.462   4.765   1.349  0.1539 -0.5093 -0.0595
  110MOL    O8115559   3.266   4.691   1.464  0.2127 -0.3739  0.3471
  110MOL    H8215560   3.265   4.794   1.281 -2.1013  0.1869  1.1019
  110MOL    H8315561   3.479   4.670   1.298 -0.6103  0.3481 -1.9669
  110MOL    H8415562   3.509   4.757   1.447  0.2512 -0.5932 -0.1124
  110MOL    H8515563   3.514   4.850   1.304  0.1934  0.5046  1.8249
  110MOL    C8615564   3.199   4.591   1.400 -0.9955  0.4392 -0.6010
  110MOL    C8715565   3.140   4.504   1.510 -0.1662  0.0347 -0.0401
  110MOL    O8815566   3.092   4.637   1.325  0.2374 -0.2050  0.2437
  110MOL    H8915567   3.264   4.530   1.337 -1.3275  1.1918 -1.6950
  110MOL    H9015568   3.074   4.551   1.582  1.5744  0.5616  1.2296
  110MOL    H9115569   3.220   4.455   1.565  0.7432 -1.9456 -3.0006
  110MOL    H9215570   3.087   4.421   1.463  0.1009 -1.1360  1.7143
  110MOL    C9315571   3.080   4.587   1.191 -0.1781  0.0988  0.2809
  110MOL    C9415572   2.963   4.673   1.134  1.1341 -0.1966 -0.3999
  110MOL    O9515573   3.191   4.632   1.117  0.5944  0.2872 -0.0314
  110MOL    H9615574   3.068   4.479   1.193  1.9308 -0.1365  1.6313
  110MOL    H9715575   2.992   4.777   1.150 -0.0996  0.1356 -0.2814
  110MOL    H9815576   2.868   4.655   1.184  0.5018 -1.0538 -1.8658
  110MOL    H9915577   2.947   4.643   1.030 -0.4677 -0.3362 -0.1247
  110MOL   C10015578   3.226   4.552   1.009 -0.1760  0.1948 -0.4050
  110MOL   C10115579   3.339   4.623   0.939 -0.1700  0.0484  0.1053
  110MOL   O10215580   3.274   4.428   1.044  0.5186  0.1806 -0.2198
  110MOL   H10315581   3.139   4.540   0.945 -1.1358 -0.5717  0.9924
  110MOL   H10415582   3.376   4.579   0.846 -1.3674 -0.2343 -0.2529
  110MOL   H10515583   3.423   4.622   1.009  1.8863 -1.2472 -2.3211
  110MOL   H10615584   3.311   4.726   0.921 -1.5939 -0.0076  1.8012
  110MOL   C10715585   3.207   4.317   0.987  0.6843 -0.1061 -0.0010
  110MOL   C10815586   3.292   4.196   1.005  0.1884  0.0731 -0.5174
  110MOL   O10915587   3.075   4.294   1.046 -0.3630 -0.4825 -0.8267
  110MOL   H11015588   3.194   4.337   0.880 -3.0489 -1.0512  0.1994
  110MOL   H11115589   3.278   4.144   1.100 -0.5937 -1.0292 -1.2260
  110MOL   H11215590   3.396   4.227   0.994 -0.0971  1.0689 -0.3833
  110MOL   H11315591   3.269   4.125   0.925  0.3272 -1.9924  1.2172
  110MOL   C11415592   2.973   4.245   0.961 -0.3334 -0.2123  0.0184
  110MOL   C11515593   2.861   4.189   1.048 -0.3023 -0.2743 -0.4804
  110MOL   O11615594   2.910   4.350   0.893  0.3142 -0.1682  0.2276
  110MOL   H11715595   3.009   4.166   0.895 -2.6371 -0.7487 -0.6135
  110MOL   H11815596   2.774   4.148   0.996 -0.7860 -0.1994  0.2645
  110MOL   H11915597   2.828   4.256   1.128  1.2910  0.8637 -0.7639
  110MOL   H12015598   2.899   4.102   1.100  1.6870  0.9609  0.1655
  110MOL   C12115599   2.928   4.348   0.754  0.4984  0.1165 -0.5675
  110MOL   C12215600   2.828   4.444   0.690 -0.3229 -0.2826 -0.0715
  110MOL   O12315601   3.057   4.381   0.706 -0.0495  0.0239  0.4188
  110MOL   H12415602   2.893   4.250   0.721  1.3755  0.4323 -2.4717
  110MOL   H12515603   2.728   4.428   0.730  0.1148 -1.0225  0.7595
  110MOL   H12615604   2.826   4.432   0.582 -1.1811  0.9333 -0.2024
  110MOL   H12715605   2.848   4.549   0.713 -1.0028 -0.2837  0.5524
  110MOL   C12815606   3.115   4.291   0.620 -0.7571  0.1768  0.8005
  110MOL   C12915607   3.256   4.343   0.583 -0.2849 -0.4079  0.9705
  110MOL   O13015608   3.121   4.154   0.664 -0.8417 -0.4453 -0.3472
  110MOL   H13115609   3.056   4.299   0.528  0.2059 -0.6916  0.0874
  110MOL   H13215610   3.313   4.358   0.675  0.6119  1.6521  0.1113
  110MOL   H13315611   3.246   4.437   0.528 -3.0081 -1.6094 -0.6693
  110MOL   H13415612   3.317   4.276   0.523 -1.0449 -0.4621  0.2596
  110MOL   C13515613   3.121   4.069   0.554  0.2892  0.2021 -0.3044
  110MOL   C13615614   3.219   3.955   0.595  0.5449  0.1827  0.7415
  110MOL   O13715615   2.993   4.021   0.522  0.2581 -0.1118 -0.0404
  110MOL   H13815616   3.165   4.119   0.467 -0.0824 -1.5626 -1.5349
  110MOL   H13915617   3.316   4.000   0.618  0.6865 -0.4050  1.2878
  110MOL   H14015618   3.228   3.872   0.525  0.8177 -0.0395  1.0406
  110MOL   H14115619   3.184   3.907   0.686  0.1600  1.2929  1.1910
  110MOL   H14215620   2.963   4.070   0.447 -0.6839 -0.2291  0.2584
  111MOL     C115621   6.031   2.572   2.232  0.2147 -0.3769  0.2437
  111MOL     C215622   5.917   2.549   2.342 -0.4329 -0.3795  0.1094
  111MOL     O315623   6.028   2.452   2.155  0.3211 -0.1227 -0.1978
  111MOL     H415624   6.131   2.590   2.271  0.3906 -1.3905  0.2678
  111MOL     H515625   5.824   2.521   2.291  1.2364 -3.2043 -1.4908
  111MOL     H615626   5.882   2.642   2.386 -1.2309 -0.5920 -0.0683
  111MOL     H715627   5.940   2.483   2.426 -3.1680  1.1749  2.1724
  111MOL     H815628   5.997   2.654   2.169  0.1828 -0.2999  0.3612
  111MOL     C915629   6.110   2.459   2.037  0.6114 -0.1816  0.0357
  111MOL    C1015630   6.065   2.352   1.941 -0.7585  0.5109  0.2029
  111MOL    O1115631   6.101   2.580   1.975 -0.6126 -0.1774 -0.0172
  111MOL    H1215632   6.208   2.427   2.073  0.1701 -2.1096 -0.4112
  111MOL    H1315633   5.962   2.373   1.912 -1.2277 -1.3489  0.5017
  111MOL    H1415634   6.073   2.256   1.991  2.7965  0.4430 -0.3535
  111MOL    H1515635   6.138   2.337   1.861  1.1419 -0.1901  2.0360
  111MOL    C1615636   6.221   2.611   1.911  0.4016 -0.1559  1.0538
  111MOL    C1715637   6.201   2.741   1.840  0.0180  0.0290 -0.3629
  111MOL    O1815638   6.320   2.626   2.007  0.7373  0.0469 -0.0989
  111MOL    H1915639   6.248   2.532   1.840  0.2973  0.9760 -0.2655
  111MOL    H2015640   6.297   2.780   1.808 -0.4826  0.6884 -1.0735
  111MOL    H2115641   6.149   2.804   1.913 -0.1814 -2.4468  1.6960
  111MOL    H2215642   6.136   2.725   1.754 -2.7257  0.4406  1.5764
  111MOL    C2315643   6.441   2.578   1.973 -0.0071 -0.1944  0.4684
  111MOL    C2415644   6.537   2.625   2.079  0.2436 -0.2660  0.3444
  111MOL    O2515645   6.437   2.439   1.973 -0.2881 -0.2519 -0.4245
  111MOL    H2615646   6.461   2.604   1.869  0.9189 -0.1402  0.6549
  111MOL    H2715647   6.520   2.554   2.160 -3.5011  0.9494  0.6828
  111MOL    H2815648   6.519   2.729   2.106  2.1656  0.2296 -0.1931
  111MOL    H2915649   6.642   2.608   2.054  0.5908  0.2048  1.4454
  111MOL    C3015650   6.544   2.375   1.909 -0.1874 -0.3747  0.0399
  111MOL    C3115651   6.537   2.235   1.960  0.5317 -0.2848  0.2494
  111MOL    O3215652   6.523   2.360   1.776  0.0471  0.0321 -0.6516
  111MOL    H3315653   6.640   2.423   1.928 -0.1650  0.2771 -1.5829
  111MOL    H3415654   6.449   2.194   1.910  0.2174  1.5786 -0.7725
  111MOL    H3515655   6.530   2.233   2.069 -2.1481  0.4333  0.1204
  111MOL    H3615656   6.621   2.170   1.934  1.2089  0.5164  0.4262
  111MOL    C3715657   6.638   2.387   1.697  0.2453  0.4205 -0.6564
  111MOL    C3815658   6.590   2.328   1.566  0.3480  0.0147 -0.3080
  111MOL    O3915659   6.674   2.524   1.691 -0.0976 -0.1992 -0.0921
  111MOL    H4015660   6.718   2.330   1.743 -0.2970  1.7318  1.9843
  111MOL    H4115661   6.579   2.219   1.571 -0.8211  0.1907  1.1574
  111MOL    H4215662   6.669   2.335   1.492  0.9987 -0.8169  0.2938
  111MOL    H4315663   6.496   2.373   1.535 -0.0171  0.2420  1.0989
  111MOL    C4415664   6.799   2.554   1.638 -0.0211  0.1279  0.2464
  111MOL    C4515665   6.831   2.702   1.668 -0.2971 -0.1971  0.6487
  111MOL    O4615666   6.892   2.478   1.707 -0.2729  0.7598  0.6370
  111MOL    H4715667   6.803   2.539   1.530 -2.0933  0.8904  0.0272
  111MOL    H4815668   6.931   2.718   1.627 -0.6432 -1.7011 -0.8892
  111MOL    H4915669   6.830   2.717   1.775 -0.5515 -0.2514  0.6535
  111MOL    H5015670   6.756   2.766   1.622  0.9575  0.0281 -1.1443
  111MOL    C5115671   7.001   2.437   1.627 -0.1629 -0.0439  0.7162
  111MOL    C5215672   7.119   2.394   1.715 -0.4865 -0.6122 -0.2104
  111MOL    O5315673   6.961   2.329   1.552 -0.0972 -0.0318 -0.3554
  111MOL    H5415674   7.035   2.511   1.555  0.5117 -1.8207 -0.8485
  111MOL    H5515675   7.198   2.358   1.648  0.8665 -0.9895  1.5600
  111MOL    H5615676   7.088   2.308   1.774  0.2083 -0.6843  0.0566
  111MOL    H5715677   7.147   2.484   1.769 -2.0185  1.1815 -2.3187
  111MOL    C5815678   6.984   2.333   1.415  0.4055  0.2756  0.0768
  111MOL    C5915679   6.982   2.186   1.368  0.8550  0.5579 -0.4624
  111MOL    O6015680   6.880   2.400   1.348 -0.6383 -0.5718 -0.0296
  111MOL    H6115681   7.086   2.368   1.399 -0.0157  0.4999 -2.1694
  111MOL    H6215682   7.000   2.183   1.260  1.8542 -0.5473 -0.2794
  111MOL    H6315683   6.888   2.133   1.382  1.4174 -0.2316  0.4572
  111MOL    H6415684   7.068   2.139   1.416 -0.1539 -0.0168  0.8018
  111MOL    C6515685   6.931   2.500   1.266 -0.4613 -0.0718  0.1068
  111MOL    C6615686   6.855   2.528   1.141  0.1662  0.2663  0.3533
  111MOL    O6715687   6.937   2.621   1.339  0.6898  0.1664 -0.0842
  111MOL    H6815688   7.028   2.469   1.227 -0.4354  0.0793  0.0498
  111MOL    H6915689   6.870   2.629   1.102 -0.5980  0.0080 -0.6180
  111MOL    H7015690   6.748   2.528   1.159 -0.0243  0.6773 -0.7239
  111MOL    H7115691   6.881   2.459   1.061 -1.8638  0.3646 -0.4150
  111MOL    C7215692   7.050   2.696   1.304 -0.0113  0.1252  0.0367
  111MOL    C7315693   7.024   2.843   1.347  0.0516  0.4043 -0.6671
  111MOL    O7415694   7.158   2.652   1.384  0.2120 -0.7402  0.0224
  111MOL    H7515695   7.063   2.694   1.196 -2.2956  1.5912 -0.3166
  111MOL    H7615696   7.099   2.910   1.303  1.8203 -0.6853  0.6261
  111MOL    H7715697   7.017   2.848   1.456  0.8389 -1.8674 -0.4957
  111MOL    H7815698   6.931   2.867   1.297 -1.2378 -0.6351  1.1909
  111MOL    C7915699   7.271   2.617   1.307  0.0291  0.3362 -0.3092
  111MOL    C8015700   7.397   2.626   1.398  0.0604 -0.2492  0.0838
  111MOL    O8115701   7.269   2.486   1.267 -0.0877  0.1273 -0.4140
  111MOL    H8215702   7.284   2.687   1.225 -0.4893 -0.7455 -1.3279
  111MOL    H8315703   7.405   2.724   1.446 -2.1388  1.0686 -2.0958
  111MOL    H8415704   7.485   2.597   1.339 -0.3844  1.0198 -1.2396
  111MOL    H8515705   7.377   2.548   1.470 -2.9838 -0.1850 -0.6320
  111MOL    C8615706   7.308   2.472   1.137  0.0535  0.1236 -0.7379
  111MOL    C8715707   7.335   2.329   1.113  0.1282  0.3961 -0.1298
  111MOL    O8815708   7.207   2.502   1.058  0.1657  0.2173  0.6856
  111MOL    H8915709   7.392   2.534   1.107  0.7531 -0.6819 -0.4864
  111MOL    H9015710   7.403   2.303   1.194  1.6103 -0.0256 -1.4826
  111MOL    H9115711   7.390   2.313   1.021 -1.3855  0.3532 -1.0374
  111MOL    H9215712   7.241   2.275   1.124 -0.4603  1.8751  2.7281
  111MOL    C9315713   7.227   2.603   0.966  0.1786 -0.3461 -0.0661
  111MOL    C9415714   7.130   2.589   0.847  0.0908  0.1919 -0.2486
  111MOL    O9515715   7.198   2.730   1.020  0.4120 -0.3413  0.3167
  111MOL    H9615716   7.328   2.592   0.925  0.0280  0.2554 -0.6059
  111MOL    H9715717   7.159   2.499   0.793  0.5942 -0.6836  1.4654
  111MOL    H9815718   7.135   2.680   0.787  0.3785  0.3424  0.0012
  111MOL    H9915719   7.027   2.580   0.881 -0.3404  0.9725 -1.3024
  111MOL   C10015720   7.298   2.821   0.990  0.1615  0.5995  0.0871
  111MOL   C10115721   7.246   2.953   1.032 -0.1674 -0.8521 -0.4597
  111MOL   O10215722   7.410   2.794   1.065 -0.4390  0.6280 -0.1473
  111MOL   H10315723   7.318   2.826   0.883 -0.3950 -2.2879 -0.1799
  111MOL   H10415724   7.312   3.037   1.011 -0.9963 -0.1183 -0.1532
  111MOL   H10515725   7.234   2.948   1.140 -0.7889 -0.0983 -0.4908
  111MOL   H10615726   7.146   2.960   0.988 -0.4259  0.7736  0.3742
  111MOL   C10715727   7.525   2.835   1.000 -0.2649 -0.0752 -0.6311
  111MOL   C10815728   7.633   2.849   1.100  0.0207 -0.4930  0.1420
  111MOL   O10915729   7.573   2.752   0.888  0.5656  0.3061 -0.3421
  111MOL   H11015730   7.505   2.933   0.957 -0.6496 -0.4607 -1.3423
  111MOL   H11115731   7.648   2.749   1.141  0.5960 -1.1765 -1.6990
  111MOL   H11215732   7.604   2.932   1.165 -0.3467  0.1469 -0.8346
  111MOL   H11315733   7.729   2.874   1.055 -0.9110  0.3313 -1.3953
  111MOL   C11415734   7.633   2.826   0.783 -0.9917 -0.6460  0.2459
  111MOL   C11515735   7.695   2.732   0.671  0.6358  0.5830 -0.7511
  111MOL   O11615736   7.546   2.918   0.735 -0.0804  0.6615 -0.1429
  111MOL   H11715737   7.710   2.883   0.835 -0.1491 -1.4152 -0.1329
  111MOL   H11815738   7.772   2.671   0.718  0.7923  0.9770 -0.4889
  111MOL   H11915739   7.739   2.789   0.590  0.9307  2.4131  0.6506
  111MOL   H12015740   7.613   2.669   0.638  1.8533 -0.8010 -1.1467
  111MOL   C12115741   7.600   3.048   0.718 -0.4137  0.2466 -0.1026
  111MOL   C12215742   7.497   3.126   0.639  0.3784 -0.9533 -0.1884
  111MOL   O12315743   7.619   3.113   0.844 -0.6247 -0.5204  0.4926
  111MOL   H12415744   7.697   3.035   0.671 -0.4046 -0.1640  0.0211
  111MOL   H12515745   7.471   3.087   0.540 -0.5420  1.6025 -0.9983
  111MOL   H12615746   7.529   3.230   0.638 -0.7030 -0.6089 -0.9216
  111MOL   H12715747   7.398   3.128   0.686  0.1457 -2.4700 -0.5904
  111MOL   C12815748   7.729   3.204   0.845  0.3131 -0.9186 -0.0297
  111MOL   C12915749   7.722   3.275   0.971 -0.1594  0.0970  0.0234
  111MOL   O13015750   7.852   3.135   0.837 -0.3579 -0.2787 -0.8095
  111MOL   H13115751   7.713   3.267   0.757  1.1851 -0.3405  0.2127
  111MOL   H13215752   7.624   3.322   0.978 -0.2613  0.2605 -2.2302
  111MOL   H13315753   7.807   3.341   0.990  0.8008 -1.0494 -0.2453
  111MOL   H13415754   7.718   3.205   1.055  0.3889  0.0767  0.0329
  111MOL   C13515755   0.036   3.197   0.756  0.3721 -0.3158 -0.2070
  111MOL   C13615756   0.167   3.135   0.782  0.1759 -0.4976  0.4884
  111MOL   O13715757   0.001   3.195   0.618 -0.1632 -0.0128  0.5491
  111MOL   H13815758   0.026   3.302   0.781 -1.8998 -0.1771 -1.4617
  111MOL   H13915759   0.244   3.196   0.734  0.2857 -1.7424 -0.9645
  111MOL   H14015760   0.167   3.030   0.753 -2.0644 -0.0840 -1.1872
  111MOL   H14115761   0.192   3.136   0.888  1.8735  0.4186  0.0996
  111MOL   H14215762   0.004   3.285   0.590 -2.1586  0.0874  0.5686
  112MOL     C115763   4.948   1.830   7.575 -0.8185  0.1121  0.7186
  112MOL     C215764   5.017   1.759   7.691  0.2786  0.0677  0.1223
  112MOL     O315765   4.978   1.747   7.460  0.6269 -0.1197  0.1930
  112MOL     H415766   4.983   1.933   7.573  1.3809 -0.5520  2.4607
  112MOL     H515767   5.126   1.762   7.681  0.4494 -2.6194  0.7069
  112MOL     H615768   4.983   1.655   7.687  0.3054 -0.0593  2.5503
  112MOL     H715769   4.973   1.798   7.783 -1.0052 -0.3709 -0.2921
  112MOL     H815770   4.841   1.836   7.593 -0.5044  0.7890  2.4794
  112MOL     C915771   4.949   1.805   7.337  0.2674  0.5276 -0.8978
  112MOL    C1015772   5.092   1.843   7.276 -0.3567 -0.1652 -0.7497
  112MOL    O1115773   4.893   1.710   7.251  0.7656  0.4806 -0.0515
  112MOL    H1215774   4.877   1.886   7.348 -0.4417 -0.0667 -1.0964
  112MOL    H1315775   5.153   1.753   7.274  1.0562  0.7396  0.3198
  112MOL    H1415776   5.153   1.915   7.331  0.1534 -2.3128  1.5847
  112MOL    H1515777   5.078   1.875   7.173  0.5741 -1.7812 -1.3814
  112MOL    C1615778   4.776   1.657   7.299 -0.5175 -0.0820  0.1276
  112MOL    C1715779   4.667   1.710   7.212  0.2900 -0.6834 -0.0446
  112MOL    O1815780   4.770   1.518   7.283  0.4508 -0.4569  0.1024
  112MOL    H1915781   4.751   1.680   7.403  4.8521  0.3828  1.4743
  112MOL    H2015782   4.660   1.819   7.211 -0.9647 -0.7608 -1.4878
  112MOL    H2115783   4.574   1.666   7.248 -0.1222 -1.4809 -1.9971
  112MOL    H2215784   4.668   1.663   7.114 -0.2977  2.0450 -1.4269
  112MOL    C2315785   4.831   1.449   7.391  0.7330 -0.3276 -0.0166
  112MOL    C2415786   4.726   1.347   7.434 -0.7840 -0.2872 -0.5874
  112MOL    O2515787   4.944   1.377   7.347 -0.3234 -0.1454  0.6355
  112MOL    H2615788   4.876   1.504   7.474 -1.5987 -0.7979  1.5963
  112MOL    H2715789   4.628   1.393   7.440 -0.8039 -0.4257  0.1771
  112MOL    H2815790   4.750   1.309   7.533  1.1756 -0.3238 -1.0495
  112MOL    H2915791   4.725   1.264   7.362 -0.1037 -0.7830 -0.0383
  112MOL    C3015792   5.065   1.439   7.325 -0.2290  0.3811  0.1181
  112MOL    C3115793   5.156   1.394   7.439  0.0722 -0.0976  0.6890
  112MOL    O3215794   5.118   1.389   7.203  0.4828 -0.2915 -0.1922
  112MOL    H3315795   5.062   1.548   7.322  0.2202  0.3894 -0.2269
  112MOL    H3415796   5.115   1.429   7.533  0.5520  0.4870  0.6881
  112MOL    H3515797   5.252   1.440   7.415 -1.0815  2.4422  0.8813
  112MOL    H3615798   5.167   1.285   7.440  1.7938  0.0444 -0.1455
  112MOL    C3715799   5.087   1.467   7.095 -0.3116 -0.0306  0.0889
  112MOL    C3815800   5.213   1.549   7.064 -0.0864 -0.2182 -0.0600
  112MOL    O3915801   5.059   1.390   6.983  0.5285 -0.3455 -0.0978
  112MOL    H4015802   5.007   1.538   7.116  1.3256  1.7273  0.6190
  112MOL    H4115803   5.296   1.479   7.052  1.5854  1.5104  1.0715
  112MOL    H4215804   5.241   1.615   7.146 -2.7569  1.3349 -0.3624
  112MOL    H4315805   5.193   1.610   6.976 -0.2281 -0.5664 -0.2719
  112MOL    C4415806   4.938   1.328   6.995 -0.5466  0.0270  0.5269
  112MOL    C4515807   4.840   1.389   6.891 -0.6265 -0.4172  0.1468
  112MOL    O4615808   4.951   1.194   6.964 -0.5911  0.1934 -0.3680
  112MOL    H4715809   4.897   1.324   7.095  1.3868 -0.8472  1.3066
  112MOL    H4815810   4.768   1.314   6.858 -0.6024 -1.8004  3.0839
  112MOL    H4915811   4.888   1.423   6.800  0.7776 -0.3114  0.9051
  112MOL    H5015812   4.801   1.483   6.931  1.0208 -0.4019  1.8170
  112MOL    C5115813   4.996   1.118   7.078  0.6393  0.4849 -0.2172
  112MOL    C5215814   4.889   1.009   7.111 -0.1659 -0.1394 -0.0700
  112MOL    O5315815   5.106   1.037   7.050 -0.2593  0.0432 -0.1268
  112MOL    H5415816   5.032   1.168   7.168  3.5980 -0.5763 -0.7252
  112MOL    H5515817   4.852   0.954   7.024 -2.4178 -0.3470  0.9726
  112MOL    H5615818   4.798   1.055   7.151 -0.9730 -1.6252 -0.1479
  112MOL    H5715819   4.930   0.940   7.185  0.5273 -0.4759 -0.7611
  112MOL    C5815820   5.222   1.111   7.031 -0.3120 -0.0403 -0.8498
  112MOL    C5915821   5.316   1.069   7.141  0.1481  0.8074 -0.0194
  112MOL    O6015822   5.281   1.070   6.908 -0.0812  0.3172  0.1524
  112MOL    H6115823   5.224   1.220   7.025  1.4094  0.1473  2.0766
  112MOL    H6215824   5.408   1.122   7.117 -0.7112  1.7526 -1.3277
  112MOL    H6315825   5.344   0.964   7.145  0.2189  0.9220  4.0374
  112MOL    H6415826   5.271   1.091   7.238 -1.4176 -1.0710 -0.2840
  112MOL    C6515827   5.223   1.135   6.796 -0.9039  0.3198 -0.0251
  112MOL    C6615828   5.335   1.238   6.747  0.2830  0.0304  0.7729
  112MOL    O6715829   5.193   1.047   6.694  0.1166  0.0879  0.4051
  112MOL    H6815830   5.130   1.190   6.810 -3.0177 -2.7957 -1.2718
  112MOL    H6915831   5.367   1.293   6.835  2.5154 -1.2637  0.8181
  112MOL    H7015832   5.298   1.303   6.668 -1.1170  1.2633  2.4120
  112MOL    H7115833   5.426   1.186   6.715  0.6583  1.9620 -1.4119
  112MOL    C7215834   5.078   0.974   6.719 -0.4831  0.1835 -0.3561
  112MOL    C7315835   4.981   1.012   6.612 -0.3780  1.0150  0.0063
  112MOL    O7415836   5.123   0.843   6.695  0.3627  0.5386  0.0766
  112MOL    H7515837   5.030   0.984   6.816 -1.8858 -1.8975 -0.8141
  112MOL    H7615838   5.018   1.002   6.510 -0.2112  0.8499  0.0821
  112MOL    H7715839   4.940   1.112   6.627  1.3882  1.7086  0.4665
  112MOL    H7815840   4.898   0.943   6.622  0.5940 -0.0598  0.8324
  112MOL    C7915841   5.175   0.772   6.806 -0.8737 -1.1663  0.7287
  112MOL    C8015842   5.071   0.680   6.859  0.2370 -0.4059  0.2731
  112MOL    O8115843   5.276   0.682   6.766 -0.2448 -0.5718  0.0831
  112MOL    H8215844   5.220   0.843   6.876  1.4414  1.2958 -3.0800
  112MOL    H8315845   5.040   0.609   6.783 -1.5049  0.0258  0.5580
  112MOL    H8415846   4.978   0.735   6.874  1.2522  1.5035 -0.2561
  112MOL    H8515847   5.113   0.623   6.942  0.1683 -0.7249  0.0899
  112MOL    C8615848   5.389   0.756   6.722 -0.6792 -0.1079  0.3372
  112MOL    C8715849   5.495   0.734   6.823  0.0868 -0.9369  0.2588
  112MOL    O8815850   5.440   0.721   6.599 -0.1669  0.4708  0.9127
  112MOL    H8915851   5.373   0.863   6.717  1.5105  0.2367  0.1499
  112MOL    H9015852   5.592   0.781   6.806 -0.2324  0.0518  1.1209
  112MOL    H9115853   5.509   0.626   6.823  1.1861 -0.8041  1.4314
  112MOL    H9215854   5.463   0.750   6.926 -3.6866 -0.4285 -0.9284
  112MOL    C9315855   5.359   0.757   6.489 -0.1893 -0.1841 -0.5267
  112MOL    C9415856   5.422   0.882   6.422 -0.5761  0.2297 -1.2405
  112MOL    O9515857   5.349   0.655   6.395  0.1561  0.1103 -0.5933
  112MOL    H9615858   5.259   0.791   6.515 -0.9882 -1.3249 -2.0236
  112MOL    H9715859   5.359   0.921   6.343 -1.4147 -2.1372 -1.7864
  112MOL    H9815860   5.520   0.860   6.380  0.6432  1.6898  0.7428
  112MOL    H9915861   5.431   0.954   6.504  1.5250  0.0431 -1.2593
  112MOL   C10015862   5.291   0.538   6.447 -0.1434 -0.3111  0.4879
  112MOL   C10115863   5.157   0.523   6.372  0.2111  0.2524 -0.4815
  112MOL   O10215864   5.372   0.434   6.407 -0.5153 -0.8921 -0.5747
  112MOL   H10315865   5.276   0.548   6.554  1.2443 -1.6912  0.8273
  112MOL   H10415866   5.095   0.609   6.395  0.2703  0.3188 -0.5770
  112MOL   H10515867   5.099   0.442   6.418  0.6081 -0.7816 -1.7682
  112MOL   H10615868   5.161   0.494   6.267 -2.5147  0.4043 -0.6595
  112MOL   C10715869   5.458   0.395   6.509 -0.1650 -0.1259 -0.6940
  112MOL   C10815870   5.381   0.295   6.604  0.0907  0.0295  0.8981
  112MOL   O10915871   5.562   0.320   6.450 -0.4286 -0.0077 -0.5057
  112MOL   H11015872   5.493   0.482   6.565 -3.2849  0.1428  0.9291
  112MOL   H11115873   5.304   0.356   6.649  0.8569  1.9414 -0.3267
  112MOL   H11215874   5.453   0.246   6.670  0.4467 -0.8281 -0.1180
  112MOL   H11315875   5.323   0.227   6.542  0.4131  2.7297 -2.5154
  112MOL   C11415876   5.645   0.406   6.378 -0.1257 -0.7638  0.6118
  112MOL   C11515877   5.771   0.419   6.467  0.2934  0.0963  0.2327
  112MOL   O11615878   5.688   0.348   6.264 -0.4096  0.5731  0.1157
  112MOL   H11715879   5.606   0.506   6.361 -0.4052 -1.4465 -3.0498
  112MOL   H11815880   5.839   0.474   6.402  0.1026  0.1595  0.0846
  112MOL   H11915881   5.811   0.319   6.483 -0.9936 -0.5990 -0.7265
  112MOL   H12015882   5.733   0.471   6.555  0.5219  0.0236  0.3729
  112MOL   C12115883   5.589   0.330   6.171  0.5779 -0.0846 -0.5319
  112MOL   C12215884   5.590   0.440   6.066  0.4559  0.0601 -0.4178
  112MOL   O12315885   5.590   0.208   6.105 -0.1958 -0.1097  0.1109
  112MOL   H12415886   5.492   0.333   6.219  1.6363 -2.0229  1.8310
  112MOL   H12515887   5.579   0.532   6.124 -1.1239 -0.3410 -0.0373
  112MOL   H12615888   5.509   0.434   5.994  1.2611  3.3317 -1.6983
  112MOL   H12715889   5.685   0.440   6.013  0.0072  2.6465 -1.2907
  112MOL   C12815890   5.593   0.096   6.198  0.5260 -0.3913 -0.1245
  112MOL   C12915891   5.469   0.017   6.183  0.2446 -0.1202 -0.3190
  112MOL   O13015892   5.689   0.006   6.149 -0.3183 -0.6644  0.0224
  112MOL   H13115893   5.594   0.123   6.304  0.9210  0.4632 -0.3390
  112MOL   H13215894   5.461   7.894   6.081  0.0865  1.0564 -0.7440
  112MOL   H13315895   5.383   0.080   6.204  1.7896  1.7187  0.6851
  112MOL   H13415896   5.467   7.849   6.255  2.6252 -0.7270 -0.9151
  112MOL   C13515897   5.817   0.047   6.185  0.6192  0.3407  0.1335
  112MOL   C13615898   5.847   0.022   6.334 -0.0643  0.2602 -0.1545
  112MOL   O13715899   5.904   7.881   6.104  0.1471 -0.1677  0.1656
  112MOL   H13815900   5.833   0.151   6.157  0.5630 -0.0703 -1.4910
  112MOL   H13915901   5.951   7.909   6.351  0.1515 -0.2873 -2.1416
  112MOL   H14015902   5.793   7.846   6.364 -1.7476  0.8344 -1.3440
  112MOL   H14115903   5.808   0.102   6.396  1.0548 -1.0100  2.2346
  112MOL   H14215904   5.898   7.907   6.014  1.2195 -1.3074 -0.2546
  113MOL     C115905   6.764   0.585   5.006  0.2076 -0.4493 -0.3170
  113MOL     C215906   6.644   0.594   5.097  0.8837  0.5872 -0.6305
  113MOL     O315907   6.877   0.620   5.076  0.2544  0.7419 -0.3895
  113MOL     H415908   6.751   0.644   4.915 -0.2911  0.5649  0.4159
  113MOL     H515909   6.554   0.559   5.046  1.6277 -0.6345 -1.1053
  113MOL     H615910   6.634   0.701   5.118  0.8737  1.0580 -2.9482
  113MOL     H715911   6.662   0.533   5.186  1.2055 -0.0822 -1.1549
  113MOL     H815912   6.779   0.481   4.975 -0.4464 -0.1496 -1.6635
  113MOL     C915913   6.994   0.611   4.997 -0.0690 -0.3396 -0.0832
  113MOL    C1015914   7.027   0.752   4.935 -1.0216 -0.5117  0.1055
  113MOL    O1115915   7.094   0.561   5.078  0.4125 -0.2964 -0.0732
  113MOL    H1215916   6.990   0.546   4.910 -0.9581  1.7969 -1.6996
  113MOL    H1315917   6.940   0.780   4.877 -0.3252  1.1614 -0.1442
  113MOL    H1415918   7.117   0.739   4.875 -2.1575 -0.3672 -1.6452
  113MOL    H1515919   7.046   0.824   5.015  0.9935 -1.2679  0.3367
  113MOL    C1615920   7.113   0.423   5.085  0.0645 -0.3804  0.4413
  113MOL    C1715921   7.236   0.388   5.004 -0.5855 -0.0685 -0.0437
  113MOL    O1815922   7.134   0.391   5.217  0.3047 -0.0203 -0.1834
  113MOL    H1915923   7.026   0.372   5.043  1.0293  0.2290 -2.4651
  113MOL    H2015924   7.221   0.415   4.899  2.1795 -2.6845 -1.1901
  113MOL    H2115925   7.239   0.280   4.998 -0.6213  0.0605 -3.0869
  113MOL    H2215926   7.328   0.436   5.036  1.0238 -1.2689 -2.7129
  113MOL    C2315927   7.018   0.376   5.289  0.1665  0.0756  0.1701
  113MOL    C2415928   7.008   0.232   5.328 -0.2748 -0.1985 -0.4214
  113MOL    O2515929   7.036   0.449   5.405  0.1315  0.4248 -0.4774
  113MOL    H2615930   6.922   0.400   5.243 -0.6563 -0.5840  1.5092
  113MOL    H2715931   6.908   0.218   5.370  0.7031 -1.1589  1.6708
  113MOL    H2815932   7.087   0.208   5.400  0.8421  3.9526 -0.1136
  113MOL    H2915933   7.017   0.188   5.229 -2.4695  0.8457 -1.1215
  113MOL    C3015934   7.043   0.586   5.394 -0.5002  0.2452  0.0377
  113MOL    C3115935   6.908   0.645   5.441 -0.1624  0.0126 -0.3558
  113MOL    O3215936   7.144   0.638   5.469 -0.3876 -0.5033  0.1538
  113MOL    H3315937   7.058   0.620   5.292 -0.0218 -1.6177 -0.5327
  113MOL    H3415938   6.912   0.752   5.464 -0.1531 -0.1930  0.6173
  113MOL    H3515939   6.869   0.587   5.524 -0.1906  0.1895 -0.2463
  113MOL    H3615940   6.827   0.619   5.374  2.3753  0.3405 -3.6925
  113MOL    C3715941   7.280   0.615   5.427 -0.6888 -0.6151 -0.2088
  113MOL    C3815942   7.326   0.738   5.356  0.5143 -0.6724 -0.0191
  113MOL    O3915943   7.361   0.605   5.543  0.1690  0.0329  0.3438
  113MOL    H4015944   7.288   0.523   5.369  1.2728 -1.2687  1.0061
  113MOL    H4115945   7.319   0.821   5.426 -0.9487  0.4561 -1.4629
  113MOL    H4215946   7.256   0.776   5.282  1.5220 -1.1299 -1.2170
  113MOL    H4315947   7.425   0.714   5.317  0.2771 -0.9189 -0.4748
  113MOL    C4415948   7.344   0.491   5.615 -0.3852 -0.0666  0.0346
  113MOL    C4515949   7.474   0.472   5.685 -0.4889  0.1106  0.1586
  113MOL    O4615950   7.248   0.511   5.718 -0.3641 -0.1275  0.3627
  113MOL    H4715951   7.325   0.410   5.544 -0.7823 -0.6839  0.8354
  113MOL    H4815952   7.491   0.559   5.748 -0.2140 -0.0966  0.3746
  113MOL    H4915953   7.564   0.454   5.627 -1.4457  1.1398 -1.6634
  113MOL    H5015954   7.451   0.396   5.760 -1.7598  2.2529  2.0075
  113MOL    C5115955   7.162   0.394   5.740  0.2971  0.4316 -0.3234
  113MOL    C5215956   7.237   0.270   5.795 -0.1759 -0.3627 -0.0775
  113MOL    O5315957   7.064   0.435   5.837  0.4041 -0.1870 -0.0676
  113MOL    H5415958   7.108   0.373   5.647  1.6508 -0.1597 -0.9899
  113MOL    H5515959   7.289   0.209   5.721 -2.0665  0.1103 -1.8266
  113MOL    H5615960   7.158   0.206   5.833  0.5202 -1.6272 -0.7359
  113MOL    H5715961   7.301   0.298   5.879  0.5709  3.1746 -1.6992
  113MOL    C5815962   6.970   0.529   5.792 -0.0427  0.6096  0.1503
  113MOL    C5915963   6.830   0.470   5.810  0.0586 -0.2162  0.2574
  113MOL    O6015964   6.970   0.647   5.857 -0.3065  0.6735 -0.6091
  113MOL    H6115965   6.997   0.547   5.689  1.4743 -1.0085  0.2439
  113MOL    H6215966   6.808   0.454   5.916  0.4379  0.2538  0.4079
  113MOL    H6315967   6.817   0.373   5.761  1.3996 -0.9196  1.2713
  113MOL    H6415968   6.756   0.539   5.771  0.3862  1.4268  2.4987
  113MOL    C6515969   7.052   0.746   5.809 -0.4158 -0.4356 -0.6305
  113MOL    C6615970   6.960   0.844   5.743 -0.2920  0.3731  0.1347
  113MOL    O6715971   7.127   0.801   5.918 -0.0706  0.2715 -0.6274
  113MOL    H6815972   7.123   0.710   5.735 -0.6220  2.0520 -2.1028
  113MOL    H6915973   6.882   0.802   5.680  0.4887  1.9845 -1.9365
  113MOL    H7015974   7.013   0.921   5.688  0.5545 -0.1897  0.1506
  113MOL    H7115975   6.910   0.885   5.831  0.3921  1.7138 -0.0870
  113MOL    C7215976   7.233   0.720   5.967  0.0394  0.2835  0.2093
  113MOL    C7315977   7.364   0.785   5.922 -0.3349  0.1276 -0.1618
  113MOL    O7415978   7.237   0.718   6.108  0.2129  0.7231 -0.3574
  113MOL    H7515979   7.230   0.616   5.937  1.5172  0.6844 -1.4247
  113MOL    H7615980   7.388   0.877   5.976 -0.2323  1.5186 -2.5255
  113MOL    H7715981   7.357   0.804   5.815 -1.2475 -0.3045 -0.1792
  113MOL    H7815982   7.445   0.718   5.949 -0.8682 -0.9063 -1.1095
  113MOL    C7915983   7.122   0.657   6.161  0.5114 -0.8378  0.9252
  113MOL    C8015984   7.172   0.522   6.219 -0.1213 -0.0993 -0.3084
  113MOL    O8115985   7.057   0.728   6.261  0.0738  0.4203  0.4111
  113MOL    H8215986   7.043   0.638   6.087  1.5134  0.9193 -0.6340
  113MOL    H8315987   7.093   0.470   6.273 -0.3616  0.9287  0.3332
  113MOL    H8415988   7.261   0.535   6.282  0.2951  2.2309 -1.3444
  113MOL    H8515989   7.197   0.461   6.132  1.5830 -0.1536  0.1988
  113MOL    C8615990   6.979   0.835   6.217 -0.2166 -0.4297 -0.5035
  113MOL    C8715991   6.838   0.791   6.238 -0.6690  0.2449 -0.0444
  113MOL    O8815992   7.008   0.941   6.297 -0.6231  0.1688  0.3926
  113MOL    H8915993   6.997   0.860   6.112 -1.5072  2.5370 -0.0427
  113MOL    H9015994   6.774   0.876   6.212 -2.4450 -1.0318  0.0493
  113MOL    H9115995   6.818   0.774   6.344  0.5224  1.2526  0.3494
  113MOL    H9215996   6.810   0.706   6.176 -2.4969  0.0997  0.9260
  113MOL    C9315997   7.142   0.978   6.294 -0.0903  0.7900 -0.2696
  113MOL    C9415998   7.148   1.108   6.216  0.4636  0.5004 -0.1748
  113MOL    O9515999   7.181   1.008   6.422 -0.4324 -0.0474 -0.4110
  113MOL    H9616000   7.211   0.912   6.242 -0.1260 -0.6146  1.4141
  113MOL    H9716001   7.247   1.152   6.222 -1.0047  4.1444 -1.0626
  113MOL    H9816002   7.082   1.187   6.253 -1.0559  0.7211 -3.1906
  113MOL    H9916003   7.122   1.098   6.111 -0.5545  0.4634  0.0761
  113MOL   C10016004   7.210   0.900   6.509  0.3003 -0.3916 -0.5803
  113MOL   C10116005   7.360   0.887   6.519  0.1787 -0.1482  0.5805
  113MOL   O10216006   7.171   0.933   6.638  0.0394  0.4615 -0.1126
  113MOL   H10316007   7.165   0.806   6.479 -2.6203  0.9852 -0.7079
  113MOL   H10416008   7.380   0.813   6.596 -0.7035  0.6018  1.5312
  113MOL   H10516009   7.406   0.981   6.548 -1.5653  0.6149  0.9128
  113MOL   H10616010   7.407   0.845   6.430 -1.0186  1.1106 -0.6723
  113MOL   C10716011   7.032   0.960   6.637  0.2106 -0.5636 -0.1730
  113MOL   C10816012   6.982   0.858   6.737 -0.4799 -0.1787 -0.1617
  113MOL   O10916013   7.004   1.081   6.696  0.3483 -0.4342  0.0903
  113MOL   H11016014   6.986   0.943   6.540 -0.2325 -1.6178  0.2189
  113MOL   H11116015   7.004   0.873   6.843  1.3916 -2.5679 -0.1709
  113MOL   H11216016   7.000   0.755   6.705 -1.1316 -0.0520 -0.9483
  113MOL   H11316017   6.873   0.859   6.738 -0.5252  0.4624 -2.9733
  113MOL   C11416018   6.988   1.185   6.606 -0.6368 -0.6779 -0.1436
  113MOL   C11516019   6.839   1.215   6.595 -0.0118  0.8168  0.8660
  113MOL   O11616020   7.047   1.303   6.659  0.0490 -0.1608 -0.3373
  113MOL   H11716021   7.033   1.175   6.507 -1.2134 -1.1554 -0.3571
  113MOL   H11816022   6.825   1.243   6.699 -0.5844  0.4346  0.8932
  113MOL   H11916023   6.778   1.130   6.565 -0.3158  2.0129 -2.0670
  113MOL   H12016024   6.824   1.294   6.521 -0.5778 -0.9294 -0.9451
  113MOL   C12116025   7.179   1.331   6.622 -0.6969 -0.2541  0.0936
  113MOL   C12216026   7.175   1.455   6.543 -0.1226  0.7009 -0.1105
  113MOL   O12316027   7.261   1.359   6.730 -0.3042 -0.3672  0.6162
  113MOL   H12416028   7.219   1.251   6.559 -3.7260  0.3170 -2.6607
  113MOL   H12516029   7.122   1.533   6.597 -1.8134  0.6352 -1.6185
  113MOL   H12616030   7.122   1.445   6.448  1.3273 -3.3137 -0.5685
  113MOL   H12716031   7.276   1.493   6.530 -0.1207  0.3813 -1.0502
  113MOL   C12816032   7.311   1.243   6.790  0.1350 -0.1813  0.4819
  113MOL   C12916033   7.461   1.244   6.781 -0.4461  0.4776  0.0103
  113MOL   O13016034   7.277   1.237   6.928 -0.2189  0.1535  0.3254
  113MOL   H13116035   7.271   1.151   6.746  1.0203 -0.6842  0.7077
  113MOL   H13216036   7.499   1.333   6.832 -2.2590  0.9614  0.5427
  113MOL   H13316037   7.491   1.248   6.676 -1.0523 -1.0656 -0.2405
  113MOL   H13416038   7.514   1.164   6.832 -0.6716  1.1845  1.3804
  113MOL   C13516039   7.148   1.190   6.955 -0.6084  0.9256 -0.5354
  113MOL   C13616040   7.146   1.156   7.103 -0.6950  0.7028  0.4581
  113MOL   O13716041   7.044   1.278   6.925 -0.4228 -0.2051  0.9070
  113MOL   H13816042   7.130   1.096   6.903  3.9866 -1.3447  1.7035
  113MOL   H13916043   7.216   1.082   7.139 -0.7173  0.7691  0.6339
  113MOL   H14016044   7.048   1.131   7.143 -0.4599 -0.2509  0.4426
  113MOL   H14116045   7.150   1.251   7.157 -0.8408  2.5033 -2.5562
  113MOL   H14216046   7.040   1.274   6.830  2.1510 -0.6507  0.7888
  114MOL     C116047   0.154   2.531   0.287 -0.4670  0.1846 -0.0936
  114MOL     C216048   0.239   2.445   0.192 -0.4102  0.5376  0.4073
  114MOL     O316049   0.026   2.478   0.303 -0.5026 -0.0006  0.6371
  114MOL     H416050   0.140   2.631   0.247 -0.8889  0.1836  0.0491
  114MOL     H516051   0.274   2.354   0.241  2.2653  0.3572 -1.7130
  114MOL     H616052   0.329   2.493   0.153 -0.8054  0.3397 -0.7842
  114MOL     H716053   0.181   2.408   0.107 -1.0239 -1.0649  1.5000
  114MOL     H816054   0.215   2.555   0.374  1.7967 -1.3397 -1.2076
  114MOL     C916055   7.858   2.534   0.398  0.5369  0.5000 -1.0961
  114MOL    C1016056   7.736   2.610   0.334  0.1053 -0.0731 -0.2264
  114MOL    O1116057   7.799   2.432   0.481 -0.3196 -0.6040 -0.0699
  114MOL    H1216058   7.911   2.597   0.470 -0.1911  0.3973 -0.4543
  114MOL    H1316059   7.778   2.683   0.266 -0.3444  0.4917  0.0944
  114MOL    H1416060   7.677   2.659   0.412 -0.4141  0.0038 -0.6614
  114MOL    H1516061   7.675   2.543   0.273  1.4913 -0.2713 -1.3862
  114MOL    C1616062   7.885   2.334   0.530  0.2439 -0.3970 -0.4313
  114MOL    C1716063   0.041   2.384   0.661 -0.1366  0.1349 -0.3504
  114MOL    O1816064   7.814   2.223   0.577 -0.3436 -0.0460 -0.0443
  114MOL    H1916065   0.045   2.309   0.454 -0.5507  1.8546 -2.0076
  114MOL    H2016066   7.879   2.409   0.735  0.6255  2.6367 -0.3555
  114MOL    H2116067   0.103   2.469   0.633  1.1532 -0.7169 -0.1296
  114MOL    H2216068   0.106   2.307   0.702 -1.3808  0.7160  2.8193
  114MOL    C2316069   7.758   2.150   0.477  0.3550 -0.3242 -0.4369
  114MOL    C2416070   7.811   2.009   0.486  0.1862  0.2305 -0.9177
  114MOL    O2516071   7.621   2.129   0.505 -0.0582 -0.5654  0.0868
  114MOL    H2616072   7.761   2.194   0.377  1.7680 -1.0414 -0.7272
  114MOL    H2716073   7.787   1.970   0.584  0.4515  0.7331 -0.6517
  114MOL    H2816074   0.002   1.984   0.468  0.6666  1.7377 -0.2800
  114MOL    H2916075   7.755   1.942   0.420  0.8395 -1.3336  0.1194
  114MOL    C3016076   7.538   2.240   0.493  0.5398 -0.3040  0.6202
  114MOL    C3116077   7.452   2.232   0.368 -0.0240  0.8060  0.4646
  114MOL    O3216078   7.455   2.254   0.601  0.5213 -0.5453 -0.2093
  114MOL    H3316079   7.601   2.329   0.485 -0.4440  0.3362 -0.0170
  114MOL    H3416080   7.517   2.241   0.281  0.8995 -0.6357  0.9858
  114MOL    H3516081   7.362   2.294   0.377 -1.2913 -0.8961 -0.3306
  114MOL    H3616082   7.414   2.130   0.372  2.4999 -0.1873 -0.0198
  114MOL    C3716083   7.506   2.268   0.723  0.2410 -0.0894 -0.3549
  114MOL    C3816084   7.481   2.420   0.760 -0.8082  0.0625  0.0961
  114MOL    O3916085   7.438   2.191   0.819 -0.1650  0.1285  0.2390
  114MOL    H4016086   7.611   2.241   0.733  0.6519  1.2978 -0.9277
  114MOL    H4116087   7.376   2.448   0.765 -0.4516  1.2941  1.1818
  114MOL    H4216088   7.513   2.489   0.683 -0.5669  1.2312  1.2195
  114MOL    H4316089   7.543   2.452   0.844  2.4523  0.5630 -2.3807
  114MOL    C4416090   7.453   2.051   0.812  0.0660  0.1388  0.2375
  114MOL    C4516091   7.496   2.017   0.951 -0.5444 -0.1993  0.0242
  114MOL    O4616092   7.328   1.976   0.786 -0.5133  0.0813 -0.0559
  114MOL    H4716093   7.523   2.019   0.734  0.5230  1.2299  0.1925
  114MOL    H4816094   7.432   2.057   1.030 -0.2770  0.9200 -0.3175
  114MOL    H4916095   7.595   2.061   0.959  0.1427 -1.8155  0.6007
  114MOL    H5016096   7.522   1.912   0.964  1.7182  0.1581 -1.2726
  114MOL    C5116097   7.290   1.970   0.651 -0.6349  0.9462  0.6601
  114MOL    C5216098   7.338   1.846   0.583 -0.2797 -0.0942  0.0246
  114MOL    O5316099   7.151   1.971   0.636  0.0386  0.4497  0.3641
  114MOL    H5416100   7.333   2.056   0.600 -1.6235  0.4686 -1.0094
  114MOL    H5516101   7.323   1.857   0.476  0.8542 -0.0983 -0.1439
  114MOL    H5616102   7.278   1.768   0.631 -0.1945 -0.2361 -0.1008
  114MOL    H5716103   7.443   1.831   0.606  0.4398  1.1610 -2.3089
  114MOL    C5816104   7.083   2.081   0.686 -0.0853 -0.4575 -1.0884
  114MOL    C5916105   6.980   2.121   0.573  0.5100  0.5083 -0.2997
  114MOL    O6016106   7.009   2.043   0.805 -0.1348 -0.2415  0.4357
  114MOL    H6116107   7.155   2.161   0.702  2.1306 -2.6260  0.1248
  114MOL    H6216108   6.897   2.051   0.567  1.4729 -0.6505 -0.1087
  114MOL    H6316109   7.029   2.142   0.478  0.5061  0.4033 -0.3249
  114MOL    H6416110   6.931   2.209   0.615 -2.5735 -1.0060 -0.6093
  114MOL    C6516111   7.063   2.088   0.926 -0.0404 -0.3325  1.0380
  114MOL    C6616112   6.991   2.220   0.960 -0.0423  0.0506  0.3322
  114MOL    O6716113   7.030   2.005   1.029 -0.0963  0.0462  0.7470
  114MOL    H6816114   7.171   2.085   0.912 -0.0014  1.2326  0.7953
  114MOL    H6916115   6.887   2.189   0.962  0.5806 -2.1257  2.2428
  114MOL    H7016116   7.006   2.293   0.881 -0.5344 -0.0456  0.1503
  114MOL    H7116117   7.034   2.268   1.048  0.0015 -1.6180  1.2512
  114MOL    C7216118   7.104   1.884   1.018 -0.1181 -0.0555 -0.4240
  114MOL    C7316119   7.214   1.884   1.122  0.1417  0.7294 -0.6501
  114MOL    O7416120   7.024   1.766   1.034 -0.3084 -0.3878 -0.0022
  114MOL    H7516121   7.134   1.870   0.914  2.2254 -2.8603  0.5575
  114MOL    H7616122   7.290   1.811   1.096 -1.5474 -1.5017  0.4881
  114MOL    H7716123   7.180   1.872   1.225 -1.5094 -2.4310 -1.4763
  114MOL    H7816124   7.265   1.980   1.127  0.1251  0.6483  1.6036
  114MOL    C7916125   6.914   1.752   0.937 -0.9513  0.2126 -0.5652
  114MOL    C8016126   6.954   1.664   0.829 -0.3080 -0.1307  0.9437
  114MOL    O8116127   6.816   1.683   1.010  0.0176 -0.2141  0.1060
  114MOL    H8216128   6.867   1.844   0.902 -1.6350 -0.1364 -0.5726
  114MOL    H8316129   6.973   1.567   0.875 -0.5964 -0.2077  0.9037
  114MOL    H8416130   7.043   1.699   0.776  0.2175  0.3288  2.1241
  114MOL    H8516131   6.867   1.654   0.765  0.2235  1.9914 -0.1579
  114MOL    C8616132   6.748   1.750   1.103 -1.1465 -0.8965 -0.2121
  114MOL    C8716133   6.606   1.760   1.054  0.0228 -0.1509  0.8176
  114MOL    O8816134   6.748   1.687   1.227 -0.4841  0.5471 -0.2398
  114MOL    H8916135   6.784   1.852   1.119  2.6703 -2.1635 -0.2994
  114MOL    H9016136   6.558   1.813   1.136  0.7147 -0.0498  1.1571
  114MOL    H9116137   6.554   1.664   1.051 -2.3708  1.1238  0.3240
  114MOL    H9216138   6.597   1.813   0.959  0.5297  0.2717  1.0038
  114MOL    C9316139   6.857   1.716   1.313  0.8117 -0.2183  0.0672
  114MOL    C9416140   6.800   1.796   1.426  0.1747 -0.0394  0.0225
  114MOL    O9516141   6.911   1.598   1.380 -0.1992  0.3890  0.7360
  114MOL    H9616142   6.941   1.768   1.267  2.3550 -4.0319 -1.6678
  114MOL    H9716143   6.885   1.831   1.485  0.7037 -1.5484  0.1708
  114MOL    H9816144   6.742   1.725   1.485 -1.3670 -1.7542 -3.4152
  114MOL    H9916145   6.739   1.882   1.398 -0.8228  0.2886  2.9927
  114MOL   C10016146   6.955   1.509   1.286 -0.2806  0.3922  0.0871
  114MOL   C10116147   7.113   1.511   1.278 -1.0464  0.0303  0.2103
  114MOL   O10216148   6.930   1.372   1.319 -0.2845  0.5330  0.0043
  114MOL   H10316149   6.916   1.525   1.185 -0.0045 -1.3406 -0.3248
  114MOL   H10416150   7.151   1.613   1.270 -1.1631 -0.0293 -1.2384
  114MOL   H10516151   7.149   1.459   1.189  4.3388 -0.6901  2.6024
  114MOL   H10616152   7.158   1.461   1.364 -0.1095  1.1207  0.3627
  114MOL   C10716153   6.790   1.349   1.336 -0.5585 -0.6481  0.1511
  114MOL   C10816154   6.726   1.291   1.208  0.5111 -0.1886  1.1104
  114MOL   O10916155   6.778   1.252   1.437 -0.0078  0.6091 -0.3693
  114MOL   H11016156   6.728   1.428   1.378  1.5020 -0.1564  2.3262
  114MOL   H11116157   6.622   1.267   1.230  1.2024 -2.2383  2.2258
  114MOL   H11216158   6.779   1.198   1.187 -0.3928 -0.4409 -0.0820
  114MOL   H11316159   6.732   1.363   1.126  2.4023 -0.2938  1.1335
  114MOL   C11416160   6.819   1.297   1.568 -0.1149 -0.1833  0.4576
  114MOL   C11516161   6.693   1.320   1.655 -0.1116  0.6273 -0.2775
  114MOL   O11616162   6.888   1.197   1.625  0.4248  0.1467  0.5794
  114MOL   H11716163   6.870   1.392   1.579 -1.6100  0.5771  0.9364
  114MOL   H11816164   6.719   1.323   1.760  0.0341  0.0955 -0.3002
  114MOL   H11916165   6.624   1.240   1.629  1.0405 -0.3639 -0.2883
  114MOL   H12016166   6.644   1.412   1.622 -1.9411 -0.4565 -0.6700
  114MOL   C12116167   7.011   1.168   1.568 -0.0676  0.6826  0.6637
  114MOL   C12216168   7.116   1.240   1.650  0.2267 -0.3695  0.8552
  114MOL   O12316169   7.036   1.028   1.572 -0.6887  0.0717  0.6334
  114MOL   H12416170   7.024   1.208   1.468 -0.1739  0.1905  0.4531
  114MOL   H12516171   7.094   1.344   1.671 -0.9555 -0.6014  0.7911
  114MOL   H12616172   7.215   1.227   1.605  0.0784  1.9371 -0.1525
  114MOL   H12716173   7.125   1.184   1.744  1.9963 -0.6214  0.5578
  114MOL   C12816174   6.966   0.947   1.487 -0.0784  0.5741  0.0459
  114MOL   C12916175   7.060   0.870   1.400  0.1301 -0.7174  0.2332
  114MOL   O13016176   6.885   0.857   1.559  0.5932  0.3127  0.0667
  114MOL   H13116177   6.897   1.000   1.421 -0.2479 -2.5338 -2.3995
  114MOL   H13216178   7.120   0.941   1.343 -1.8480  0.9537  0.1771
  114MOL   H13316179   7.015   0.807   1.324 -0.2481 -0.6207  0.3711
  114MOL   H13416180   7.123   0.807   1.462  0.9441  0.9305  1.1063
  114MOL   C13516181   6.770   0.912   1.596  0.2726 -0.0606 -0.4341
  114MOL   C13616182   6.674   0.791   1.633 -0.8746  0.3919 -0.2825
  114MOL   O13716183   6.790   0.984   1.711  0.8183 -0.2363 -0.2977
  114MOL   H13816184   6.720   0.977   1.524 -0.0581  0.8191  0.5837
  114MOL   H13916185   6.577   0.817   1.677 -0.6408  1.5204 -0.4107
  114MOL   H14016186   6.716   0.724   1.708 -0.3367 -1.4109 -2.1676
  114MOL   H14116187   6.647   0.735   1.543  1.5699  0.4023 -1.0566
  114MOL   H14216188   6.831   1.064   1.684 -1.0051  0.4733 -1.0029
  115MOL     C116189   3.490   5.875   6.784 -0.3950  0.7723  0.2504
  115MOL     C216190   3.519   5.766   6.675 -0.3605 -0.1857  0.1164
  115MOL     O316191   3.617   5.943   6.788 -0.4070 -0.1187 -0.6952
  115MOL     H416192   3.460   5.831   6.879 -0.1477  0.7779  0.3325
  115MOL     H516193   3.579   5.681   6.709  0.7805  0.6356  0.1865
  115MOL     H616194   3.562   5.803   6.582  0.8681 -2.3157 -0.1912
  115MOL     H716195   3.426   5.720   6.642 -0.3935 -0.2274  0.2677
  115MOL     H816196   3.411   5.939   6.745 -0.0976  0.4284 -0.9461
  115MOL     C916197   3.613   6.047   6.882 -0.2688  0.2740  0.4666
  115MOL    C1016198   3.653   5.968   7.014 -0.7371  0.5831  0.5384
  115MOL    O1116199   3.713   6.144   6.864  0.3050 -0.1397  0.0810
  115MOL    H1216200   3.512   6.088   6.886 -0.9951 -0.9416 -3.0095
  115MOL    H1316201   3.569   5.905   7.042 -0.7821 -0.2064 -1.3281
  115MOL    H1416202   3.680   6.040   7.092 -2.1221  2.0728 -0.3145
  115MOL    H1516203   3.741   5.908   6.991 -0.6299  1.4713 -1.4650
  115MOL    C1616204   3.706   6.214   6.745  0.4103 -0.6251  0.6378
  115MOL    C1716205   3.720   6.359   6.780  0.7048 -0.1012  0.3813
  115MOL    O1816206   3.811   6.166   6.663 -0.5387 -0.2502  0.5479
  115MOL    H1916207   3.606   6.196   6.704  0.4105 -0.6109  0.6314
  115MOL    H2016208   3.802   6.378   6.850 -1.6573  2.3081  2.6278
  115MOL    H2116209   3.627   6.383   6.832  1.4315  3.7973  0.0253
  115MOL    H2216210   3.725   6.411   6.684 -1.1822  1.1321  0.9146
  115MOL    C2316211   3.778   6.130   6.535 -0.0353  0.5712  0.2095
  115MOL    C2416212   3.765   6.261   6.461  0.1910  0.3239  0.1356
  115MOL    O2516213   3.877   6.056   6.472 -0.3337 -0.0651 -0.1371
  115MOL    H2616214   3.686   6.073   6.531 -0.0968  0.5390  1.8519
  115MOL    H2716215   3.746   6.254   6.354  0.9368  0.6629 -0.0246
  115MOL    H2816216   3.864   6.307   6.450 -1.2966  3.7799  0.5075
  115MOL    H2916217   3.692   6.327   6.507  0.9502  0.9474  0.4563
  115MOL    C3016218   3.895   5.925   6.522 -0.0648  0.3798 -0.6052
  115MOL    C3116219   3.890   5.835   6.398  0.3268  0.0926 -0.1182
  115MOL    O3216220   4.025   5.913   6.581  0.3483  0.0485 -0.5055
  115MOL    H3316221   3.810   5.893   6.583  0.4416  1.1778  0.5392
  115MOL    H3416222   3.925   5.732   6.405  1.7119  0.6412  1.1469
  115MOL    H3516223   3.956   5.880   6.323  1.1723  0.5012  0.8715
  115MOL    H3616224   3.791   5.829   6.352 -0.7533  0.1136  2.1518
  115MOL    C3716225   4.031   5.943   6.714  0.6580 -0.1740  0.3756
  115MOL    C3816226   4.071   5.825   6.784  0.0975  0.4648 -0.1320
  115MOL    O3916227   4.139   6.035   6.729  0.3545  0.0469 -0.0945
  115MOL    H4016228   3.944   5.993   6.756  1.0582  1.5015 -0.7419
  115MOL    H4116229   4.021   5.824   6.881 -2.2869 -0.2688 -1.3248
  115MOL    H4216230   4.177   5.824   6.812  0.1977 -0.2586 -0.5310
  115MOL    H4316231   4.024   5.738   6.739  1.8954  0.2663 -1.6580
  115MOL    C4416232   4.127   6.159   6.670  0.5125 -0.4064 -1.0875
  115MOL    C4516233   4.100   6.253   6.781 -0.1084 -0.1558 -0.4954
  115MOL    O4616234   4.246   6.200   6.615 -0.3323  0.3049  0.1543
  115MOL    H4716235   4.047   6.170   6.597  0.8374  2.6471 -1.0458
  115MOL    H4816236   4.011   6.216   6.831 -1.1135  0.4668 -1.8087
  115MOL    H4916237   4.104   6.357   6.749 -0.1459 -0.1441 -0.4591
  115MOL    H5016238   4.186   6.256   6.848 -1.1822 -2.8400  1.0879
  115MOL    C5116239   4.269   6.137   6.498 -0.1781 -0.3645 -0.6521
  115MOL    C5216240   4.268   6.249   6.401  0.2366 -0.4733  1.4945
  115MOL    O5316241   4.393   6.077   6.497  0.0307  0.3210  0.3283
  115MOL    H5416242   4.203   6.058   6.461  0.8872 -0.6055 -2.0898
  115MOL    H5516243   4.167   6.290   6.399  0.8381  1.0253 -1.1235
  115MOL    H5616244   4.293   6.217   6.300 -0.1487  1.7511  0.6581
  115MOL    H5716245   4.342   6.318   6.442 -1.1283  0.3914  2.5326
  115MOL    C5816246   4.400   5.945   6.552 -0.2634 -0.5696 -0.0171
  115MOL    C5916247   4.432   5.858   6.435 -0.6242  0.2338 -0.3349
  115MOL    O6016248   4.513   5.942   6.635  0.5504 -0.6314 -0.1678
  115MOL    H6116249   4.316   5.906   6.609  1.4611 -2.5379  1.3053
  115MOL    H6216250   4.533   5.882   6.401 -0.3479 -0.4132 -0.0027
  115MOL    H6316251   4.361   5.869   6.354  1.6329  1.8773 -2.1403
  115MOL    H6416252   4.432   5.753   6.466  2.5321  0.1174 -0.5411
  115MOL    C6516253   4.494   6.007   6.758  0.3877 -0.4861  0.2733
  115MOL    C6616254   4.484   5.896   6.870  0.0322 -0.1666  0.2365
  115MOL    O6716255   4.605   6.092   6.792 -0.1346  0.1744  0.2262
  115MOL    H6816256   4.405   6.070   6.767  1.0977  0.3331  1.8591
  115MOL    H6916257   4.451   5.945   6.962  0.1433  0.1419  0.1151
  115MOL    H7016258   4.581   5.852   6.894 -1.2239 -3.3274 -0.3300
  115MOL    H7116259   4.404   5.829   6.839 -0.6796 -1.9413  5.4840
  115MOL    C7216260   4.610   6.206   6.711  0.6703 -0.1909 -0.7444
  115MOL    C7316261   4.565   6.325   6.804 -0.1383  0.0833 -0.2103
  115MOL    O7416262   4.742   6.224   6.660 -0.8386  0.0626 -0.1174
  115MOL    H7516263   4.537   6.199   6.630  1.3913 -2.7122 -1.2255
  115MOL    H7616264   4.557   6.418   6.748 -0.7852  0.0863 -0.1092
  115MOL    H7716265   4.631   6.344   6.888 -1.6100  0.8046  0.7831
  115MOL    H7816266   4.470   6.296   6.848  0.4640  0.7434  1.5358
  115MOL    C7916267   4.772   6.148   6.546  0.2232  0.0655 -0.4519
  115MOL    C8016268   4.707   6.222   6.426  0.3065 -0.3642  0.0718
  115MOL    O8116269   4.909   6.144   6.521 -0.1349 -0.6167 -0.1444
  115MOL    H8216270   4.730   6.051   6.573 -0.3822  0.8276  1.3986
  115MOL    H8316271   4.600   6.239   6.438  0.1869 -0.0107 -1.4707
  115MOL    H8416272   4.715   6.173   6.329  3.3335 -1.3067  0.7444
  115MOL    H8516273   4.759   6.316   6.412  0.6667 -0.5431  0.1915
  115MOL    C8616274   4.978   6.027   6.560 -0.2033  0.0613 -0.5068
  115MOL    C8716275   5.110   6.029   6.489  0.0482  0.2636 -0.0197
  115MOL    O8816276   5.003   6.040   6.699 -0.7215  0.0993  0.0816
  115MOL    H8916277   4.920   5.939   6.533  0.5532  0.0220 -2.0788
  115MOL    H9016278   5.171   6.116   6.515 -0.7920  0.6521  0.6822
  115MOL    H9116279   5.096   6.029   6.381 -1.6672 -1.3641  0.1857
  115MOL    H9216280   5.169   5.941   6.516  0.5124  0.3992 -0.5791
  115MOL    C9316281   4.936   5.948   6.783  1.3037 -0.1695  0.3069
  115MOL    C9416282   5.009   5.813   6.758  0.9205 -0.7544 -0.1936
  115MOL    O9516283   4.951   5.978   6.910 -0.3006 -0.5580  0.2148
  115MOL    H9616284   4.831   5.932   6.757  1.8450 -0.5868 -1.7087
  115MOL    H9716285   5.007   5.763   6.854  0.6470 -2.0921 -0.8853
  115MOL    H9816286   5.112   5.822   6.724  1.0445 -5.3953 -1.3905
  115MOL    H9916287   4.962   5.754   6.680 -2.3702 -1.1234  1.9873
  115MOL   C10016288   4.884   6.091   6.954  0.2581  0.4153  0.0561
  115MOL   C10116289   4.792   6.041   7.058  0.3840 -0.0447  0.0709
  115MOL   O10216290   4.980   6.181   7.016 -0.0556  0.5021  0.0382
  115MOL   H10316291   4.826   6.151   6.883 -0.9083  0.2327  0.8390
  115MOL   H10416292   4.846   5.990   7.138 -1.2553  0.9724  1.8907
  115MOL   H10516293   4.717   5.986   7.001  0.6013 -0.1351 -0.1299
  115MOL   H10616294   4.744   6.129   7.102 -1.2739 -1.1183  0.4523
  115MOL   C10716295   5.051   6.259   6.930 -0.5067  0.0581 -0.2116
  115MOL   C10816296   5.013   6.405   6.958  0.2891 -0.5462 -0.1997
  115MOL   O10916297   5.193   6.249   6.945 -1.0150  0.1034 -0.2149
  115MOL   H11016298   5.010   6.238   6.831 -1.3762  0.7155 -0.0071
  115MOL   H11116299   4.905   6.416   6.965  0.2987 -0.1364 -0.6897
  115MOL   H11216300   5.043   6.468   6.874 -1.0955  1.3095  0.6620
  115MOL   H11316301   5.061   6.440   7.049  2.1583 -0.1933 -1.2897
  115MOL   C11416302   5.254   6.126   6.910 -0.0783 -0.1670 -0.5035
  115MOL   C11516303   5.344   6.142   6.788 -0.0789  0.2254  0.1443
  115MOL   O11616304   5.338   6.087   7.018 -0.3374 -0.2149  0.3041
  115MOL   H11716305   5.177   6.050   6.897  0.7092 -1.2154  0.7874
  115MOL   H11816306   5.394   6.047   6.766 -0.5574 -0.7159  2.9100
  115MOL   H11916307   5.420   6.218   6.805  1.9001 -0.6555 -3.9322
  115MOL   H12016308   5.285   6.173   6.701  1.6665  0.6617 -0.9171
  115MOL   C12116309   5.270   6.062   7.141  0.1686  0.5809 -0.5641
  115MOL   C12216310   5.268   5.909   7.152 -0.2175 -0.2220 -0.0845
  115MOL   O12316311   5.347   6.097   7.250  0.4666 -0.5661 -0.1420
  115MOL   H12416312   5.175   6.116   7.144  0.9353  1.8258  1.7111
  115MOL   H12516313   5.233   5.878   7.251  1.0737 -1.1999  0.0811
  115MOL   H12616314   5.371   5.880   7.133 -0.0141  0.9245 -0.7324
  115MOL   H12716315   5.200   5.869   7.077  0.7715 -3.0223  0.4263
  115MOL   C12816316   5.372   6.231   7.278  0.3423 -0.1278  0.0944
  115MOL   C12916317   5.355   6.250   7.423  0.1220  0.0697  0.3304
  115MOL   O13016318   5.511   6.265   7.249  0.2132 -0.6064 -0.4071
  115MOL   H13116319   5.304   6.296   7.223 -2.1513 -0.1380  3.0592
  115MOL   H13216320   5.423   6.181   7.471  1.2682  0.1905 -1.0897
  115MOL   H13316321   5.256   6.225   7.461 -0.5305  0.2231 -1.1917
  115MOL   H13416322   5.389   6.349   7.454  0.0785 -0.0376  0.7196
  115MOL   C13516323   5.538   6.279   7.109 -0.2684  0.5333  0.2037
  115MOL   C13616324   5.634   6.397   7.103 -0.2964 -0.0428 -0.1271
  115MOL   O13716325   5.595   6.161   7.044 -0.1443  0.0704  0.4267
  115MOL   H13816326   5.443   6.307   7.063 -0.6967 -0.6929  0.3186
  115MOL   H13916327   5.722   6.369   7.161 -0.8084  0.2678  0.8048
  115MOL   H14016328   5.580   6.487   7.132 -1.3338 -0.0740 -1.8834
  115MOL   H14116329   5.669   6.397   7.000 -0.1536 -2.0590 -0.1031
  115MOL   H14216330   5.522   6.107   7.017  0.2512  0.3896 -1.3307
  116MOL     C116331   5.599   7.581   1.835  0.2920 -0.2694 -0.2656
  116MOL     C216332   5.544   7.578   1.688 -0.0919 -0.0016  0.2448
  116MOL     O316333   5.488   7.564   1.924 -0.6704  0.7078  0.7167
  116MOL     H416334   5.650   7.676   1.852 -0.1115 -0.2834  1.0674
  116MOL     H516335   5.461   7.648   1.676  0.3264  0.0331 -2.9272
  116MOL     H616336   5.497   7.484   1.660 -0.6912 -1.2130  4.9605
  116MOL     H716337   5.613   7.602   1.606  0.1442 -0.9833  0.1429
  116MOL     H816338   5.675   7.504   1.847  1.6499  1.1389  0.3025
  116MOL     C916339   5.514   7.551   2.059  0.0870  0.2531 -0.5947
  116MOL    C1016340   5.548   7.687   2.112  0.5513 -0.3518 -0.7753
  116MOL    O1116341   5.394   7.505   2.117 -0.4571  0.3355  0.4959
  116MOL    H1216342   5.595   7.483   2.086  0.0001  0.7154  0.8540
  116MOL    H1316343   5.461   7.747   2.085 -1.1306 -2.6482 -0.6461
  116MOL    H1416344   5.640   7.725   2.066  0.5557  0.2063 -0.3185
  116MOL    H1516345   5.571   7.686   2.218 -0.9010 -0.9023 -0.4544
  116MOL    C1616346   5.358   7.372   2.080  0.2555  0.6082 -0.5682
  116MOL    C1716347   5.400   7.280   2.188 -0.3126  0.4181  0.0878
  116MOL    O1816348   5.221   7.357   2.082  0.1951 -0.3487  0.2559
  116MOL    H1916349   5.405   7.353   1.984  1.8592  1.2990  0.0627
  116MOL    H2016350   5.350   7.187   2.161 -0.5756  0.1471  1.4625
  116MOL    H2116351   5.352   7.311   2.281 -0.6964  0.7992 -0.2341
  116MOL    H2216352   5.507   7.275   2.206 -0.3224 -0.8159 -0.1552
  116MOL    C2316353   5.141   7.421   1.983  0.6313 -0.0640  0.0157
  116MOL    C2416354   5.058   7.317   1.921 -0.2583 -0.5157  0.0347
  116MOL    O2516355   5.052   7.503   2.053  0.3516 -0.3374 -0.0010
  116MOL    H2616356   5.186   7.484   1.906 -0.1401 -0.0626 -0.4414
  116MOL    H2716357   5.122   7.236   1.885 -1.6322 -1.1367 -1.0385
  116MOL    H2816358   5.005   7.362   1.838 -0.5117 -0.5554  0.1757
  116MOL    H2916359   4.998   7.273   2.000 -0.5695  0.4182  0.3266
  116MOL    C3016360   5.096   7.631   2.083 -0.1492  0.2470  0.6556
  116MOL    C3116361   5.032   7.736   1.987  0.1437  0.2833 -0.6075
  116MOL    O3216362   5.057   7.666   2.211 -0.3669 -0.0784 -0.2916
  116MOL    H3316363   5.205   7.640   2.083 -0.1444  0.7231  3.3042
  116MOL    H3416364   4.924   7.733   1.972  0.2315 -0.1001 -1.1878
  116MOL    H3516365   5.078   7.730   1.888 -0.3049 -3.5976 -0.6489
  116MOL    H3616366   5.040   7.836   2.030  0.3812  0.2044 -0.4733
  116MOL    C3716367   5.130   7.597   2.311  0.1423  0.4513 -0.2889
  116MOL    C3816368   5.233   7.682   2.377  0.1036  0.6819 -0.5794
  116MOL    O3916369   5.040   7.556   2.416  0.1967 -0.0113  0.2767
  116MOL    H4016370   5.180   7.506   2.276 -0.2586  0.2132 -0.2532
  116MOL    H4116371   5.287   7.729   2.296  1.8452  0.8683  0.6523
  116MOL    H4216372   5.297   7.608   2.425  0.0261  0.4862 -0.7779
  116MOL    H4316373   5.186   7.749   2.449  2.5978  1.1968  0.6208
  116MOL    C4416374   4.938   7.475   2.367  0.5063 -0.6694  0.4732
  116MOL    C4516375   4.964   7.337   2.414  0.9520 -1.1187  0.5999
  116MOL    O4616376   4.818   7.504   2.434  0.5078 -0.0350  0.3894
  116MOL    H4716377   4.931   7.476   2.258 -1.0190 -0.4191  0.5641
  116MOL    H4816378   5.066   7.311   2.384  0.4796 -0.9253 -1.2412
  116MOL    H4916379   4.898   7.261   2.371  0.5978 -1.5826  1.9445
  116MOL    H5016380   4.963   7.326   2.522 -1.1680 -1.6210  0.5526
  116MOL    C5116381   4.764   7.620   2.385 -1.1004 -1.1362 -0.3237
  116MOL    C5216382   4.643   7.581   2.298  0.2115 -0.4048  0.4674
  116MOL    O5316383   4.717   7.698   2.493  0.0311  0.2907  0.1915
  116MOL    H5416384   4.834   7.685   2.332 -3.0196  0.8447 -0.4875
  116MOL    H5516385   4.576   7.664   2.278  2.7491  1.8388  0.8850
  116MOL    H5616386   4.587   7.504   2.349 -0.1233  0.2955  1.1733
  116MOL    H5716387   4.675   7.539   2.203  1.0619 -1.1252  1.0620
  116MOL    C5816388   4.817   7.754   2.571 -0.2607 -0.2702  0.2916
  116MOL    C5916389   4.799   7.904   2.590 -0.2683 -0.2894  0.0199
  116MOL    O6016390   4.802   7.704   2.701  0.8170  0.6823 -0.3371
  116MOL    H6116391   4.914   7.757   2.521 -0.6072  1.0047 -0.3188
  116MOL    H6216392   4.700   0.000   2.634  0.6280  1.3317  1.6997
  116MOL    H6316393   4.797   0.027   2.488  2.3523 -1.7692 -0.6061
  116MOL    H6416394   4.877   0.035   2.651 -2.3563  1.9705  1.1427
  116MOL    C6516395   4.898   7.612   2.740  0.8040 -0.2461 -0.2199
  116MOL    C6616396   5.007   7.691   2.808  0.1744 -0.0482 -0.0518
  116MOL    O6716397   4.848   7.520   2.830  0.2235  0.3915  0.6266
  116MOL    H6816398   4.934   7.554   2.655  0.6998  2.4435 -2.1588
  116MOL    H6916399   5.069   7.742   2.735 -1.2880  1.3566 -0.3216
  116MOL    H7016400   5.072   7.623   2.863  0.6570 -0.8399 -1.5609
  116MOL    H7116401   4.961   7.753   2.885  0.9677  0.2554  0.1767
  116MOL    C7216402   4.731   7.459   2.777  0.4624  0.5256 -0.3534
  116MOL    C7316403   4.749   7.306   2.788 -0.2836  0.0417  0.1831
  116MOL    O7416404   4.618   7.493   2.856 -0.4049  0.2074  1.0227
  116MOL    H7516405   4.704   7.474   2.673 -0.8214 -0.6438 -0.1984
  116MOL    H7616406   4.831   7.271   2.724  0.0982 -0.9004  1.1737
  116MOL    H7716407   4.652   7.261   2.765  0.0042 -0.3803 -0.2292
  116MOL    H7816408   4.769   7.282   2.892 -0.0717  2.6540  0.7649
  116MOL    C7916409   4.541   7.590   2.797 -0.3654  0.4513  0.4668
  116MOL    C8016410   4.420   7.514   2.731  0.3149 -0.8486 -0.7267
  116MOL    O8116411   4.481   7.675   2.884 -0.7388 -0.1621  0.1052
  116MOL    H8216412   4.597   7.644   2.721 -1.2342 -1.3587 -1.5106
  116MOL    H8316413   4.449   7.440   2.656  0.2069 -2.0661  0.4189
  116MOL    H8416414   4.349   7.588   2.696  0.2156  0.2524  1.7320
  116MOL    H8516415   4.377   7.460   2.815  3.1157  1.5463  2.3386
  116MOL    C8616416   4.562   7.765   2.950  0.3697 -0.1179  0.5803
  116MOL    C8716417   4.490   7.900   2.919  0.1696  0.8820  0.2276
  116MOL    O8816418   4.553   7.754   3.088 -0.1994 -0.2904 -1.0274
  116MOL    H8916419   4.665   7.768   2.914  0.2301  0.0311  0.1803
  116MOL    H9016420   4.501   7.905   2.810  1.8559  0.6809  0.3804
  116MOL    H9116421   4.541   0.073   2.960  0.7405  0.1663  1.0385
  116MOL    H9216422   4.388   7.886   2.956  1.1018  0.5161  2.7284
  116MOL    C9316423   4.647   7.661   3.137  0.4030 -0.2143 -0.4468
  116MOL    C9416424   4.760   7.734   3.212  1.1021  0.8822  0.4514
  116MOL    O9516425   4.584   7.573   3.236 -0.3136  0.3666  0.2711
  116MOL    H9616426   4.687   7.596   3.060  0.7636  0.7208 -1.0536
  116MOL    H9716427   4.816   7.790   3.137  1.1106  1.2745  0.7471
  116MOL    H9816428   4.826   7.664   3.263 -1.1132 -1.3152  0.3660
  116MOL    H9916429   4.717   7.797   3.290 -1.2745  0.9216 -0.8427
  116MOL   C10016430   4.475   7.499   3.189  0.3058 -0.8578  0.3925
  116MOL   C10116431   4.523   7.359   3.197 -0.2985 -0.1625  0.0931
  116MOL   O10216432   4.364   7.506   3.278 -0.6632  0.1933  0.6495
  116MOL   H10316433   4.445   7.529   3.089  1.3904 -1.1804 -0.0430
  116MOL   H10416434   4.441   7.291   3.174  0.0101  0.0543 -1.7657
  116MOL   H10516435   4.548   7.329   3.298  0.5507 -2.8081 -0.8526
  116MOL   H10616436   4.616   7.343   3.141  0.1667 -0.7906  1.0311
  116MOL   C10716437   4.297   7.625   3.276 -0.4535 -0.4906 -0.0471
  116MOL   C10816438   4.156   7.585   3.259 -0.0529  0.3538  0.0600
  116MOL   O10916439   4.306   7.678   3.405 -0.4619 -0.6313 -0.1351
  116MOL   H11016440   4.326   7.698   3.200  0.9244  0.0677  0.9838
  116MOL   H11116441   4.142   7.529   3.166 -2.3696  0.6400  0.2075
  116MOL   H11216442   4.098   7.677   3.251  1.3376  1.3240  0.9535
  116MOL   H11316443   4.117   7.524   3.340 -0.2401 -3.2155 -2.5905
  116MOL   C11416444   4.416   7.749   3.441 -0.0726  0.1286  0.5401
  116MOL   C11516445   4.403   7.902   3.406 -0.9319  0.8435  0.6597
  116MOL   O11616446   4.436   7.736   3.579 -0.3631  0.1852  1.2300
  116MOL   H11716447   4.501   7.706   3.388  0.7069  1.1555  0.9378
  116MOL   H11816448   4.507   0.016   3.419 -0.3821 -0.6024 -0.4935
  116MOL   H11916449   4.323   0.030   3.467 -1.4261 -0.6526  1.0499
  116MOL   H12016450   4.388   0.000   3.298  2.3206 -0.9557 -0.0682
  116MOL   C12116451   4.528   7.635   3.611 -0.9110 -0.4712  0.1231
  116MOL   C12216452   4.672   7.688   3.609  0.3527 -0.6153  0.0377
  116MOL   O12316453   4.510   7.598   3.744  0.6504 -0.3819 -0.2110
  116MOL   H12416454   4.520   7.551   3.543  0.7967 -1.9241  1.6751
  116MOL   H12516455   4.684   7.751   3.521  0.2606  0.9808  1.1409
  116MOL   H12616456   4.754   7.616   3.612  0.2819 -0.7778 -1.4826
  116MOL   H12716457   4.683   7.751   3.697 -0.0240 -0.0074 -0.3494
  116MOL   C12816458   4.383   7.534   3.769 -0.0507 -0.1745  0.2389
  116MOL   C12916459   4.421   7.386   3.769 -0.2936 -0.8553 -0.3495
  116MOL   O13016460   4.329   7.572   3.886  0.5340 -0.7451  0.1870
  116MOL   H13116461   4.316   7.557   3.686  0.9188 -1.6605 -0.9827
  116MOL   H13216462   4.469   7.367   3.673 -1.0191  1.1613 -1.1484
  116MOL   H13316463   4.335   7.322   3.788 -0.6775 -0.3267 -0.2944
  116MOL   H13416464   4.501   7.363   3.839  1.4650 -0.7722 -2.2788
  116MOL   C13516465   4.301   7.708   3.891  0.8165  0.2928  0.0878
  116MOL   C13616466   4.216   7.734   4.016  0.6880  0.9383  0.0647
  116MOL   O13716467   4.416   7.788   3.926  0.5609  0.1795 -0.0858
  116MOL   H13816468   4.260   7.752   3.800  0.2232 -1.7135 -0.6370
  116MOL   H13916469   4.189   7.840   4.015  0.4285  0.8698 -2.5484
  116MOL   H14016470   4.263   7.704   4.110  1.0001  1.4860  0.0834
  116MOL   H14116471   4.120   7.684   4.003  1.2728  0.5767 -3.2342
  116MOL   H14216472   4.463   7.805   3.846 -0.5340  2.9429 -0.1967
  117MOL     C116473   2.195   7.341   6.860 -0.0012 -0.8926 -0.5171
  117MOL     C216474   2.307   7.419   6.927 -0.1311 -0.5512 -0.3957
  117MOL     O316475   2.139   7.425   6.764  0.0216 -0.5302 -0.1145
  117MOL     H416476   2.128   7.311   6.941  2.6326 -0.9446  1.7522
  117MOL     H516477   2.271   7.512   6.972 -0.7190 -0.9401 -0.0578
  117MOL     H616478   2.378   7.440   6.847 -0.6069 -0.8259 -0.8941
  117MOL     H716479   2.356   7.363   7.007 -1.0660  2.5657  2.5141
  117MOL     H816480   2.240   7.258   6.807  1.7690 -0.3099  0.0230
  117MOL     C916481   2.042   7.361   6.682 -0.0716  0.1862  0.2486
  117MOL    C1016482   1.912   7.337   6.762  0.1452 -0.2050  0.6956
  117MOL    O1116483   2.007   7.437   6.565  0.0954 -0.9304 -0.3611
  117MOL    H1216484   2.081   7.262   6.658  0.5856  0.6643 -0.6990
  117MOL    H1316485   1.870   7.431   6.798 -2.1548 -0.1188 -2.0157
  117MOL    H1416486   1.934   7.274   6.848 -0.3968  1.5496  2.1460
  117MOL    H1516487   1.851   7.282   6.691 -1.1253  0.5359  1.1918
  117MOL    C1616488   2.117   7.456   6.474 -0.6236 -0.2652 -0.2778
  117MOL    C1716489   2.085   7.399   6.335  0.2451 -0.0096 -0.5815
  117MOL    O1816490   2.140   7.589   6.449  0.1135  0.2942  0.2125
  117MOL    H1916491   2.211   7.415   6.511  0.7516  1.4886 -1.7510
  117MOL    H2016492   2.074   7.291   6.346 -0.4898  0.0850 -0.3962
  117MOL    H2116493   2.168   7.425   6.268  1.6024 -0.8667  0.7368
  117MOL    H2216494   1.995   7.451   6.302 -0.6858 -0.3212  1.4022
  117MOL    C2316495   2.230   7.651   6.533  0.3750  0.4200  0.5753
  117MOL    C2416496   2.346   7.673   6.435  0.1365  0.2157 -0.2199
  117MOL    O2516497   2.173   7.778   6.568 -0.1650 -0.2343 -0.2710
  117MOL    H2616498   2.266   7.593   6.618  1.3083  1.8009  1.1253
  117MOL    H2716499   2.387   7.575   6.410 -0.2542 -0.6352  2.3445
  117MOL    H2816500   2.423   7.731   6.486 -0.3797 -0.2939  1.1441
  117MOL    H2916501   2.314   7.721   6.342 -0.3396 -0.8378 -0.6033
  117MOL    C3016502   2.104   7.774   6.691 -0.6728  0.2071  0.3184
  117MOL    C3116503   2.212   7.804   6.800 -0.4503  0.0391 -0.4761
  117MOL    O3216504   2.008   7.878   6.703 -0.3820  0.2640  0.1022
  117MOL    H3316505   2.061   7.678   6.719  1.4411 -0.3543  1.7296
  117MOL    H3416506   2.177   7.818   6.903 -0.2413  2.8346 -0.7476
  117MOL    H3516507   2.257   7.898   6.769 -0.9224  1.1814  2.1603
  117MOL    H3616508   2.291   7.729   6.801  0.4948  1.0185  1.0657
  117MOL    C3716509   1.872   7.839   6.682  0.3043 -1.2021  0.1046
  117MOL    C3816510   1.794   7.889   6.798 -0.2277  0.3605  0.4832
  117MOL    O3916511   1.806   7.895   6.573 -0.5133 -0.0730 -0.5245
  117MOL    H4016512   1.865   7.731   6.690  1.0538 -1.1017  2.6220
  117MOL    H4116513   1.688   7.866   6.787  0.0272 -1.8611  2.1686
  117MOL    H4216514   1.792   0.083   6.808  0.0006  0.2923  1.3440
  117MOL    H4316515   1.818   7.842   6.894 -1.0243 -0.4586  0.2890
  117MOL    C4416516   1.851   7.846   6.455 -0.5244  0.1011 -0.1041
  117MOL    C4516517   1.766   7.731   6.406 -0.9170  0.3342  0.6353
  117MOL    O4616518   1.849   0.033   6.363 -0.1968 -0.1779 -0.9261
  117MOL    H4716519   1.952   7.805   6.456  0.0866  1.5855  1.1479
  117MOL    H4816520   1.772   7.657   6.486  2.0478  1.0475  1.1198
  117MOL    H4916521   1.797   7.691   6.310 -1.7641  0.0909  0.4578
  117MOL    H5016522   1.666   7.769   6.385 -0.8738  0.2296  0.2526
  117MOL    C5116523   1.939   0.141   6.389 -0.3623  0.2602 -0.2316
  117MOL    C5216524   2.056   0.136   6.283  0.2567  0.3114  0.1262
  117MOL    O5316525   1.875   0.261   6.378  0.2219 -0.1452  0.2011
  117MOL    H5416526   1.986   0.138   6.487 -2.2783 -1.9325  0.6627
  117MOL    H5516527   2.126   0.055   6.304  0.5259 -0.0284 -1.9141
  117MOL    H5616528   2.113   0.229   6.284 -1.1773  1.2516 -1.5767
  117MOL    H5716529   2.007   0.131   6.185 -2.7122  0.0930  1.5628
  117MOL    C5816530   1.778   0.285   6.472  0.4679  0.8017  0.2643
  117MOL    C5916531   1.820   0.414   6.545 -0.3852  0.6322  0.2010
  117MOL    O6016532   1.662   0.316   6.414  0.0264  0.5373  0.5198
  117MOL    H6116533   1.767   0.214   6.555 -2.4656  0.6740 -0.1767
  117MOL    H6216534   1.910   0.385   6.598  0.0703  1.0802 -0.3208
  117MOL    H6316535   1.750   0.433   6.626  1.5417  0.9678  1.8039
  117MOL    H6416536   1.822   0.499   6.477 -0.4627  1.5941  1.3879
  117MOL    C6516537   1.580   0.214   6.371  0.2189  0.3790 -0.2894
  117MOL    C6616538   1.452   0.251   6.446  0.3103  0.1351  0.1994
  117MOL    O6716539   1.544   0.217   6.241 -0.5626 -0.6029  0.6416
  117MOL    H6816540   1.616   0.117   6.407  0.3726 -0.2356 -2.0409
  117MOL    H6916541   1.382   0.183   6.397  1.6208 -1.4128  0.4508
  117MOL    H7016542   1.427   0.354   6.420  1.3653  0.7349  1.5183
  117MOL    H7116543   1.464   0.234   6.553 -1.7039  1.4081  0.6614
  117MOL    C7216544   1.645   0.177   6.156  0.0842 -0.5507 -0.2572
  117MOL    C7316545   1.631   0.025   6.129  0.2513 -0.3119 -0.4382
  117MOL    O7416546   1.650   0.255   6.043  0.2893 -0.0685 -0.3457
  117MOL    H7516547   1.743   0.191   6.203  0.0848  0.5121 -0.5445
  117MOL    H7616548   1.542   0.023   6.066 -1.1295 -0.8548  1.5024
  117MOL    H7716549   1.610   7.888   6.223 -0.1944 -0.4863 -0.6329
  117MOL    H7816550   1.723   7.897   6.087  0.7333 -0.3058  0.5972
  117MOL    C7916551   1.694   0.384   6.081 -0.6264  0.7097  0.0891
  117MOL    C8016552   1.839   0.400   6.023 -0.3746 -0.8981 -0.1430
  117MOL    O8116553   1.611   0.483   6.019 -0.3930  0.6265  0.3125
  117MOL    H8216554   1.695   0.406   6.188  0.9919  2.6604 -0.2806
  117MOL    H8316555   1.840   0.385   5.915 -3.5561  2.0543 -0.6416
  117MOL    H8416556   1.894   0.318   6.069  1.5780  0.8819  0.8294
  117MOL    H8516557   1.892   0.491   6.053 -3.2444 -0.0368  2.5690
  117MOL    C8616558   1.489   0.487   6.076 -0.0997 -0.2011  0.0160
  117MOL    C8716559   1.477   0.629   6.134 -0.1209 -0.3034 -0.2207
  117MOL    O8816560   1.377   0.475   5.989 -0.0528 -0.4095 -0.8373
  117MOL    H8916561   1.466   0.426   6.162 -0.9904 -0.4715 -0.4069
  117MOL    H9016562   1.402   0.624   6.213  1.5974 -2.7292  1.3195
  117MOL    H9116563   1.451   0.703   6.058  0.9375  1.2357  0.8850
  117MOL    H9216564   1.570   0.657   6.184 -0.4215 -0.5043  0.4557
  117MOL    C9316565   1.341   0.341   5.957 -0.4591 -0.5650  0.1965
  117MOL    C9416566   1.208   0.311   6.018  0.3939 -0.3453  0.1437
  117MOL    O9516567   1.330   0.322   5.818 -0.3748 -0.4147 -0.4260
  117MOL    H9616568   1.416   0.273   5.997 -0.8096 -0.2072  1.4841
  117MOL    H9716569   1.181   0.208   5.993 -0.3577 -0.8670  2.8668
  117MOL    H9816570   1.120   0.371   5.992  1.7960  1.6020 -0.1768
  117MOL    H9916571   1.219   0.308   6.127 -2.8572  1.9865  0.6056
  117MOL   C10016572   1.447   0.339   5.749 -0.4210 -0.1304  0.4621
  117MOL   C10116573   1.478   0.201   5.690  0.2152  0.3415 -0.0605
  117MOL   O10216574   1.434   0.433   5.643  0.0443 -0.2405  0.5037
  117MOL   H10316575   1.528   0.378   5.811 -0.9291  1.8307 -0.0469
  117MOL   H10416576   1.575   0.198   5.642  0.2791 -2.3251  0.1352
  117MOL   H10516577   1.393   0.167   5.630  0.8574 -2.1344  0.3669
  117MOL   H10616578   1.488   0.129   5.772  5.6845  0.6699 -0.2441
  117MOL   C10716579   1.430   0.570   5.682  0.3231 -0.3806 -0.2400
  117MOL   C10816580   1.555   0.644   5.619 -0.1849 -0.3946  0.4068
  117MOL   O10916581   1.320   0.633   5.630  0.0097  0.2243  0.2860
  117MOL   H11016582   1.436   0.581   5.791  1.8990  1.5618 -0.4851
  117MOL   H11116583   1.556   0.619   5.513  3.2741 -3.6544  1.0876
  117MOL   H11216584   1.641   0.598   5.668  0.2058 -1.1266 -0.9276
  117MOL   H11316585   1.561   0.750   5.644  0.5313 -0.2624 -0.3045
  117MOL   C11416586   1.207   0.612   5.707  0.1622  0.1083  0.4734
  117MOL   C11516587   1.174   0.736   5.788 -0.4312  0.7824 -0.1454
  117MOL   O11616588   1.090   0.585   5.622 -0.1143 -0.3842  0.5506
  117MOL   H11716589   1.218   0.531   5.779  0.7689  0.3991  0.7124
  117MOL   H11816590   1.263   0.799   5.784  1.0271 -1.2615 -0.6326
  117MOL   H11916591   1.156   0.708   5.891 -1.6471 -0.2859 -0.6394
  117MOL   H12016592   1.081   0.790   5.768  0.7751  2.9487 -0.0020
  117MOL   C12116593   1.062   0.444   5.599 -0.2857 -0.5457 -0.1446
  117MOL   C12216594   0.927   0.407   5.672  0.4582 -0.3574  0.3926
  117MOL   O12316595   1.040   0.416   5.470  0.7322 -0.1154 -0.2089
  117MOL   H12416596   1.148   0.385   5.630  2.9353  3.2724 -1.3606
  117MOL   H12516597   0.932   0.436   5.777 -1.6250 -0.1267  0.4421
  117MOL   H12616598   0.914   0.299   5.670  0.2258 -0.3190 -0.9797
  117MOL   H12716599   0.841   0.465   5.637  0.0832  0.2660  2.2977
  117MOL   C12816600   1.147   0.430   5.388 -0.7984 -0.4695 -0.8315
  117MOL   C12916601   1.194   0.290   5.334 -0.7136 -0.1012  0.3791
  117MOL   O13016602   1.123   0.511   5.280 -0.0170 -0.1711  0.5177
  117MOL   H13116603   1.236   0.468   5.438 -1.0131 -0.9321 -0.1015
  117MOL   H13216604   1.285   0.312   5.279  1.1850 -2.9560  2.2229
  117MOL   H13316605   1.123   0.256   5.258  0.9436 -1.3621 -0.6417
  117MOL   H13416606   1.217   0.220   5.414  2.6300 -0.0393 -0.4800
  117MOL   C13516607   1.151   0.645   5.306 -0.4100  0.0889  1.1179
  117MOL   C13616608   1.151   0.712   5.166  0.5014  0.4076 -0.1808
  117MOL   O13716609   1.055   0.704   5.389  0.3784 -0.1239  0.0647
  117MOL   H13816610   1.252   0.654   5.345 -0.1730  1.7167  0.1409
  117MOL   H13916611   1.182   0.816   5.174 -0.9574  0.9256 -1.1057
  117MOL   H14016612   1.047   0.728   5.137  1.2105  1.5335 -2.1986
  117MOL   H14116613   1.213   0.659   5.093 -2.0826 -1.1203 -1.3318
  117MOL   H14216614   1.059   0.655   5.470  0.9671 -1.8402 -0.9749
  118MOL     C116615   3.255   5.180   4.883  0.2761  0.8065  0.2717
  118MOL     C216616   3.242   5.324   4.941  0.9628  0.9955 -0.8635
  118MOL     O316617   3.352   5.182   4.781 -0.0294  0.2307  0.3385
  118MOL     H416618   3.159   5.154   4.840  0.5676  0.1466  0.0012
  118MOL     H516619   3.342   5.345   4.978  0.3644  1.5016  0.5098
  118MOL     H616620   3.187   5.320   5.035 -0.3081 -5.4617 -1.6335
  118MOL     H716621   3.213   5.400   4.868  0.9184 -0.4574 -2.4043
  118MOL     H816622   3.285   5.103   4.955  1.6403  0.7908 -0.2984
  118MOL     C916623   3.350   5.071   4.694 -0.4175  1.1554 -0.0631
  118MOL    C1016624   3.423   5.114   4.572  0.0111 -0.4663  0.3463
  118MOL    O1116625   3.422   4.969   4.762  0.1209 -0.0842  0.2364
  118MOL    H1216626   3.254   5.029   4.665  0.3778 -0.0869 -0.9568
  118MOL    H1316627   3.386   5.210   4.538  1.3204 -0.6990 -1.8676
  118MOL    H1416628   3.418   5.032   4.499  2.1865 -1.3711  1.1664
  118MOL    H1516629   3.526   5.128   4.604  0.9067  0.0939 -2.6077
  118MOL    C1616630   3.366   4.841   4.751 -0.1062  0.2888 -0.7660
  118MOL    C1716631   3.456   4.756   4.838 -0.4666  0.3634 -0.0960
  118MOL    O1816632   3.242   4.839   4.817 -0.1291 -0.5753  0.0200
  118MOL    H1916633   3.358   4.820   4.645  1.5061 -0.8698 -0.6827
  118MOL    H2016634   3.451   4.805   4.935 -1.6297 -0.4217  0.2541
  118MOL    H2116635   3.562   4.759   4.813 -0.4500  2.3331  0.1265
  118MOL    H2216636   3.426   4.651   4.847 -0.2615  0.4920  2.3619
  118MOL    C2316637   3.153   4.758   4.747  0.2890  0.6338 -0.2887
  118MOL    C2416638   3.044   4.704   4.838  0.3738 -0.4997  0.2353
  118MOL    O2516639   3.090   4.824   4.639 -0.2466 -0.1349  0.3571
  118MOL    H2616640   3.207   4.669   4.714 -1.2532 -0.3878 -0.1203
  118MOL    H2716641   3.080   4.635   4.914  1.8754 -0.7353 -0.6764
  118MOL    H2816642   2.971   4.661   4.770  0.3704 -0.3070  0.1156
  118MOL    H2916643   2.987   4.783   4.889 -4.1474 -3.2189 -0.3037
  118MOL    C3016644   3.109   4.755   4.515  0.6528  0.0546  0.1698
  118MOL    C3116645   3.000   4.809   4.417 -0.1359 -0.5286  0.7308
  118MOL    O3216646   3.238   4.786   4.460  0.6555  0.2351 -0.4816
  118MOL    H3316647   3.097   4.649   4.533  0.5853 -0.2940 -1.8392
  118MOL    H3416648   3.013   4.788   4.311 -1.3502 -1.0995  0.6862
  118MOL    H3516649   2.999   4.918   4.427  0.0548 -0.2113 -2.2583
  118MOL    H3616650   2.910   4.763   4.459 -0.4788 -0.4563  0.0733
  118MOL    C3716651   3.304   4.676   4.404 -0.1559 -0.0311  0.7674
  118MOL    C3816652   3.427   4.717   4.313 -0.2016  0.0613  0.0368
  118MOL    O3916653   3.360   4.599   4.507 -0.5302 -0.0489 -0.2994
  118MOL    H4016654   3.233   4.613   4.351  1.3578 -1.0364 -0.0982
  118MOL    H4116655   3.513   4.773   4.351  0.2517  0.3532 -1.3498
  118MOL    H4216656   3.391   4.769   4.224 -0.4012  0.9158  0.6112
  118MOL    H4316657   3.480   4.626   4.285 -1.7913 -0.9182  0.1373
  118MOL    C4416658   3.331   4.461   4.507  0.3401 -0.8246 -0.0241
  118MOL    C4516659   3.411   4.394   4.601 -0.2364  0.5084 -0.4261
  118MOL    O4616660   3.200   4.436   4.557  0.1697 -0.4110  0.2930
  118MOL    H4716661   3.348   4.423   4.406 -1.4491  1.5211 -1.2840
  118MOL    H4816662   3.387   4.290   4.625  2.4032 -0.1509 -0.4308
  118MOL    H4916663   3.401   4.447   4.696 -3.2984 -1.2860  0.3122
  118MOL    H5016664   3.517   4.403   4.576 -0.0401 -0.7064 -0.0944
  118MOL    C5116665   3.132   4.358   4.470 -0.2853  0.2685 -0.4421
  118MOL    C5216666   3.010   4.305   4.541 -0.0968  0.0799  0.6506
  118MOL    O5316667   3.077   4.434   4.373  0.2741 -0.6916 -0.2881
  118MOL    H5416668   3.195   4.277   4.432  1.8781  2.1265 -0.9123
  118MOL    H5516669   2.960   4.249   4.462 -0.0946  0.5043  0.3448
  118MOL    H5616670   2.944   4.386   4.572 -1.5911 -0.5416 -0.8167
  118MOL    H5716671   3.034   4.252   4.634 -0.0092 -1.1150 -0.0395
  118MOL    C5816672   3.075   4.381   4.241  0.0257  0.2975  0.2689
  118MOL    C5916673   2.972   4.462   4.168  0.1201 -0.2993  0.9292
  118MOL    O6016674   3.181   4.418   4.169 -0.4692  0.2170  0.4413
  118MOL    H6116675   3.034   4.280   4.236 -1.5633  0.9544 -0.2855
  118MOL    H6216676   2.960   4.565   4.203 -1.3579  0.4068 -1.5492
  118MOL    H6316677   2.876   4.411   4.167 -0.1981  0.2298 -2.9103
  118MOL    H6416678   2.991   4.462   4.061  3.1302  1.1215  1.4054
  118MOL    C6516679   3.231   4.304   4.097  0.3012  0.1378 -0.4930
  118MOL    C6616680   3.340   4.364   4.007 -0.6632 -0.2545  0.8107
  118MOL    O6716681   3.294   4.215   4.183 -0.0712  0.4263  0.4579
  118MOL    H6816682   3.157   4.247   4.040  0.1172 -0.3557  0.2387
  118MOL    H6916683   3.427   4.389   4.069 -0.2544  2.1712 -0.7067
  118MOL    H7016684   3.313   4.456   3.957  0.7742  0.2172  0.8757
  118MOL    H7116685   3.369   4.284   3.939  0.9966 -0.7025  1.9783
  118MOL    C7216686   3.247   4.084   4.195  1.2504  0.1065  0.3543
  118MOL    C7316687   3.344   4.008   4.291  0.2383 -0.0141 -0.4078
  118MOL    O7416688   3.133   4.078   4.263  0.4299 -0.2750 -0.1513
  118MOL    H7516689   3.241   4.035   4.098  1.5627  1.2673 -0.2559
  118MOL    H7616690   3.370   4.041   4.392 -0.9370 -2.6769  0.8042
  118MOL    H7716691   3.437   4.003   4.234  1.4430  0.8047  1.3954
  118MOL    H7816692   3.300   3.909   4.291  1.6133 -0.6320  0.0077
  118MOL    C7916693   3.035   3.997   4.206  0.2982  0.0430 -0.8162
  118MOL    C8016694   2.937   3.964   4.320 -0.3611  0.5913  0.7514
  118MOL    O8116695   2.959   4.069   4.117  0.3284  0.3671  0.7407
  118MOL    H8216696   3.082   3.906   4.170 -0.7398 -0.7038 -0.3186
  118MOL    H8316697   2.986   3.904   4.396  0.7677  2.4156  1.4818
  118MOL    H8416698   2.854   3.903   4.284  0.8333 -1.0918  0.7978
  118MOL    H8516699   2.905   4.061   4.358  1.1765 -0.0137  3.6825
  118MOL    C8616700   2.935   4.010   3.993 -0.5973 -0.6846  0.4044
  118MOL    C8716701   2.808   4.075   3.945  0.1990 -0.3088 -0.2192
  118MOL    O8816702   3.038   4.041   3.907  0.8592 -0.6197  0.3740
  118MOL    H8916703   2.916   3.903   4.000  1.7058 -1.2630 -1.3787
  118MOL    H9016704   2.811   4.183   3.955  0.9414 -0.4304  0.8780
  118MOL    H9116705   2.728   4.045   4.013  0.9742 -3.4259 -0.6094
  118MOL    H9216706   2.784   4.059   3.840 -0.0409  2.6173 -0.6464
  118MOL    C9316707   3.099   3.929   3.849 -0.8730  0.2778 -0.4539
  118MOL    C9416708   3.194   3.991   3.741 -0.3155  0.0505 -0.4627
  118MOL    O9516709   3.171   3.860   3.947  0.2132 -0.6887  0.3706
  118MOL    H9616710   3.020   3.872   3.800 -0.9725 -0.0572  0.0981
  118MOL    H9716711   3.235   3.913   3.678 -0.5596 -0.2128 -0.2971
  118MOL    H9816712   3.279   4.046   3.782  0.3800 -1.1347 -0.3052
  118MOL    H9916713   3.131   4.060   3.683 -0.2536  1.5845  1.2296
  118MOL   C10016714   3.178   3.727   3.913 -0.2326 -0.3754  0.6806
  118MOL   C10116715   3.290   3.670   3.993  0.4539 -0.3054  0.3736
  118MOL   O10216716   3.066   3.655   3.956  0.1076 -0.2135 -0.2962
  118MOL   H10316717   3.205   3.703   3.810  2.4831  3.0114  0.4918
  118MOL   H10416718   3.381   3.721   3.961  0.1787 -0.2411 -0.3064
  118MOL   H10516719   3.308   3.564   3.978  0.2483 -0.0516 -1.7394
  118MOL   H10616720   3.265   3.703   4.094 -0.6649  0.4054 -0.1221
  118MOL   C10716721   3.010   3.572   3.858 -0.1110 -0.2556  0.3401
  118MOL   C10816722   2.883   3.522   3.922 -0.6722  0.1470  0.7361
  118MOL   O10916723   2.972   3.640   3.734 -0.6224 -1.1938  0.2050
  118MOL   H11016724   3.091   3.499   3.848  0.6173  0.7813 -1.7778
  118MOL   H11116725   2.903   3.492   4.025 -0.2117  1.5897  1.0790
  118MOL   H11216726   2.858   3.430   3.868 -0.7290 -1.2929  3.1371
  118MOL   H11316727   2.796   3.580   3.892 -0.4220  0.3826  0.4621
  118MOL   C11416728   2.992   3.555   3.626  0.2832  0.5586  0.2559
  118MOL   C11516729   2.959   3.631   3.498 -0.4979  0.9039 -0.3653
  118MOL   O11616730   3.125   3.512   3.614 -0.0776 -0.3115 -0.3580
  118MOL   H11716731   2.925   3.470   3.637  1.4897 -0.4426  0.0641
  118MOL   H11816732   2.859   3.674   3.494 -1.7058 -1.8777 -1.4088
  118MOL   H11916733   2.977   3.581   3.403 -0.9497  1.3256 -0.6748
  118MOL   H12016734   3.017   3.724   3.494 -1.4383  1.4825 -0.7282
  118MOL   C12116735   3.146   3.377   3.590 -0.3343  0.6934 -0.5410
  118MOL   C12216736   3.296   3.356   3.625 -0.1838  0.1104 -0.0537
  118MOL   O12316737   3.082   3.299   3.690  0.1063  0.9967 -0.3379
  118MOL   H12416738   3.124   3.352   3.486 -0.6698 -2.9176  0.3301
  118MOL   H12516739   3.363   3.412   3.559 -0.8833 -1.8729 -2.5523
  118MOL   H12616740   3.314   3.249   3.614  3.5628  0.6368  0.1259
  118MOL   H12716741   3.323   3.384   3.727 -0.8196  2.6363 -0.5523
  118MOL   C12816742   3.006   3.189   3.655  0.0668  0.0183 -0.5194
  118MOL   C12916743   2.937   3.136   3.776  0.2572 -0.1749 -0.6708
  118MOL   O13016744   2.921   3.215   3.554  0.0568 -0.6329  0.1742
  118MOL   H13116745   3.077   3.115   3.616  0.7399 -0.2800  1.2046
  118MOL   H13216746   2.885   3.216   3.829  0.1647 -1.5667  1.4330
  118MOL   H13316747   3.015   3.112   3.849 -1.1220  0.1985  0.9533
  118MOL   H13416748   2.874   3.048   3.767  2.9945 -2.3483  0.6625
  118MOL   C13516749   2.918   3.121   3.443  0.9673  0.7299 -0.1995
  118MOL   C13616750   2.798   3.165   3.369  0.1011  0.2393  0.3492
  118MOL   O13716751   3.032   3.127   3.358  0.1633 -0.2867 -0.7296
  118MOL   H13816752   2.905   3.019   3.480  0.8996  1.1947  1.1104
  118MOL   H13916753   2.806   3.266   3.329 -0.4094 -0.0365 -0.4516
  118MOL   H14016754   2.718   3.155   3.443  0.6413 -1.7405  0.6949
  118MOL   H14116755   2.791   3.087   3.294 -0.8377 -0.0149  0.6932
  118MOL   H14216756   3.098   3.064   3.379  0.5368 -0.0066 -1.0591
  119MOL     C116757   7.401   3.995   6.075  0.1175 -0.7188 -0.3108
  119MOL     C216758   7.461   4.108   5.991  0.8762  0.4894 -0.3525
  119MOL     O316759   7.310   4.058   6.170 -0.1003 -0.0068 -0.3449
  119MOL     H416760   7.481   3.960   6.139  0.0361 -0.9957 -0.3572
  119MOL     H516761   7.504   4.191   6.046  0.2598  1.0473 -0.7130
  119MOL     H616762   7.393   4.147   5.915  1.7289  0.6306 -1.0389
  119MOL     H716763   7.544   4.081   5.926  2.7581  1.7287  1.4559
  119MOL     H816764   7.366   3.910   6.016 -0.8108 -0.3858 -0.2567
  119MOL     C916765   7.273   3.976   6.281 -0.5944  0.6496 -0.6526
  119MOL    C1016766   7.216   3.844   6.235 -0.6807  0.3729  0.2810
  119MOL    O1116767   7.382   3.949   6.364 -0.1821 -0.1438 -0.2295
  119MOL    H1216768   7.199   4.040   6.330 -0.4422  0.0864  0.3131
  119MOL    H1316769   7.283   3.785   6.172  1.1288  1.6822  0.9213
  119MOL    H1416770   7.135   3.876   6.170  1.6010  1.5017 -2.1244
  119MOL    H1516771   7.190   3.781   6.320  2.0795 -1.7854 -0.4017
  119MOL    C1616772   7.379   4.022   6.482 -0.1366  0.9394  0.4982
  119MOL    C1716773   7.334   3.934   6.602  0.7255  0.3475 -0.3293
  119MOL    O1816774   7.511   4.064   6.519 -0.0822  0.2536 -0.4621
  119MOL    H1916775   7.323   4.115   6.479  1.1779  1.6951 -3.1813
  119MOL    H2016776   7.336   4.001   6.688  0.7779  1.3199 -1.0732
  119MOL    H2116777   7.409   3.858   6.625  1.4271  1.2613  0.4913
  119MOL    H2216778   7.234   3.895   6.586  0.2940  1.3057 -0.0013
  119MOL    C2316779   7.572   4.153   6.437 -0.1590 -0.1035  0.4067
  119MOL    C2416780   7.545   4.297   6.489 -0.7265  0.0837  0.1404
  119MOL    O2516781   7.711   4.131   6.435  0.1394  0.3968  0.1508
  119MOL    H2616782   7.545   4.156   6.331  0.5295 -0.9955  0.1982
  119MOL    H2716783   7.584   4.318   6.588  1.1485 -0.6092 -0.4396
  119MOL    H2816784   7.438   4.320   6.495 -0.5284  0.5157  2.4318
  119MOL    H2916785   7.593   4.372   6.425  1.2061 -0.2535  1.1630
  119MOL    C3016786   7.745   4.004   6.390  0.4325  0.3174 -0.3532
  119MOL    C3116787   7.833   4.019   6.263 -0.0447 -0.2693  0.4344
  119MOL    O3216788   7.821   3.932   6.480  0.0003  0.3732 -0.1986
  119MOL    H3316789   7.654   3.947   6.375  0.1499  0.2233  1.5919
  119MOL    H3416790   7.841   3.935   6.194 -1.2785  0.1705 -0.2565
  119MOL    H3516791   0.017   4.058   6.292  0.2262 -0.0941 -0.6706
  119MOL    H3616792   7.790   4.098   6.201 -0.5944  1.4394  2.9150
  119MOL    C3716793   7.761   3.897   6.598 -0.8477  0.0317  0.2909
  119MOL    C3816794   7.694   3.765   6.586  0.0700 -0.1297 -0.0432
  119MOL    O3916795   7.859   3.886   6.695  0.1073  0.2666  0.1440
  119MOL    H4016796   7.689   3.976   6.619  0.8184  1.4887  0.6729
  119MOL    H4116797   7.753   3.674   6.589  2.6220  1.5185  1.4659
  119MOL    H4216798   7.641   3.754   6.492 -1.7249 -0.1858  0.9621
  119MOL    H4316799   7.624   3.758   6.669 -2.0175 -2.3400 -1.9253
  119MOL    C4416800   7.900   4.010   6.747  0.7684 -0.1194  0.0315
  119MOL    C4516801   7.859   4.021   6.896 -0.9888 -0.2869  0.4448
  119MOL    O4616802   0.121   4.018   6.736  0.5012 -0.4411 -0.3386
  119MOL    H4716803   7.866   4.091   6.682  3.1144 -1.0876 -2.5070
  119MOL    H4816804   7.756   3.985   6.907 -1.5397  1.6773  1.9020
  119MOL    H4916805   7.863   4.119   6.943 -2.3092 -1.0831  2.2779
  119MOL    H5016806   0.003   3.955   6.960  0.9565  0.1197 -0.8552
  119MOL    C5116807   0.174   4.043   6.614  0.5756 -0.2482 -0.3520
  119MOL    C5216808   0.214   4.192   6.616  0.2567  0.1080 -0.4775
  119MOL    O5316809   0.290   3.971   6.589  0.8513 -0.0814 -0.6903
  119MOL    H5416810   0.106   4.029   6.530  2.3582  1.4467 -2.1224
  119MOL    H5516811   0.289   4.224   6.689 -1.3983 -0.3025  1.4370
  119MOL    H5616812   0.125   4.253   6.628  0.0957 -0.3515  0.7741
  119MOL    H5716813   0.265   4.219   6.524 -0.2320 -2.1206 -1.4325
  119MOL    C5816814   0.263   3.830   6.569 -0.4648 -0.3706  0.0014
  119MOL    C5916815   0.332   3.804   6.431 -0.1840  0.2961 -0.3381
  119MOL    O6016816   0.340   3.750   6.658  0.3281  0.5239 -0.1908
  119MOL    H6116817   0.161   3.795   6.559  0.4140 -2.6532 -1.3260
  119MOL    H6216818   0.425   3.861   6.435 -1.1294  1.8499 -0.1711
  119MOL    H6316819   0.265   3.841   6.353 -0.4346  1.7970  0.5740
  119MOL    H6416820   0.334   3.696   6.415 -0.2104 -0.1649  2.5254
  119MOL    C6516821   0.267   3.715   6.772  0.1321  0.7070  0.2216
  119MOL    C6616822   0.245   3.557   6.762  0.1843 -0.1256 -0.5428
  119MOL    O6716823   0.347   3.743   6.880  0.3139  0.7751 -0.0486
  119MOL    H6816824   0.168   3.761   6.782 -0.0409 -0.0122  1.8563
  119MOL    H6916825   0.172   3.542   6.841 -0.0429  0.6798 -0.5867
  119MOL    H7016826   0.334   3.498   6.781 -0.6731 -0.8655  1.2563
  119MOL    H7116827   0.199   3.534   6.666  1.3606 -0.7643 -0.9501
  119MOL    C7216828   0.341   3.868   6.924 -0.3888  0.4893 -0.4071
  119MOL    C7316829   0.281   3.865   7.057 -0.8693 -0.3031  0.5165
  119MOL    O7416830   0.473   3.910   6.940 -0.4196  0.4036 -0.2288
  119MOL    H7516831   0.290   3.932   6.853  0.8413  0.4595 -1.3307
  119MOL    H7616832   0.254   3.965   7.090  2.0551  0.1952  1.5811
  119MOL    H7716833   0.351   3.817   7.126  1.3048  2.3942  0.2786
  119MOL    H7816834   0.193   3.801   7.053  0.1396 -1.6215 -1.6285
  119MOL    C7916835   0.538   3.942   6.827 -0.3333 -0.1920  0.5004
  119MOL    C8016836   0.566   4.088   6.813  0.2562 -0.6567 -0.1465
  119MOL    O8116837   0.666   3.876   6.820 -0.3423  0.2657 -0.0670
  119MOL    H8216838   0.486   3.911   6.736  0.0684 -1.7441  0.7785
  119MOL    H8316839   0.637   4.109   6.732  2.0520  1.4584  1.8960
  119MOL    H8416840   0.602   4.123   6.910 -0.3683  1.5917 -0.7048
  119MOL    H8516841   0.472   4.131   6.779 -0.2952 -0.9173  1.0468
  119MOL    C8616842   0.663   3.742   6.781 -0.6094  0.2923 -0.1176
  119MOL    C8716843   0.719   3.724   6.639  0.6763 -0.4576  0.3867
  119MOL    O8816844   0.757   3.674   6.862 -0.2054 -0.2749  0.1769
  119MOL    H8916845   0.562   3.703   6.783  0.3774 -2.2793  0.7065
  119MOL    H9016846   0.638   3.771   6.584  0.4929  0.7579  1.6799
  119MOL    H9116847   0.718   3.620   6.604 -1.1627 -0.0617 -0.8097
  119MOL    H9216848   0.818   3.764   6.616 -0.2438  1.6287 -0.0195
  119MOL    C9316849   0.712   3.663   6.990  0.6439  0.4855  0.5004
  119MOL    C9416850   0.690   3.517   7.018  0.6035  0.0117 -0.4384
  119MOL    O9516851   0.800   3.705   7.084 -0.5912 -0.6941  0.6991
  119MOL    H9616852   0.617   3.713   7.005 -0.7782 -1.0444 -3.0500
  119MOL    H9716853   0.642   3.495   7.114  1.3045 -2.1695 -0.5619
  119MOL    H9816854   0.785   3.466   7.005  0.2504 -0.2254 -2.1203
  119MOL    H9916855   0.623   3.481   6.940  0.3221  0.1302 -0.2550
  119MOL   C10016856   0.790   3.844   7.115 -0.3601  0.0442  0.8431
  119MOL   C10116857   0.699   3.852   7.238 -0.4748  0.2569 -0.3726
  119MOL   O10216858   0.914   3.897   7.148 -0.4168  1.0514  0.0225
  119MOL   H10316859   0.751   3.907   7.035 -1.4262 -1.9211 -0.1996
  119MOL   H10416860   0.717   3.943   7.295 -1.8283  0.2308  0.1088
  119MOL   H10516861   0.720   3.765   7.300  3.4551  0.4663 -1.2715
  119MOL   H10616862   0.593   3.842   7.212 -0.4012  0.9172 -0.9347
  119MOL   C10716863   0.994   3.932   7.034  0.3562 -0.0594  0.5792
  119MOL   C10816864   0.979   4.085   7.016 -0.1375  0.0778 -0.1761
  119MOL   O10916865   1.128   3.901   7.064  1.6293 -0.4293  0.5289
  119MOL   H11016866   0.963   3.875   6.946  0.4366  0.3548  0.2772
  119MOL   H11116867   0.879   4.120   6.989  0.4869  0.3073 -2.2998
  119MOL   H11216868   1.059   4.124   6.952  1.5117 -2.3860  0.3277
  119MOL   H11316869   0.989   4.121   7.118 -0.7725 -0.5764  0.1148
  119MOL   C11416870   1.152   3.761   7.051 -0.2491  1.3527  0.3418
  119MOL   C11516871   1.266   3.765   6.949 -0.1461 -0.5451  0.7176
  119MOL   O11616872   1.207   3.707   7.164 -0.1699  0.1434  0.2753
  119MOL   H11716873   1.076   3.693   7.012  1.1288 -0.7427  1.2327
  119MOL   H11816874   1.232   3.821   6.861 -1.4026 -1.5280  0.5682
  119MOL   H11916875   1.299   3.668   6.910 -0.2907 -0.0749 -0.5915
  119MOL   H12016876   1.358   3.810   6.984 -0.5040 -0.2738  1.3123
  119MOL   C12116877   1.120   3.682   7.271 -0.2521 -0.0161  0.4712
  119MOL   C12216878   1.112   3.530   7.297 -1.3845 -0.5733  0.0936
  119MOL   O12316879   1.179   3.738   7.383 -0.4850  0.0122 -0.3133
  119MOL   H12416880   1.017   3.714   7.256  0.7021  2.8351 -0.2010
  119MOL   H12516881   1.211   3.501   7.332 -1.1510 -0.2974 -0.3299
  119MOL   H12616882   1.084   3.472   7.209  1.3697 -1.0835 -0.5009
  119MOL   H12716883   1.043   3.523   7.381 -1.1819 -0.7587  0.2440
  119MOL   C12816884   1.147   3.877   7.401  0.6794 -0.0332  0.7336
  119MOL   C12916885   1.037   3.879   7.505  0.1278  0.2898 -0.3134
  119MOL   O13016886   1.253   3.945   7.452  0.4240 -0.3205  0.1143
  119MOL   H13116887   1.113   3.924   7.309 -0.3962 -2.3432 -0.0831
  119MOL   H13216888   1.022   3.982   7.539 -2.3816  0.5627 -2.0953
  119MOL   H13316889   1.066   3.824   7.594 -3.1677 -0.4723  0.3602
  119MOL   H13416890   0.948   3.823   7.477  0.5590 -0.6714  0.2371
  119MOL   C13516891   1.362   3.947   7.358 -0.1763 -0.0166 -0.3565
  119MOL   C13616892   1.455   4.057   7.412 -0.0172 -0.2828  0.5428
  119MOL   O13716893   1.425   3.819   7.347 -0.1502  0.0685  0.1518
  119MOL   H13816894   1.324   3.966   7.258 -0.6757 -1.2225 -0.4098
  119MOL   H13916895   1.400   4.150   7.422 -1.0159 -0.9885  1.7408
  119MOL   H14016896   1.548   4.065   7.355  0.2795  3.2579  1.3816
  119MOL   H14116897   1.497   4.027   7.508 -0.5741  0.5626  1.0566
  119MOL   H14216898   1.354   3.760   7.329 -0.8726  0.1924  2.4374
  120MOL     C116899   4.341   5.498   3.470 -0.7345  0.6577  0.2646
  120MOL     C216900   4.421   5.373   3.488  0.0729 -0.2880 -0.3775
  120MOL     O316901   4.348   5.553   3.596  0.1112 -0.2139 -0.1184
  120MOL     H416902   4.236   5.484   3.443 -0.7679  3.0653 -0.9550
  120MOL     H516903   4.378   5.298   3.554 -0.7010  0.2834 -0.2297
  120MOL     H616904   4.518   5.397   3.532  0.2296  0.3381 -1.0587
  120MOL     H716905   4.434   5.325   3.391 -0.4832  1.0332 -1.1072
  120MOL     H816906   4.388   5.566   3.399  0.2062 -0.0789  0.1791
  120MOL     C916907   4.271   5.674   3.615 -0.1911 -0.4718 -0.4122
  120MOL    C1016908   4.158   5.638   3.719 -0.8066 -0.1683  0.1396
  120MOL    O1116909   4.339   5.775   3.675 -0.9022  0.1523  0.6084
  120MOL    H1216910   4.218   5.700   3.524 -0.1687  0.7438 -0.0755
  120MOL    H1316911   4.112   5.548   3.678 -0.2361 -0.9555  1.1656
  120MOL    H1416912   4.081   5.714   3.718 -0.6204  0.1909  3.6821
  120MOL    H1516913   4.196   5.622   3.821 -2.1411  0.3218  0.7195
  120MOL    C1616914   4.441   5.830   3.595  0.3278 -1.1813 -0.0493
  120MOL    C1716915   4.391   5.959   3.533 -0.0649 -0.3060  0.3941
  120MOL    O1816916   4.544   5.869   3.688 -0.3658 -0.4193 -0.5320
  120MOL    H1916917   4.484   5.762   3.521 -1.5477 -0.1321 -2.1649
  120MOL    H2016918   4.473   5.998   3.472  0.6085  2.1363  2.7737
  120MOL    H2116919   4.359   6.030   3.609 -0.7753 -1.6378  1.3513
  120MOL    H2216920   4.302   5.946   3.471  0.8143 -0.1107 -0.9274
  120MOL    C2316921   4.588   5.763   3.776  0.5551 -0.0521  0.2371
  120MOL    C2416922   4.730   5.718   3.729  0.2637 -0.2518 -0.6672
  120MOL    O2516923   4.594   5.803   3.904  0.0839 -0.7079  0.0866
  120MOL    H2616924   4.524   5.675   3.771  2.3665 -1.3760  0.1142
  120MOL    H2716925   4.711   5.666   3.635  2.3490 -0.9284 -0.7536
  120MOL    H2816926   4.793   5.654   3.790 -0.1673  1.2741  1.4110
  120MOL    H2916927   4.788   5.803   3.694 -1.2596  1.9937  2.0676
  120MOL    C3016928   4.474   5.793   3.978  0.4453 -1.0557  0.5128
  120MOL    C3116929   4.482   5.689   4.082 -0.3076 -0.0197 -0.6367
  120MOL    O3216930   4.452   5.910   4.044 -0.3856  0.3985 -0.1258
  120MOL    H3316931   4.387   5.765   3.919  0.9213 -3.0248  0.7142
  120MOL    H3416932   4.574   5.695   4.140 -1.1118  0.2668  0.6373
  120MOL    H3516933   4.487   5.593   4.031  1.5332  0.1847 -0.8835
  120MOL    H3616934   4.398   5.704   4.150  2.7809  0.9649  3.1411
  120MOL    C3716935   4.397   6.019   3.972 -0.3163 -0.7663 -0.0866
  120MOL    C3816936   4.274   6.051   4.045  0.9416  0.4301  0.4364
  120MOL    O3916937   4.483   6.132   3.980 -1.0940 -0.2412  0.6618
  120MOL    H4016938   4.384   5.989   3.868  0.4364 -2.9499  0.4023
  120MOL    H4116939   4.217   6.114   3.976  1.9990 -0.7492 -1.5589
  120MOL    H4216940   4.288   6.096   4.143  0.2050  0.4827  0.5177
  120MOL    H4316941   4.221   5.957   4.051  1.1720  0.3811  1.8299
  120MOL    C4416942   4.601   6.127   3.897 -0.1802  0.2711  0.8285
  120MOL    C4516943   4.583   6.228   3.788 -0.0311 -0.3655 -0.5745
  120MOL    O4616944   4.712   6.166   3.977  0.1048 -0.1340 -0.1073
  120MOL    H4716945   4.613   6.025   3.863  0.1441  0.6584 -0.2228
  120MOL    H4816946   4.649   6.218   3.702 -0.5546 -0.2511 -0.9931
  120MOL    H4916947   4.593   6.326   3.834 -2.0535  0.9240 -2.7502
  120MOL    H5016948   4.479   6.241   3.757  0.1888  1.7234 -0.4752
  120MOL    C5116949   4.742   6.075   4.078 -0.3913 -0.2475 -0.4496
  120MOL    C5216950   4.857   5.984   4.030  0.6870 -1.1778  0.5404
  120MOL    O5316951   4.780   6.159   4.188  0.4120  0.3844  0.1511
  120MOL    H5416952   4.657   6.011   4.100  0.4659 -1.7452 -1.3806
  120MOL    H5516953   4.940   6.048   4.001 -0.0343 -1.3266 -2.0016
  120MOL    H5616954   4.818   5.929   3.944 -1.6821  0.0256  0.7900
  120MOL    H5716955   4.887   5.916   4.109  0.3267 -0.9873  0.8415
  120MOL    C5816956   4.674   6.225   4.243 -0.5082 -0.0781 -0.0387
  120MOL    C5916957   4.610   6.129   4.348 -0.3114 -0.2771  0.3210
  120MOL    O6016958   4.722   6.334   4.316  0.1354 -0.3511 -0.2631
  120MOL    H6116959   4.593   6.245   4.173 -0.5060 -1.3485 -0.4154
  120MOL    H6216960   4.699   6.079   4.389 -0.3921 -1.4601 -0.8962
  120MOL    H6316961   4.555   6.048   4.301  0.8467 -1.4884  0.9986
  120MOL    H6416962   4.559   6.182   4.428  2.7629  0.6449  1.7795
  120MOL    C6516963   4.751   6.444   4.240  0.0024  0.6193 -0.2225
  120MOL    C6616964   4.670   6.563   4.285  0.0987 -0.0744 -0.1407
  120MOL    O6716965   4.882   6.487   4.247 -0.9948 -0.3203  0.0762
  120MOL    H6816966   4.717   6.419   4.140 -1.5310  0.8412  0.2203
  120MOL    H6916967   4.564   6.535   4.286  0.4024 -1.2308  1.6183
  120MOL    H7016968   4.690   6.652   4.225 -1.0294 -0.8816 -1.7817
  120MOL    H7116969   4.705   6.593   4.383 -2.4853 -2.3038  1.5224
  120MOL    C7216970   4.980   6.394   4.207  0.6658 -0.6370  0.4569
  120MOL    C7316971   4.992   6.393   4.056  0.6731  0.3479  0.2493
  120MOL    O7416972   5.110   6.432   4.257 -0.1424 -0.0037 -0.0424
  120MOL    H7516973   4.954   6.296   4.249 -0.5441 -0.0014  1.2102
  120MOL    H7616974   5.012   6.495   4.025 -1.6821  1.2191  1.5045
  120MOL    H7716975   4.911   6.342   4.004  2.2785  2.0142 -4.0787
  120MOL    H7816976   5.078   6.330   4.030  0.2888  0.4773 -1.3316
  120MOL    C7916977   5.125   6.420   4.401  0.1277 -0.8284 -0.2426
  120MOL    C8016978   5.234   6.316   4.436  0.4499 -0.1439 -0.6591
  120MOL    O8116979   5.171   6.536   4.466 -0.4804  0.0426  0.4949
  120MOL    H8216980   5.031   6.381   4.442 -1.4562  0.8604 -2.1763
  120MOL    H8316981   5.243   6.303   4.544  2.2208  0.7922 -0.6818
  120MOL    H8416982   5.336   6.336   4.403  0.8719  3.0942  2.3636
  120MOL    H8516983   5.201   6.221   4.393  0.3225 -0.0783 -0.7075
  120MOL    C8616984   5.073   6.635   4.491  0.0480 -0.1574 -0.4683
  120MOL    C8716985   5.034   6.630   4.636  0.2179  0.1213  0.1351
  120MOL    O8816986   5.115   6.769   4.469  0.0372  0.0388  0.0585
  120MOL    H8916987   4.985   6.626   4.427  0.1588  1.0702 -0.7959
  120MOL    H9016988   5.115   6.640   4.707 -1.3058 -0.7695  2.0407
  120MOL    H9116989   4.985   6.534   4.652  1.3145 -0.1469  1.9916
  120MOL    H9216990   4.972   6.718   4.654 -0.9886 -0.8892  0.9737
  120MOL    C9316991   5.132   6.791   4.330 -0.2382 -0.2448 -0.2036
  120MOL    C9416992   5.045   6.909   4.283  0.0495  0.1703  0.0020
  120MOL    O9516993   5.263   6.839   4.303 -0.1030 -0.2718 -0.1025
  120MOL    H9616994   5.113   6.701   4.270  1.0293  0.4084 -1.6096
  120MOL    H9716995   5.074   6.998   4.338 -0.8054  0.6489 -0.3163
  120MOL    H9816996   4.943   6.877   4.302 -1.1288  3.5628 -0.2876
  120MOL    H9916997   5.058   6.921   4.175 -2.4664  0.4265 -0.2972
  120MOL   C10016998   5.360   6.728   4.292 -0.2131 -0.0736 -0.1550
  120MOL   C10116999   5.403   6.733   4.151 -0.3392  0.6018  0.0068
  120MOL   O10217000   5.480   6.742   4.366  0.8346 -0.0005 -0.6031
  120MOL   H10317001   5.318   6.630   4.314  0.3144 -0.2396  0.1068
  120MOL   H10417002   5.314   6.741   4.088  0.6456  4.3553 -1.0543
  120MOL   H10517003   5.468   6.649   4.127 -0.1850  1.1267 -1.4709
  120MOL   H10617004   5.457   6.825   4.129  0.0301 -0.6605 -4.8967
  120MOL   C10717005   5.465   6.711   4.500 -0.6137  0.6893  0.0787
  120MOL   C10817006   5.533   6.575   4.505 -0.6152  0.3613 -1.0317
  120MOL   O10917007   5.526   6.800   4.590  0.3150  0.5117  0.1152
  120MOL   H11017008   5.361   6.694   4.530 -0.1746 -2.1763  0.0637
  120MOL   H11117009   5.641   6.586   4.504 -0.5525  0.4894  2.2983
  120MOL   H11217010   5.498   6.510   4.424 -0.5745  0.4302 -1.1047
  120MOL   H11317011   5.505   6.528   4.599 -1.9606  1.7008 -0.7379
  120MOL   C11417012   5.477   6.933   4.570  0.5355  0.6240 -0.2284
  120MOL   C11517013   5.361   6.945   4.662 -0.7005  0.6444  0.5028
  120MOL   O11617014   5.577   7.024   4.602  0.2176 -0.1199  0.0627
  120MOL   H11717015   5.437   6.952   4.470 -0.9653  1.9892  0.6255
  120MOL   H11817016   5.302   7.035   4.644 -0.9696  0.3487 -0.0990
  120MOL   H11917017   5.411   6.952   4.759 -0.2911  1.5933  0.2316
  120MOL   H12017018   5.293   6.860   4.658  1.1008 -0.9228  2.4234
  120MOL   C12117019   5.661   7.044   4.488  0.5440 -0.3142  0.6402
  120MOL   C12217020   5.635   7.194   4.446  0.0078  0.6935  0.1093
  120MOL   O12317021   5.790   7.039   4.535 -0.0431  0.6745  0.1139
  120MOL   H12417022   5.643   6.975   4.406 -0.3528  1.3180 -0.5467
  120MOL   H12517023   5.705   7.231   4.370 -0.1374  0.8383  0.0455
  120MOL   H12617024   5.623   7.261   4.531  2.6557 -0.8821  1.8054
  120MOL   H12717025   5.541   7.189   4.391  1.2288  1.6873 -2.1365
  120MOL   C12817026   5.835   6.915   4.566 -0.0279  0.1565 -0.2463
  120MOL   C12917027   5.936   6.876   4.456  0.1479  0.2230  0.2332
  120MOL   O13017028   5.902   6.908   4.694 -0.0981 -0.3489  0.3270
  120MOL   H13117029   5.751   6.845   4.572  0.5729 -0.5419  0.0592
  120MOL   H13217030   5.995   6.793   4.495 -0.7050 -1.2671 -1.5829
  120MOL   H13317031   6.008   6.957   4.445 -0.4205  0.5268 -1.2287
  120MOL   H13417032   5.882   6.848   4.366  1.4796  1.6120 -1.0248
  120MOL   C13517033   5.816   6.902   4.803  0.2612  0.1206 -0.4120
  120MOL   C13617034   5.902   6.888   4.916  0.7081 -0.5633  0.7207
  120MOL   O13717035   5.737   7.023   4.818  0.6659 -0.2695  0.5147
  120MOL   H13817036   5.754   6.814   4.788  0.8836 -0.4665  0.4543
  120MOL   H13917037   5.966   6.976   4.919 -2.7934  2.0738  0.9933
  120MOL   H14017038   5.966   6.801   4.900 -0.5066 -1.1613 -1.0501
  120MOL   H14117039   5.838   6.884   5.004  0.1896  0.0025  0.3709
  120MOL   H14217040   5.681   7.026   4.742  0.6048 -2.3296  0.4534
  121MOL     C117041   7.221   0.026   4.472 -0.1245  0.0221  0.5665
  121MOL     C217042   7.351   0.095   4.424 -0.0153  0.1016 -0.1958
  121MOL     O317043   7.253   7.805   4.502 -0.0558  0.2630  0.7685
  121MOL     H417044   7.140   0.036   4.399 -0.8411 -1.5276  1.1433
  121MOL     H517045   7.342   0.201   4.405 -0.0652 -0.0372 -0.9547
  121MOL     H617046   7.394   0.055   4.332  0.1052  1.9909 -0.9823
  121MOL     H717047   7.436   0.076   4.491  1.9340 -1.2595 -2.9491
  121MOL     H817048   7.189   0.069   4.567  0.0940 -1.8657  1.5152
  121MOL     C917049   7.271   7.715   4.392  0.2694  0.1566  0.0125
  121MOL    C1017050   7.412   7.657   4.391  0.2884 -0.2454  0.3599
  121MOL    O1117051   7.180   7.605   4.398 -0.2735 -0.0188  0.4266
  121MOL    H1217052   7.249   7.772   4.302 -0.8541 -0.0754  0.1245
  121MOL    H1317053   7.446   7.617   4.486  0.1036  0.2368  0.6277
  121MOL    H1417054   7.481   7.740   4.374 -2.4818  2.0069 -0.3900
  121MOL    H1517055   7.431   7.587   4.310  0.5788 -1.1271  1.1915
  121MOL    C1617056   7.041   7.638   4.385 -0.2082 -0.6239  0.4150
  121MOL    C1717057   6.992   7.585   4.241 -0.5990 -0.6928 -0.0127
  121MOL    O1817058   6.968   7.566   4.485  0.4663  0.3325 -0.3138
  121MOL    H1917059   7.030   7.747   4.389  0.0713 -0.6385  1.8179
  121MOL    H2017060   7.034   7.486   4.225  2.2788  0.8310 -2.3627
  121MOL    H2117061   7.027   7.656   4.166 -0.0006 -2.0581 -1.0482
  121MOL    H2217062   6.883   7.588   4.250 -0.7268  3.7512 -1.6610
  121MOL    C2317063   6.976   7.622   4.609  0.0595  0.1902  0.2343
  121MOL    C2417064   6.833   7.674   4.637 -0.2445 -0.4550  0.0717
  121MOL    O2517065   7.004   7.533   4.708  0.1969 -0.5932  0.1094
  121MOL    H2617066   7.037   7.712   4.606  0.4788 -0.1158 -1.8385
  121MOL    H2717067   6.758   7.597   4.651  0.9964 -1.2466  2.8040
  121MOL    H2817068   6.790   7.737   4.559 -0.5618 -0.1549  0.4854
  121MOL    H2917069   6.826   7.738   4.725 -1.6695 -0.3744 -0.0984
  121MOL    C3017070   7.145   7.526   4.738 -0.4776  0.8412  0.1425
  121MOL    C3117071   7.167   7.598   4.872 -0.3737  0.0629 -0.2594
  121MOL    O3217072   7.168   7.387   4.750 -0.0682  0.2524 -0.0069
  121MOL    H3317073   7.213   7.575   4.668  0.6102  1.4974  1.6220
  121MOL    H3417074   7.187   7.704   4.855 -0.2590  0.2613  1.0720
  121MOL    H3517075   7.248   7.557   4.932 -1.0937 -1.7541 -0.4987
  121MOL    H3617076   7.071   7.594   4.924 -0.1742  1.3509  0.2208
  121MOL    C3717077   7.176   7.327   4.619  0.5594  0.1917 -0.0962
  121MOL    C3817078   7.323   7.330   4.571 -0.3327 -0.1949 -0.2843
  121MOL    O3917079   7.138   7.192   4.620 -0.1041  0.8744 -0.1704
  121MOL    H4017080   7.123   7.379   4.540  1.6094  0.2123 -0.7850
  121MOL    H4117081   7.350   7.432   4.547  1.0992 -0.4632  0.1256
  121MOL    H4217082   7.330   7.257   4.490 -1.8754 -1.0796  0.3443
  121MOL    H4317083   7.382   7.293   4.655  0.2643  3.4782  0.9680
  121MOL    C4417084   6.996   7.177   4.612  0.8541  0.4633 -0.7441
  121MOL    C4517085   6.955   7.150   4.468 -0.7081  0.2256 -0.7112
  121MOL    O4617086   6.954   7.071   4.687 -0.1717  0.2955  0.0536
  121MOL    H4717087   6.947   7.267   4.651 -0.7384  0.0175 -1.6553
  121MOL    H4817088   7.013   7.066   4.431  0.1797  0.5208 -0.0174
  121MOL    H4917089   6.976   7.238   4.407 -1.5605  2.9734  2.7586
  121MOL    H5017090   6.848   7.133   4.457 -0.7179 -0.4281  0.3144
  121MOL    C5117091   6.977   7.080   4.832  0.7851  0.3238  0.0950
  121MOL    C5217092   6.832   7.083   4.893  0.0423  0.4738  0.0035
  121MOL    O5317093   7.030   6.960   4.872 -0.4616 -0.2122 -0.2056
  121MOL    H5417094   7.036   7.168   4.859  0.8857 -0.4966  2.7548
  121MOL    H5517095   6.779   7.171   4.856 -2.2866 -2.0888 -3.0393
  121MOL    H5617096   6.835   7.087   5.002 -2.6608  2.3706  0.0723
  121MOL    H5717097   6.778   6.991   4.868  1.4730  0.1588 -2.0434
  121MOL    C5817098   7.170   6.955   4.865 -0.6675 -0.3457 -0.0032
  121MOL    C5917099   7.219   6.945   5.012  1.0106 -1.0036 -0.3781
  121MOL    O6017100   7.208   6.841   4.802 -0.7219 -0.2103  0.1263
  121MOL    H6117101   7.210   7.037   4.805 -0.0808 -1.8106 -1.6328
  121MOL    H6217102   7.192   6.850   5.057 -0.8705 -1.9479 -3.3212
  121MOL    H6317103   7.176   7.032   5.062  1.8705 -2.3264  2.7604
  121MOL    H6417104   7.326   6.954   4.995  0.9734 -0.6106 -0.4243
  121MOL    C6517105   7.192   6.830   4.667  0.4486 -0.2528  0.5010
  121MOL    C6617106   7.308   6.895   4.591 -0.4966 -0.4501  0.2612
  121MOL    O6717107   7.180   6.695   4.624 -0.2528  0.3783 -0.0146
  121MOL    H6817108   7.095   6.877   4.650  0.4218  0.0327  1.4258
  121MOL    H6917109   7.320   7.000   4.618  2.1284  0.1463 -2.8008
  121MOL    H7017110   7.287   6.888   4.484  1.2622  0.5212 -0.1734
  121MOL    H7117111   7.403   6.850   4.621  0.4380  1.3969  0.1449
  121MOL    C7217112   7.064   6.632   4.681  0.8350 -0.2938 -0.2922
  121MOL    C7317113   6.974   6.589   4.564 -0.1893 -0.3895 -0.1104
  121MOL    O7417114   7.091   6.514   4.746 -0.2820 -0.5945  0.1453
  121MOL    H7517115   7.002   6.694   4.745  0.5753  1.0426 -1.7884
  121MOL    H7617116   7.043   6.517   4.520  0.1546  0.4644 -1.0068
  121MOL    H7717117   6.959   6.681   4.507 -0.6378 -1.2417 -1.4068
  121MOL    H7817118   6.885   6.538   4.600  0.2571 -0.4432  0.9356
  121MOL    C7917119   7.171   6.532   4.858 -0.1588  0.2333  0.6146
  121MOL    C8017120   7.081   6.556   4.977  0.2693 -0.1064  0.2099
  121MOL    O8117121   7.239   6.409   4.878 -0.3979  0.0215 -0.0515
  121MOL    H8217122   7.251   6.605   4.844 -0.1476 -0.0832 -1.0827
  121MOL    H8317123   7.140   6.580   5.065 -1.2655  0.3569  1.1376
  121MOL    H8417124   7.004   6.481   4.995 -0.1725  0.8067  2.2572
  121MOL    H8517125   7.032   6.651   4.956 -0.7611 -0.5460  0.5892
  121MOL    C8617126   7.352   6.384   4.797  0.3308  0.3626 -0.2737
  121MOL    C8717127   7.473   6.410   4.884 -0.9898  0.2280  0.3676
  121MOL    O8817128   7.353   6.250   4.764  0.2654 -0.2029 -0.2544
  121MOL    H8917129   7.357   6.451   4.711 -2.3382  0.0991 -0.6915
  121MOL    H9017130   7.480   6.517   4.901 -1.6732  0.0983  1.5139
  121MOL    H9117131   7.561   6.372   4.832  0.1775  1.7512  1.2179
  121MOL    H9217132   7.462   6.356   4.978 -1.3755  0.8832  0.6982
  121MOL    C9317133   7.258   6.216   4.667  0.1187  0.6926  0.1851
  121MOL    C9417134   7.340   6.180   4.537  0.3458  0.2396 -0.7227
  121MOL    O9517135   7.191   6.091   4.703 -0.2195 -0.6631  0.4173
  121MOL    H9617136   7.178   6.287   4.644 -0.6228  0.6199  2.3731
  121MOL    H9717137   7.399   6.265   4.502 -0.2899  1.5266  1.2825
  121MOL    H9817138   7.274   6.149   4.455  0.2482  2.9687 -1.7095
  121MOL    H9917139   7.407   6.095   4.549 -0.6077 -0.7687 -2.2718
  121MOL   C10017140   7.092   6.101   4.795 -0.2092 -0.4866  0.2017
  121MOL   C10117141   6.963   6.119   4.721 -0.2491 -0.1294 -1.0882
  121MOL   O10217142   7.100   5.986   4.872  0.3107 -0.1960  0.4874
  121MOL   H10317143   7.098   6.185   4.864 -2.2211 -0.0518 -0.1330
  121MOL   H10417144   6.973   6.216   4.674 -0.9953  0.5696  0.1733
  121MOL   H10517145   6.881   6.117   4.793  2.5339  0.0079  2.1969
  121MOL   H10617146   6.952   6.045   4.641  0.7828  2.0702 -3.3043
  121MOL   C10717147   7.194   5.998   4.973 -0.0912 -0.2100  0.3954
  121MOL   C10817148   7.116   6.009   5.100 -0.2524 -0.2272 -0.8276
  121MOL   O10917149   7.260   5.870   4.981 -0.2042 -0.4794  0.2143
  121MOL   H11017150   7.272   6.074   4.960  0.0455 -0.3025  0.6784
  121MOL   H11117151   7.106   6.115   5.123 -1.9706 -0.6070  0.2574
  121MOL   H11217152   7.176   5.965   5.180 -2.9964 -0.4954  1.1472
  121MOL   H11317153   7.031   5.941   5.105  0.5913 -1.1277  2.9135
  121MOL   C11417154   7.344   5.853   4.870 -0.1908 -0.3284 -0.3947
  121MOL   C11517155   7.482   5.904   4.907  0.2234 -0.5775  0.8410
  121MOL   O11617156   7.363   5.718   4.845  0.2475  0.6692 -0.2419
  121MOL   H11717157   7.303   5.896   4.779 -2.6904 -1.1911  0.3016
  121MOL   H11817158   7.545   5.866   4.827 -0.2351  2.0869 -0.8792
  121MOL   H11917159   7.515   5.871   5.005 -0.1506  1.5041  1.7007
  121MOL   H12017160   7.488   6.013   4.906  0.7308 -0.5957 -0.9818
  121MOL   C12117161   7.247   5.652   4.803  0.4087 -0.0541  0.2190
  121MOL   C12217162   7.265   5.633   4.652  0.4300 -0.1094 -0.6475
  121MOL   O12317163   7.225   5.531   4.876  0.3840 -0.0995 -0.0928
  121MOL   H12417164   7.155   5.707   4.822  0.3693  0.2640 -0.8255
  121MOL   H12517165   7.172   5.606   4.602 -0.5175  0.1484  0.9213
  121MOL   H12617166   7.342   5.557   4.638  0.5800  0.2188 -1.6183
  121MOL   H12717167   7.289   5.728   4.605  1.0163  0.8243  1.4652
  121MOL   C12817168   7.232   5.545   5.016  0.3896  0.2878 -0.1851
  121MOL   C12917169   7.093   5.541   5.069  0.0207 -0.0823  0.0314
  121MOL   O13017170   7.304   5.440   5.070 -0.2855  0.5062  0.0724
  121MOL   H13117171   7.279   5.639   5.046  0.4950  0.3637 -0.5865
  121MOL   H13217172   7.034   5.625   5.032 -0.4892 -1.1154 -1.5139
  121MOL   H13317173   7.082   5.534   5.178  0.6961 -0.6710  0.0656
  121MOL   H13417174   7.046   5.456   5.020  0.0001 -0.2160  0.2841
  121MOL   C13517175   7.436   5.443   5.019  0.7677 -0.6969 -0.3556
  121MOL   C13617176   7.514   5.536   5.111 -0.4814  0.7775  0.4724
  121MOL   O13717177   7.500   5.315   5.019 -0.2011 -0.2317  0.3182
  121MOL   H13817178   7.448   5.470   4.914  2.1686  1.0658  0.2276
  121MOL   H13917179   7.620   5.536   5.086 -0.1522 -3.3461  1.4425
  121MOL   H14017180   7.520   5.500   5.214  1.9608 -0.0875  0.0515
  121MOL   H14117181   7.482   5.640   5.109  0.2100  1.0054  1.1322
  121MOL   H14217182   7.591   5.321   4.995 -0.2504  0.0225  0.2003
  122MOL     C117183   7.061   7.170   6.483  0.4837  0.2197  0.1313
  122MOL     C217184   6.909   7.144   6.482 -0.0812  0.9280 -0.9962
  122MOL     O317185   7.118   7.084   6.385  0.0098  0.0900 -0.0490
  122MOL     H417186   7.105   7.158   6.582 -0.1147  0.2530  0.4005
  122MOL     H517187   6.861   7.183   6.392 -1.3075 -0.3968 -0.9462
  122MOL     H617188   6.863   7.206   6.559 -1.0615 -0.3354 -0.5448
  122MOL     H717189   6.875   7.042   6.499  3.0048  0.2378  1.4410
  122MOL     H817190   7.075   7.276   6.459  0.4018 -0.4593 -3.2639
  122MOL     C917191   7.258   7.073   6.391 -0.4895  0.3518 -0.3218
  122MOL    C1017192   7.301   6.956   6.477 -0.5525 -0.0391 -0.5815
  122MOL    O1117193   7.301   7.048   6.262 -0.0679  0.1954  0.3579
  122MOL    H1217194   7.290   7.172   6.427 -1.6428 -0.2530  2.5239
  122MOL    H1317195   7.256   6.860   6.452 -0.9867 -0.2618  0.9827
  122MOL    H1417196   7.283   6.980   6.582  1.7650 -0.4447 -0.0641
  122MOL    H1517197   7.409   6.946   6.473 -0.5412 -1.3584  1.7703
  122MOL    C1617198   7.309   7.162   6.185 -0.2549  0.3321 -0.1605
  122MOL    C1717199   7.459   7.189   6.159 -0.0349 -0.0852  0.8099
  122MOL    O1817200   7.255   7.121   6.057 -0.1436  0.0308 -0.2887
  122MOL    H1917201   7.253   7.243   6.232 -1.8437 -2.2930  2.6534
  122MOL    H2017202   7.467   7.277   6.097  0.4923 -0.7441 -0.0685
  122MOL    H2117203   7.493   7.099   6.107 -2.0881 -0.5860  0.2769
  122MOL    H2217204   7.517   7.203   6.250 -0.4712 -1.4272  1.3179
  122MOL    C2317205   7.114   7.089   6.054 -0.2680 -0.1557  0.2250
  122MOL    C2417206   7.054   7.187   5.946  0.1969 -0.7785 -0.5136
  122MOL    O2517207   7.096   6.959   5.995  1.2118  0.0113 -0.3179
  122MOL    H2617208   7.060   7.105   6.147 -0.3599 -3.3106  0.7535
  122MOL    H2717209   7.059   7.288   5.986 -2.3105  0.0757 -2.2572
  122MOL    H2817210   6.951   7.163   5.921  0.0840 -1.7198  0.7932
  122MOL    H2917211   7.112   7.180   5.854  0.5326 -1.1978 -0.2701
  122MOL    C3017212   7.117   6.854   6.087 -0.6703  0.3645  0.0649
  122MOL    C3117213   6.985   6.776   6.111  0.4899  0.2460  0.9988
  122MOL    O3217214   7.203   6.756   6.044  0.0498 -0.1134  0.3627
  122MOL    H3317215   7.149   6.898   6.181 -0.5189 -0.8290  0.5812
  122MOL    H3417216   6.962   6.714   6.024 -1.3838  0.9477  0.9790
  122MOL    H3517217   6.893   6.830   6.133 -0.8945 -0.1708 -3.3241
  122MOL    H3617218   6.993   6.715   6.201  1.9845 -0.8635  0.1324
  122MOL    C3717219   7.333   6.793   6.021 -0.1064  0.2014  0.7416
  122MOL    C3817220   7.416   6.696   6.101  0.2333 -0.0565 -1.3815
  122MOL    O3917221   7.374   6.768   5.888 -0.4209 -0.0406 -0.6829
  122MOL    H4017222   7.352   6.895   6.055 -2.3743  0.8662  0.1557
  122MOL    H4117223   7.387   6.592   6.088 -0.7880 -0.1833  1.6152
  122MOL    H4217224   7.387   6.709   6.205 -0.2037  1.0054 -1.6222
  122MOL    H4317225   7.522   6.719   6.087  1.0720 -3.3600 -0.9094
  122MOL    C4417226   7.332   6.862   5.793  0.3639 -0.4487 -0.0589
  122MOL    C4517227   7.444   6.966   5.772 -0.8752 -0.1161 -0.0376
  122MOL    O4617228   7.318   6.793   5.674 -0.3483  0.4756 -0.0612
  122MOL    H4717229   7.234   6.906   5.813 -0.6140 -1.9772 -1.4098
  122MOL    H4817230   7.420   7.046   5.702 -1.9764  0.8763  1.4595
  122MOL    H4917231   7.533   6.912   5.739 -0.2820  0.0020  1.3324
  122MOL    H5017232   7.467   7.006   5.870 -0.6643  0.7434 -0.4308
  122MOL    C5117233   7.217   6.696   5.677 -0.4863  0.7555  0.0344
  122MOL    C5217234   7.092   6.750   5.598  0.0332  0.6088 -0.0517
  122MOL    O5317235   7.264   6.580   5.605 -0.3638  0.0953 -0.3347
  122MOL    H5417236   7.192   6.677   5.781  0.6318 -0.2602  0.1285
  122MOL    H5517237   7.034   6.833   5.638  3.4504  2.4742  1.1977
  122MOL    H5617238   7.031   6.668   5.560  0.4683  1.2579 -2.2055
  122MOL    H5717239   7.120   6.792   5.502  0.7152 -0.7997 -0.4845
  122MOL    C5817240   7.344   6.492   5.688 -0.0749 -0.0039  0.0064
  122MOL    C5917241   7.258   6.375   5.736 -0.3071 -0.3547 -0.4540
  122MOL    O6017242   7.450   6.444   5.622  0.0322 -0.1174 -0.0134
  122MOL    H6117243   7.386   6.551   5.769  1.9643  2.1622 -2.5647
  122MOL    H6217244   7.161   6.412   5.766 -0.5759 -0.1528 -1.5380
  122MOL    H6317245   7.303   6.334   5.826  0.6477  2.6688  0.5055
  122MOL    H6417246   7.249   6.303   5.655  1.6280  1.2832 -2.1970
  122MOL    C6517247   7.549   6.535   5.585  0.5143 -0.2501 -0.4743
  122MOL    C6617248   7.659   6.549   5.691  0.0987 -0.3194 -0.0877
  122MOL    O6717249   7.605   6.479   5.467  0.1955 -0.0395 -0.4977
  122MOL    H6817250   7.515   6.636   5.562  1.9562  0.6247  1.0808
  122MOL    H6917251   7.718   6.637   5.668 -1.3585  0.9000  0.6810
  122MOL    H7017252   7.730   6.467   5.698  0.9649  0.4809  0.6673
  122MOL    H7117253   7.619   6.555   5.793 -0.3841  0.9475 -0.3421
  122MOL    C7217254   7.522   6.501   5.357 -0.4809 -0.1779 -0.0830
  122MOL    C7317255   7.577   6.617   5.274 -0.2022 -0.4108  0.4911
  122MOL    O7417256   7.525   6.384   5.274 -0.3817 -0.5564 -0.0923
  122MOL    H7517257   7.417   6.512   5.384 -0.0656  0.5047  1.3076
  122MOL    H7617258   7.671   6.592   5.225  0.1631 -0.8088  1.3934
  122MOL    H7717259   7.600   6.699   5.342 -0.4470 -1.0907  1.4122
  122MOL    H7817260   7.507   6.653   5.198  1.5405 -1.4823 -1.6807
  122MOL    C7917261   7.453   6.277   5.329  0.4844  0.6506  0.4903
  122MOL    C8017262   7.332   6.257   5.236  0.3053 -0.0178  0.8598
  122MOL    O8117263   7.536   6.168   5.319  0.2045 -0.0483  0.0206
  122MOL    H8217264   7.415   6.294   5.430  2.3742  2.1250  0.9739
  122MOL    H8317265   7.272   6.347   5.225  0.2575  0.0830  1.9108
  122MOL    H8417266   7.281   6.169   5.273 -0.8742 -0.1648 -1.0422
  122MOL    H8517267   7.362   6.231   5.134 -0.3916 -1.5901  1.0393
  122MOL    C8617268   7.634   6.157   5.421 -0.1516 -0.2773 -0.1522
  122MOL    C8717269   7.588   6.044   5.516 -0.1231  1.0327  0.1057
  122MOL    O8817270   7.763   6.128   5.367 -0.3337 -0.3925  0.2428
  122MOL    H8917271   7.630   6.249   5.479 -3.1248  0.4293 -1.3636
  122MOL    H9017272   7.486   6.061   5.549 -0.9364 -2.3342 -0.4689
  122MOL    H9117273   7.656   6.043   5.601  0.8424 -1.4667 -0.6363
  122MOL    H9217274   7.585   5.952   5.458  0.9607  0.1966  1.3629
  122MOL    C9317275   7.816   6.242   5.312 -0.3257 -0.3806  0.4563
  122MOL    C9417276   7.909   6.310   5.418  0.7604  0.6049 -0.7389
  122MOL    O9517277   7.889   6.202   5.199  0.3167  0.0196  0.5118
  122MOL    H9617278   7.743   6.314   5.277  0.2981  0.2758  0.4848
  122MOL    H9717279   0.040   6.401   5.377  0.1426  1.5379  0.6125
  122MOL    H9817280   0.068   6.231   5.437  0.5484  0.2586 -1.3329
  122MOL    H9917281   7.859   6.342   5.509  1.2232  1.0941 -0.6496
  122MOL   C10017282   7.814   6.148   5.103  0.1202 -0.4134  0.0018
  122MOL   C10117283   7.780   6.258   4.995 -0.6558 -0.7619 -0.3332
  122MOL   O10217284   7.873   6.034   5.040 -0.1227  0.6040  0.4931
  122MOL   H10317285   7.718   6.106   5.134  1.4451 -1.9767  2.1283
  122MOL   H10417286   7.718   6.218   4.915 -0.2529  0.2075 -1.1382
  122MOL   H10517287   7.881   6.288   4.967 -0.3616 -1.0572  0.3997
  122MOL   H10617288   7.733   6.344   5.041  0.6565 -0.4091  0.3602
  122MOL   C10717289   7.900   5.921   5.126  0.0456 -0.4427  0.0048
  122MOL   C10817290   7.788   5.819   5.098  0.1993 -0.3009  0.1931
  122MOL   O10917291   0.115   5.882   5.100  0.5054  0.0460  0.4222
  122MOL   H11017292   7.892   5.955   5.229 -1.3920  1.6119 -0.7445
  122MOL   H11117293   7.807   5.733   5.162 -0.1837  0.5152  1.4388
  122MOL   H11217294   7.798   5.790   4.994 -0.1232  0.1204  0.0412
  122MOL   H11317295   7.690   5.859   5.125 -0.5607 -1.1552 -1.2259
  122MOL   C11417296   0.210   5.975   5.130 -0.2543 -0.1574 -0.0644
  122MOL   C11517297   0.277   5.941   5.263  0.0819  0.2195 -0.1916
  122MOL   O11617298   0.311   5.958   5.034 -0.0449  0.2727  0.1973
  122MOL   H11717299   0.175   6.078   5.131  0.0662 -0.0423 -0.3850
  122MOL   H11817300   0.298   5.836   5.280  1.2698  0.6231  0.8629
  122MOL   H11917301   0.204   5.974   5.337 -0.5563  1.0347 -1.1575
  122MOL   H12017302   0.365   6.006   5.265 -0.6881  1.2962 -0.4551
  122MOL   C12117303   0.286   6.009   4.901 -0.1627  0.3565 -0.0768
  122MOL   C12217304   0.306   6.154   4.909  0.2209  0.2899  0.2640
  122MOL   O12317305   0.395   5.969   4.824 -0.0314  0.2321  0.3450
  122MOL   H12417306   0.188   5.978   4.866  0.5758 -0.6166 -1.3067
  122MOL   H12517307   0.246   6.202   4.987 -2.0511  0.7431 -1.7020
  122MOL   H12617308   0.269   6.197   4.816  0.8284 -1.3523 -0.7630
  122MOL   H12717309   0.409   6.182   4.928 -0.1441  1.9357 -0.1601
  122MOL   C12817310   0.378   5.834   4.773  0.6492 -0.0258  0.1764
  122MOL   C12917311   0.352   5.843   4.626 -0.6744  0.9302  0.4441
  122MOL   O13017312   0.494   5.753   4.795  0.6011 -0.1045  0.5541
  122MOL   H13117313   0.300   5.776   4.821  0.4146 -1.2824 -1.6677
  122MOL   H13217314   0.441   5.856   4.565 -0.6018  0.7798  0.5171
  122MOL   H13317315   0.266   5.905   4.601 -1.5732  0.1516  1.4918
  122MOL   H13417316   0.330   5.739   4.600 -1.7340  0.8947  1.4051
  122MOL   C13517317   0.512   5.722   4.934 -0.4403  0.5680 -0.5422
  122MOL   C13617318   0.606   5.602   4.935 -0.1679  0.5012  0.1145
  122MOL   O13717319   0.565   5.833   5.009  0.7531  0.1576  0.0507
  122MOL   H13817320   0.416   5.692   4.976  0.6079 -1.9066  0.1252
  122MOL   H13917321   0.703   5.615   4.885 -0.8453  0.3732 -1.2475
  122MOL   H14017322   0.557   5.518   4.887  0.6840 -0.3101  0.6616
  122MOL   H14117323   0.629   5.571   5.037  0.4843 -3.8269 -1.2461
  122MOL   H14217324   0.493   5.891   5.027  0.7021 -0.8299  3.4321
  123MOL     C117325   6.649   3.766   4.136 -0.4566  0.1304 -0.3117
  123MOL     C217326   6.746   3.647   4.104  0.3026  0.9641 -0.1749
  123MOL     O317327   6.537   3.713   4.206  0.0578 -0.1275  0.0861
  123MOL     H417328   6.621   3.822   4.047 -2.7941  0.1217  0.3988
  123MOL     H517329   6.827   3.633   4.175 -2.6232  2.4354  3.6066
  123MOL     H617330   6.784   3.662   4.003 -0.7579 -2.0941 -1.0873
  123MOL     H717331   6.696   3.551   4.100  0.8058  0.6764  0.3458
  123MOL     H817332   6.687   3.842   4.203  0.2942 -1.0991  0.6811
  123MOL     C917333   6.449   3.804   4.262 -0.0544 -0.1023  0.3066
  123MOL    C1017334   6.368   3.884   4.147  0.0361 -0.0542 -0.9897
  123MOL    O1117335   6.358   3.728   4.334  0.5710 -0.2573  0.2588
  123MOL    H1217336   6.503   3.872   4.328 -2.1336 -0.3558  2.3407
  123MOL    H1317337   6.436   3.954   4.098 -0.1202  0.6075 -0.2739
  123MOL    H1417338   6.300   3.941   4.210  1.5604 -0.5480  1.1587
  123MOL    H1517339   6.321   3.818   4.074  5.4119 -2.9706 -2.1195
  123MOL    C1617340   6.405   3.687   4.458 -0.3471 -0.9206  0.0178
  123MOL    C1717341   6.343   3.782   4.561  0.1962 -0.2017  0.2506
  123MOL    O1817342   6.363   3.554   4.494  0.2445  0.1017 -0.0366
  123MOL    H1917343   6.514   3.692   4.459 -0.4089  0.4970  1.6237
  123MOL    H2017344   6.361   3.888   4.543 -1.6379 -0.0134 -0.5013
  123MOL    H2117345   6.367   3.744   4.660 -0.5141  1.1890  0.9760
  123MOL    H2217346   6.237   3.780   4.539  0.0509 -1.8313  1.0753
  123MOL    C2317347   6.430   3.462   4.414  0.5154 -0.5287  0.0719
  123MOL    C2417348   6.544   3.408   4.499 -0.2726 -0.1702 -0.0631
  123MOL    O2517349   6.333   3.365   4.381 -0.1976 -0.0989  0.8122
  123MOL    H2617350   6.476   3.508   4.327  1.8201 -1.2203  0.3854
  123MOL    H2717351   6.500   3.356   4.584  2.6555 -1.0307  0.9566
  123MOL    H2817352   6.612   3.487   4.531  0.5419 -1.0317  0.3570
  123MOL    H2917353   6.593   3.332   4.439  0.7387  0.0582  0.4565
  123MOL    C3017354   6.248   3.398   4.275  0.2307 -0.3584  0.3215
  123MOL    C3117355   6.314   3.330   4.156 -0.0953  0.3434 -0.6688
  123MOL    O3217356   6.115   3.348   4.299 -0.2907 -0.1202  0.2671
  123MOL    H3317357   6.243   3.507   4.267 -1.8786 -0.5602 -1.7635
  123MOL    H3417358   6.406   3.380   4.125  0.5317  0.1787  0.8976
  123MOL    H3517359   6.239   3.341   4.077 -0.8546  0.7327  0.0946
  123MOL    H3617360   6.325   3.224   4.175 -0.2705  0.7279  1.7737
  123MOL    C3717361   6.050   3.395   4.415  0.4506  0.9266  0.6814
  123MOL    C3817362   5.939   3.497   4.383  0.7298 -0.2231 -0.6818
  123MOL    O3917363   5.976   3.285   4.471  0.1734 -0.0845  0.4519
  123MOL    H4017364   6.125   3.439   4.481  0.1110  1.3530  0.7896
  123MOL    H4117365   5.971   3.593   4.344 -1.5203  0.2178 -1.4980
  123MOL    H4217366   5.893   3.519   4.480  1.2239 -1.5553 -0.1414
  123MOL    H4317367   5.859   3.450   4.325 -1.1321  1.1827  0.6482
  123MOL    C4417368   6.054   3.199   4.543  0.4387 -0.5697  0.6349
  123MOL    C4517369   6.033   3.237   4.691  0.8201 -0.1063 -0.0334
  123MOL    O4617370   6.012   3.067   4.531 -0.2863  0.6515  0.1027
  123MOL    H4717371   6.159   3.212   4.519  0.4112 -1.4802  0.0070
  123MOL    H4817372   6.088   3.168   4.754 -0.4942 -2.5916 -1.5154
  123MOL    H4917373   5.928   3.251   4.719  0.1089 -1.0238 -2.1260
  123MOL    H5017374   6.068   3.340   4.698  1.0585 -0.2488  0.8817
  123MOL    C5117375   6.011   3.007   4.401  0.1638 -0.8757 -1.4838
  123MOL    C5217376   6.147   2.946   4.363 -0.3426 -0.3512 -0.1020
  123MOL    O5317377   5.920   2.896   4.389 -0.4410  0.2640  0.3829
  123MOL    H5417378   5.983   3.081   4.326  1.4672 -0.0362 -1.1657
  123MOL    H5517379   6.221   3.025   4.356  0.0821 -0.6422  0.9642
  123MOL    H5617380   6.137   2.889   4.271 -0.0440  0.2347 -0.5018
  123MOL    H5717381   6.171   2.874   4.441  1.1220 -0.1224 -0.3240
  123MOL    C5817382   5.787   2.929   4.389  0.0402  0.7668 -0.9367
  123MOL    C5917383   5.734   2.942   4.250 -0.4496 -0.2568 -0.5967
  123MOL    O6017384   5.711   2.836   4.452  1.0343 -0.3062  0.0049
  123MOL    H6117385   5.772   3.023   4.442 -0.5013 -0.0710  0.4090
  123MOL    H6217386   5.626   2.945   4.238 -0.9177 -0.0947  3.1236
  123MOL    H6317387   5.782   2.867   4.187  0.8487  0.0669 -0.0130
  123MOL    H6417388   5.764   3.036   4.204 -1.2320 -0.2348 -1.0809
  123MOL    C6517389   5.748   2.805   4.586 -0.0998  0.7994  0.1260
  123MOL    C6617390   5.627   2.859   4.668 -0.3706  0.1545  0.1040
  123MOL    O6717391   5.753   2.670   4.623 -0.2591  0.2212 -0.7280
  123MOL    H6817392   5.830   2.866   4.623 -0.4862  1.8686 -0.7217
  123MOL    H6917393   5.598   2.958   4.632  1.1314  0.7652  0.5354
  123MOL    H7017394   5.653   2.855   4.774  1.1748  0.3225 -0.2592
  123MOL    H7117395   5.551   2.782   4.656  3.3878 -3.6805  0.1123
  123MOL    C7217396   5.874   2.610   4.606 -0.2621 -0.1598 -0.2941
  123MOL    C7317397   5.923   2.549   4.739 -0.8816  0.3909  0.2143
  123MOL    O7417398   5.877   2.496   4.520 -0.3690  0.7702  0.2288
  123MOL    H7517399   5.956   2.675   4.576 -1.3279  1.2509 -0.1715
  123MOL    H7617400   6.024   2.512   4.724 -1.0958  0.4038 -1.3820
  123MOL    H7717401   5.855   2.471   4.772 -2.5742  1.6326 -0.2724
  123MOL    H7817402   5.925   2.622   4.819  1.6879  2.0557 -1.3057
  123MOL    C7917403   5.861   2.537   4.386  0.2941  0.9682 -0.2348
  123MOL    C8017404   5.983   2.494   4.314 -0.4593 -0.3376 -0.2943
  123MOL    O8117405   5.752   2.464   4.323 -0.4893  0.8624  0.0173
  123MOL    H8217406   5.842   2.643   4.367 -3.3660  0.4543  0.2182
  123MOL    H8317407   6.076   2.540   4.347 -1.1092  1.8717 -1.4463
  123MOL    H8417408   5.982   2.536   4.213  0.3045 -2.2213 -1.1021
  123MOL    H8517409   5.985   2.386   4.306  1.0759 -0.2732 -0.9622
  123MOL    C8617410   5.623   2.519   4.340 -0.4752 -0.4194  0.4229
  123MOL    C8717411   5.579   2.573   4.203 -0.0113  0.1118  0.6418
  123MOL    O8817412   5.536   2.422   4.376  0.4805  0.0160 -0.5758
  123MOL    H8917413   5.625   2.598   4.415 -0.8567  0.2006 -0.2097
  123MOL    H9017414   5.648   2.637   4.148  1.1496 -3.2912 -1.9985
  123MOL    H9117415   5.483   2.624   4.198 -1.2339 -2.3636 -3.8356
  123MOL    H9217416   5.550   2.493   4.135  1.5316  0.4192 -0.4149
  123MOL    C9317417   5.545   2.381   4.508  0.0415  0.3471 -0.3567
  123MOL    C9417418   5.420   2.431   4.585  1.0744 -0.9257 -0.3428
  123MOL    O9517419   5.552   2.242   4.524 -0.3131 -0.5348 -0.3656
  123MOL    H9617420   5.632   2.426   4.555  0.2131 -0.1622 -0.1837
  123MOL    H9717421   5.445   2.422   4.691  2.7859  0.8963 -0.5660
  123MOL    H9817422   5.326   2.378   4.572  1.4791 -1.4701 -1.1046
  123MOL    H9917423   5.404   2.534   4.552  2.3041 -0.5736  0.1162
  123MOL   C10017424   5.683   2.188   4.523 -0.0063  0.2723 -0.3910
  123MOL   C10117425   5.719   2.132   4.664  0.3039 -0.0334  0.3357
  123MOL   O10217426   5.697   2.077   4.442 -0.6368 -0.5515  0.0912
  123MOL   H10317427   5.761   2.260   4.498 -0.9309  0.7228 -2.0237
  123MOL   H10417428   5.818   2.086   4.664  0.8510  0.9974  4.1027
  123MOL   H10517429   5.638   2.063   4.686 -0.8758  1.1679 -0.1869
  123MOL   H10617430   5.713   2.203   4.746 -0.3705  1.3747 -0.9059
  123MOL   C10717431   5.696   2.112   4.304  0.0807 -0.5152 -0.5265
  123MOL   C10817432   5.825   2.061   4.251 -0.3516  0.9862 -0.1265
  123MOL   O10917433   5.599   2.054   4.222 -0.0660 -0.7096  0.5959
  123MOL   H11017434   5.706   2.219   4.283 -0.1116  0.1253  2.3768
  123MOL   H11117435   5.898   2.105   4.319 -0.5207 -0.7961  1.2628
  123MOL   H11217436   5.836   2.104   4.152  3.4888 -0.0798 -0.2084
  123MOL   H11317437   5.825   1.953   4.242 -1.4169  0.9880 -0.2476
  123MOL   C11417438   5.473   2.116   4.221  0.7521  0.6205 -0.9587
  123MOL   C11517439   5.442   2.165   4.076 -0.3297 -0.7821 -0.6026
  123MOL   O11617440   5.379   2.025   4.252  0.7383  0.0339  0.3067
  123MOL   H11717441   5.463   2.208   4.279 -0.1022  0.9449 -1.6218
  123MOL   H11817442   5.423   2.075   4.018 -0.7023 -0.0007 -1.6962
  123MOL   H11917443   5.530   2.219   4.041  1.9120 -1.3234  3.8434
  123MOL   H12017444   5.347   2.218   4.069 -1.3365 -2.2161  1.5303
  123MOL   C12117445   5.364   2.001   4.386 -1.0272 -0.9350  0.3311
  123MOL   C12217446   5.241   2.074   4.437 -0.0276  0.9171  0.8396
  123MOL   O12317447   5.346   1.858   4.411 -0.2692  0.0930  0.4816
  123MOL   H12417448   5.449   2.029   4.447  0.5279 -0.5008 -1.9780
  123MOL   H12517449   5.233   2.041   4.541  2.1420  1.0836  1.0683
  123MOL   H12617450   5.152   2.042   4.382  0.7456 -0.7088  0.4861
  123MOL   H12717451   5.248   2.182   4.427 -1.3428  0.8469 -1.0686
  123MOL   C12817452   5.467   1.787   4.410 -0.4315 -0.1665 -0.3070
  123MOL   C12917453   5.484   1.732   4.554 -0.2783 -0.3335 -0.7905
  123MOL   O13017454   5.436   1.673   4.326 -0.3510 -0.1924 -0.1021
  123MOL   H13117455   5.558   1.841   4.383 -0.1070 -1.2546 -1.5013
  123MOL   H13217456   5.420   1.648   4.582  1.5107 -1.2261  0.7223
  123MOL   H13317457   5.476   1.812   4.627  0.1477 -1.4415  0.4823
  123MOL   H13417458   5.581   1.683   4.560  0.2074  0.4868 -1.6736
  123MOL   C13517459   5.453   1.705   4.188  0.1523 -0.8020  0.2460
  123MOL   C13617460   5.458   1.577   4.101 -0.2034 -0.8268 -0.3302
  123MOL   O13717461   5.344   1.780   4.144 -0.4500  0.1647  0.1266
  123MOL   H13817462   5.535   1.776   4.174  0.1536 -0.0774  3.5536
  123MOL   H13917463   5.553   1.525   4.116  0.1026  0.1958  1.4996
  123MOL   H14017464   5.448   1.601   3.996 -3.3683 -0.5162 -0.0038
  123MOL   H14117465   5.377   1.508   4.125 -2.2916  2.2786  1.8440
  123MOL   H14217466   5.351   1.868   4.179  2.3189 -0.9074  2.3732
  124MOL     C117467   5.741   4.547   3.192 -0.1938  0.1948 -0.0831
  124MOL     C217468   5.854   4.491   3.274  0.2847  0.3890 -0.3523
  124MOL     O317469   5.699   4.671   3.242 -0.4103 -0.2068  0.0300
  124MOL     H417470   5.660   4.474   3.185 -1.3847  1.4513  0.4106
  124MOL     H517471   5.950   4.535   3.247  1.5403 -2.5739 -0.8414
  124MOL     H617472   5.872   4.389   3.240 -0.5354 -0.4521  1.6234
  124MOL     H717473   5.839   4.478   3.381  1.9532 -2.5274 -0.4250
  124MOL     H817474   5.779   4.555   3.090  0.8243  2.7463  0.4718
  124MOL     C917475   5.618   4.750   3.161  0.3284 -0.2150  0.2606
  124MOL    C1017476   5.470   4.735   3.194 -0.0283 -0.0801 -0.0958
  124MOL    O1117477   5.653   4.889   3.159  0.5727  0.2426  0.5276
  124MOL    H1217478   5.622   4.715   3.057  2.1462 -0.1934  0.3007
  124MOL    H1317479   5.448   4.631   3.172  0.6670 -0.3072  0.2591
  124MOL    H1417480   5.415   4.799   3.125 -1.9663 -1.1687  0.3852
  124MOL    H1517481   5.446   4.769   3.295  0.1148 -2.4122  0.7712
  124MOL    C1617482   5.761   4.926   3.076  0.2853 -0.0193 -0.2832
  124MOL    C1717483   5.714   4.976   2.943 -0.3731 -0.3759 -0.2248
  124MOL    O1817484   5.849   5.024   3.124  0.0887 -0.4175  0.6220
  124MOL    H1917485   5.819   4.835   3.061 -2.0097 -1.6007  0.0476
  124MOL    H2017486   5.658   4.898   2.891  0.9910 -0.8553 -1.0187
  124MOL    H2117487   5.793   4.996   2.870  0.2164 -0.9250  0.2471
  124MOL    H2217488   5.642   5.057   2.954 -2.3432 -1.8942 -1.6503
  124MOL    C2317489   5.897   4.997   3.253 -0.9464  0.1551  0.2534
  124MOL    C2417490   5.997   4.889   3.256  0.0297  0.3710 -0.1686
  124MOL    O2517491   5.961   5.108   3.311 -0.1299 -0.4897  0.2596
  124MOL    H2617492   5.816   4.967   3.319  0.1184 -0.7676  1.1609
  124MOL    H2717493   6.070   4.904   3.176  0.3991  0.6479  0.2216
  124MOL    H2817494   5.951   4.795   3.226 -0.7046  1.5695 -3.0466
  124MOL    H2917495   6.046   4.882   3.353 -0.3310  0.4975  0.0239
  124MOL    C3017496   5.883   5.223   3.342 -0.5526  0.0053 -0.6951
  124MOL    C3117497   5.824   5.206   3.486  0.1713  0.5924  0.5277
  124MOL    O3217498   5.957   5.340   3.346  0.3401  0.2830  0.1441
  124MOL    H3317499   5.810   5.245   3.264 -4.6297 -1.5052  2.4754
  124MOL    H3417500   5.754   5.124   3.500  0.6936 -0.1799 -1.2653
  124MOL    H3517501   5.767   5.288   3.529 -0.1420 -0.4190  2.0917
  124MOL    H3617502   5.907   5.196   3.557 -1.2955 -0.7139  2.1154
  124MOL    C3717503   6.017   5.364   3.217  0.3182  0.4485  0.2035
  124MOL    C3817504   5.933   5.483   3.162 -0.1551  0.6205 -0.7767
  124MOL    O3917505   6.155   5.396   3.228 -0.0978 -0.1543  0.6911
  124MOL    H4017506   6.003   5.282   3.147  2.2338  0.4465 -0.2031
  124MOL    H4117507   5.936   5.479   3.053  1.3900 -0.8606 -0.7018
  124MOL    H4217508   5.987   5.568   3.203 -0.8738  0.0586  1.3698
  124MOL    H4317509   5.831   5.474   3.198  0.3300  2.4626  1.1476
  124MOL    C4417510   6.242   5.292   3.264  0.4212  0.0616 -0.6550
  124MOL    C4517511   6.293   5.223   3.140 -0.2081 -0.8053  0.9925
  124MOL    O4617512   6.345   5.347   3.339 -0.5864  0.3446 -0.7811
  124MOL    H4717513   6.196   5.216   3.328  0.4816 -0.0520 -0.7451
  124MOL    H4817514   6.371   5.156   3.175  0.8092  0.3070  0.8862
  124MOL    H4917515   6.337   5.304   3.082  0.2248 -2.3773 -0.9323
  124MOL    H5017516   6.218   5.173   3.079 -2.1362  1.0061  1.8275
  124MOL    C5117517   6.311   5.427   3.445  0.0944 -0.0168 -0.2049
  124MOL    C5217518   6.369   5.364   3.572 -0.6174  0.1105 -0.6596
  124MOL    O5317519   6.362   5.560   3.437  0.2734  0.2411 -0.5397
  124MOL    H5417520   6.204   5.421   3.463 -0.1856  0.7275 -1.5528
  124MOL    H5517521   6.349   5.257   3.575  1.2435 -0.2112  1.5756
  124MOL    H5617522   6.340   5.412   3.665  0.4796  0.0028 -0.2481
  124MOL    H5717523   6.478   5.359   3.563 -0.7354 -1.5493 -1.4136
  124MOL    C5817524   6.283   5.660   3.374 -0.3202  0.1555 -0.6899
  124MOL    C5917525   6.233   5.757   3.476 -0.1503 -0.3175  0.7336
  124MOL    O6017526   6.370   5.726   3.281 -0.1524 -0.0959 -0.7157
  124MOL    H6117527   6.199   5.621   3.317 -1.3402  0.5901  0.4934
  124MOL    H6217528   6.313   5.809   3.529  0.8083 -1.9349  0.8987
  124MOL    H6317529   6.164   5.713   3.548 -1.6550 -0.7723 -0.9483
  124MOL    H6417530   6.176   5.833   3.423  2.4774  1.1166 -0.1453
  124MOL    C6517531   6.405   5.652   3.161  0.0938 -0.2836  0.0831
  124MOL    C6617532   6.358   5.740   3.048  0.2720  0.0377  0.0456
  124MOL    O6717533   6.545   5.647   3.141 -0.5664  0.0509 -0.5673
  124MOL    H6817534   6.373   5.549   3.153 -0.1510 -0.0591 -2.1251
  124MOL    H6917535   6.419   5.829   3.067  0.2594 -0.0528  0.5064
  124MOL    H7017536   6.252   5.761   3.066 -0.5200 -2.1872 -1.7281
  124MOL    H7117537   6.363   5.690   2.951 -0.4103  1.0272 -0.5121
  124MOL    C7217538   6.611   5.543   3.209  0.5797  0.6767  0.7788
  124MOL    C7317539   6.648   5.434   3.113  0.3462  0.1223 -0.4409
  124MOL    O7417540   6.728   5.586   3.272 -0.6409  0.6398 -0.3119
  124MOL    H7517541   6.533   5.509   3.277 -0.3332  1.2119  0.0093
  124MOL    H7617542   6.735   5.460   3.053 -1.2941  0.0707 -2.9323
  124MOL    H7717543   6.560   5.419   3.050  0.0632 -0.2803  0.0502
  124MOL    H7817544   6.666   5.343   3.170 -2.9622 -0.6937 -0.5629
  124MOL    C7917545   6.701   5.653   3.392  0.1755 -0.6454 -0.3750
  124MOL    C8017546   6.740   5.557   3.502  0.7447 -0.2722  0.3352
  124MOL    O8117547   6.767   5.776   3.407 -0.0016 -0.1353 -0.9234
  124MOL    H8217548   6.596   5.681   3.396  0.0227 -1.2985  0.2428
  124MOL    H8317549   6.680   5.467   3.492  0.2973 -0.0460  1.0020
  124MOL    H8417550   6.714   5.610   3.594  0.6905  0.0562  0.1318
  124MOL    H8517551   6.846   5.529   3.505  0.6746 -0.4772  1.1549
  124MOL    C8617552   6.734   5.871   3.309  0.6487  1.1109 -0.3593
  124MOL    C8717553   6.664   5.983   3.377 -0.0164 -0.1898  0.2118
  124MOL    O8817554   6.855   5.921   3.262  0.3062  0.0248 -0.1496
  124MOL    H8917555   6.674   5.821   3.233 -0.3875  1.4388  0.2417
  124MOL    H9017556   6.665   6.066   3.306  0.8310 -0.4756 -0.1132
  124MOL    H9117557   6.714   6.020   3.467 -0.9025 -2.0062  1.4749
  124MOL    H9217558   6.563   5.946   3.389 -0.4204 -0.1988 -2.7351
  124MOL    C9317559   6.923   5.844   3.161 -0.6215  0.2145 -1.1404
  124MOL    C9417560   6.937   5.935   3.040 -0.6143  0.0128 -0.3826
  124MOL    O9517561   7.059   5.818   3.200 -0.3624  0.1539 -0.1145
  124MOL    H9617562   6.885   5.745   3.137  1.1026 -0.9557  0.7963
  124MOL    H9717563   6.962   6.035   3.075 -0.8130 -0.7834  2.1637
  124MOL    H9817564   6.837   5.931   2.997 -0.2651  1.4089 -1.3441
  124MOL    H9917565   6.999   5.891   2.962  1.5903  2.6931 -0.2226
  124MOL   C10017566   7.083   5.731   3.305  0.2415  0.2063 -0.1718
  124MOL   C10117567   7.146   5.610   3.248 -0.2154 -0.2912 -0.3399
  124MOL   O10217568   7.173   5.780   3.401 -0.1837  0.0662  0.1424
  124MOL   H10317569   6.982   5.708   3.341  0.0936  1.3541  0.2024
  124MOL   H10417570   7.244   5.624   3.203  0.4239 -0.1146  1.1124
  124MOL   H10517571   7.079   5.576   3.169 -3.1078  0.6478  1.6248
  124MOL   H10617572   7.150   5.542   3.333  1.4773  1.3881  0.9680
  124MOL   C10717573   7.128   5.870   3.487 -0.2353  0.6129 -0.0300
  124MOL   C10817574   7.086   5.800   3.612 -0.1450 -0.1671  0.6705
  124MOL   O10917575   7.233   5.956   3.524 -0.0891  0.3265 -0.5777
  124MOL   H11017576   7.047   5.924   3.439  2.3513  2.0818 -2.9105
  124MOL   H11117577   7.165   5.730   3.639 -1.5831 -1.3445  1.8905
  124MOL   H11217578   7.000   5.735   3.597 -0.1908 -0.4041  1.9189
  124MOL   H11317579   7.051   5.868   3.689  3.1598  0.1023  1.9971
  124MOL   C11417580   7.276   6.036   3.411 -0.2069  0.3018  0.1115
  124MOL   C11517581   7.183   6.157   3.412 -0.2596 -0.1751 -0.3785
  124MOL   O11617582   7.403   6.090   3.436 -0.6008  0.5769 -0.1471
  124MOL   H11717583   7.273   5.977   3.320 -0.5876 -0.0590  0.3582
  124MOL   H11817584   7.228   6.237   3.353 -0.3568  0.5001  0.4513
  124MOL   H11917585   7.157   6.183   3.514  0.4409 -0.6762 -0.0724
  124MOL   H12017586   7.095   6.118   3.360 -0.2254  1.1289 -1.4679
  124MOL   C12117587   7.506   6.008   3.477  0.6126 -0.0284  0.3338
  124MOL   C12217588   7.562   5.946   3.345 -0.1770  0.9469  0.2390
  124MOL   O12317589   7.607   6.079   3.544 -0.1967 -0.3235  0.7203
  124MOL   H12417590   7.481   5.922   3.539  0.7769 -0.0098  0.4266
  124MOL   H12517591   7.584   6.030   3.279  0.1180  0.9364  0.3248
  124MOL   H12617592   7.480   5.889   3.300  0.2059 -0.5064  1.3438
  124MOL   H12717593   7.652   5.886   3.360  0.9354  2.5323  0.0212
  124MOL   C12817594   7.568   6.153   3.660 -1.2747 -0.9199 -0.1996
  124MOL   C12917595   7.666   6.124   3.767 -0.5136 -0.5190  0.2304
  124MOL   O13017596   7.581   6.295   3.641 -0.1855 -0.5058  0.0691
  124MOL   H13117597   7.463   6.132   3.682 -1.7161  0.3652 -1.0502
  124MOL   H13217598   7.679   6.016   3.773  1.9209 -0.4155 -2.0962
  124MOL   H13317599   7.630   6.176   3.856  0.5552  0.3271  0.1741
  124MOL   H13417600   7.764   6.158   3.733 -0.5910 -0.4820  0.0459
  124MOL   C13517601   7.483   6.347   3.561  0.6739 -0.0018 -0.0948
  124MOL   C13617602   7.477   6.492   3.602 -0.4929 -0.1202  0.1058
  124MOL   O13717603   7.519   6.338   3.426  0.6985  0.8531  0.1631
  124MOL   H13817604   7.384   6.302   3.566  0.2388  1.0556  0.9066
  124MOL   H13917605   7.573   6.540   3.583 -0.4714 -0.4745 -0.7030
  124MOL   H14017606   7.457   6.500   3.709 -2.2160 -1.8398 -0.0600
  124MOL   H14117607   7.394   6.544   3.555  1.1421  3.4872  0.9860
  124MOL   H14217608   7.519   6.245   3.409  3.0813  0.1133  3.5159
  125MOL     C117609   2.052   1.896   0.149 -0.8328 -0.0955  0.7389
  125MOL     C217610   2.117   1.858   0.281  0.3549 -0.4973  0.3099
  125MOL     O317611   2.147   1.910   0.048  0.4430  0.8467  1.0852
  125MOL     H417612   1.987   1.983   0.151 -1.0096 -0.2200  0.5094
  125MOL     H517613   2.046   1.868   0.362 -0.6332 -1.3624 -0.4425
  125MOL     H617614   2.205   1.919   0.302 -0.2457  1.2278 -1.9935
  125MOL     H717615   2.154   1.755   0.276 -2.2737 -1.3988 -1.2885
  125MOL     H817616   1.991   1.808   0.126  0.1349 -0.6463  0.2194
  125MOL     C917617   2.194   2.040   0.014 -0.7309  0.5429 -0.2556
  125MOL    C1017618   2.301   2.018   7.816 -0.2948  0.9544  0.6117
  125MOL    O1117619   2.091   2.119   7.877  0.4242 -0.0127 -0.2809
  125MOL    H1217620   2.244   2.088   0.098  1.7496  0.8791 -1.8661
  125MOL    H1317621   2.258   1.963   7.733 -0.7479  2.3295 -0.0702
  125MOL    H1417622   2.390   1.972   7.860 -0.5518  0.0906  0.2300
  125MOL    H1517623   2.329   2.111   7.766  1.9624  1.1182  2.0907
  125MOL    C1617624   2.091   2.249   0.008  0.1450 -0.1320 -0.1302
  125MOL    C1717625   1.970   2.321   7.872  0.2556 -0.1464  0.2003
  125MOL    O1817626   2.086   2.259   0.149 -0.1835 -0.0390  0.5330
  125MOL    H1917627   2.182   2.295   7.883 -0.4352  1.0187 -0.1472
  125MOL    H2017628   1.879   2.263   7.888  1.2904 -2.3316 -1.6359
  125MOL    H2117629   1.977   2.343   7.766 -2.0206 -2.9493 -0.5875
  125MOL    H2217630   1.955   2.417   0.007 -2.8216 -0.3027 -0.3038
  125MOL    C2317631   2.171   2.349   0.201 -0.2339 -0.3293 -0.3924
  125MOL    C2417632   2.134   2.374   0.352 -0.5948  0.3135 -0.3088
  125MOL    O2517633   2.302   2.309   0.194 -0.1037 -0.3071 -0.3749
  125MOL    H2617634   2.160   2.443   0.148  0.2211 -0.9588 -1.6159
  125MOL    H2717635   2.191   2.457   0.395  0.6045 -0.7375  0.1382
  125MOL    H2817636   2.177   2.284   0.396 -0.6015  0.2949 -0.3409
  125MOL    H2917637   2.027   2.386   0.367 -0.8873  1.4987 -3.0012
  125MOL    C3017638   2.391   2.406   0.147 -0.4118  0.4608  0.2603
  125MOL    C3117639   2.526   2.358   0.195  0.3430  0.6136 -0.2209
  125MOL    O3217640   2.393   2.400   0.009  0.6073 -0.1953  0.0772
  125MOL    H3317641   2.369   2.510   0.173  1.0620  1.8068 -3.5390
  125MOL    H3417642   2.517   2.354   0.304 -0.5359  1.2095 -0.2655
  125MOL    H3517643   2.605   2.423   0.159  0.9510 -2.0759 -4.0195
  125MOL    H3617644   2.553   2.259   0.157 -0.3191 -0.4504  1.9645
  125MOL    C3717645   2.369   2.519   7.857  0.2775  0.3466  0.3445
  125MOL    C3817646   2.404   2.491   7.711  0.4562 -0.2064 -0.8070
  125MOL    O3917647   2.234   2.563   7.868  0.0579 -0.5044  0.3238
  125MOL    H4017648   2.439   2.593   7.896  0.5142  1.2996 -1.8175
  125MOL    H4117649   2.346   2.404   7.680  2.0950 -0.9879 -1.7173
  125MOL    H4217650   2.511   2.473   7.705  0.2370 -0.9824 -2.3903
  125MOL    H4317651   2.382   2.570   7.640  0.4499  3.0048  2.6038
  125MOL    C4417652   2.217   2.695   0.002 -0.0692  0.3756  0.1024
  125MOL    C4517653   2.088   2.757   7.848 -0.4890  0.5156  0.4346
  125MOL    O4617654   2.187   2.690   0.139  0.8428 -0.0795  0.5088
  125MOL    H4717655   2.305   2.754   7.890  1.7830 -2.1177  0.5655
  125MOL    H4817656   2.000   2.710   7.892 -2.0369  1.6312 -1.3508
  125MOL    H4917657   2.087   2.744   7.740 -0.0038 -2.2258  0.7324
  125MOL    H5017658   2.102   2.865   7.859 -0.8776  0.6032  0.0948
  125MOL    C5117659   2.257   2.785   0.211  0.2447 -0.5081 -1.0246
  125MOL    C5217660   2.193   2.794   0.348 -0.0125 -0.0917  0.4062
  125MOL    O5317661   2.396   2.758   0.238 -0.5866  0.5674 -0.0992
  125MOL    H5417662   2.249   2.880   0.159  0.8438  1.4219  2.2988
  125MOL    H5517663   2.255   2.856   0.413  1.5581  1.8800 -2.8353
  125MOL    H5617664   2.191   2.691   0.381  1.4501 -1.2088 -2.7467
  125MOL    H5717665   2.093   2.834   0.329  0.7838  0.7682 -2.2554
  125MOL    C5817666   2.484   2.861   0.207 -0.1250 -0.3265 -0.1609
  125MOL    C5917667   2.616   2.832   0.275  0.5351  0.0224  0.0581
  125MOL    O6017668   2.490   2.858   0.069 -0.2775  0.3020 -0.4371
  125MOL    H6117669   2.442   2.954   0.243 -0.9977  0.1932 -2.4926
  125MOL    H6217670   2.697   2.888   0.228 -0.1721  1.0505  0.0383
  125MOL    H6317671   2.641   2.726   0.285 -1.5159 -0.5151 -0.2662
  125MOL    H6417672   2.606   2.874   0.375 -0.2406  3.1047 -1.2487
  125MOL    C6517673   2.486   2.981   0.002 -0.6854 -0.1194 -0.2083
  125MOL    C6617674   2.573   2.974   7.785 -0.8157 -0.8300  0.7579
  125MOL    O6717675   2.357   3.019   7.878  0.2826  0.0151 -0.2027
  125MOL    H6817676   2.532   3.059   0.062  0.3600  0.0284 -1.1854
  125MOL    H6917677   2.589   3.074   7.744  0.6532 -0.2606  2.6281
  125MOL    H7017678   2.524   2.921   7.703 -0.0905  1.1307 -0.9960
  125MOL    H7117679   2.675   2.935   7.794 -1.0216 -1.8792 -1.1018
  125MOL    C7217680   2.319   3.146   0.009 -0.5356 -0.2571  0.2819
  125MOL    C7317681   2.195   3.200   7.861 -0.1084 -0.1321 -0.0382
  125MOL    O7417682   2.308   3.148   0.150  0.7308  0.0335 -0.3130
  125MOL    H7517683   2.402   3.210   7.893  1.9205 -1.9372  3.2734
  125MOL    H7617684   2.205   3.228   7.756 -0.8770 -2.4647 -0.7549
  125MOL    H7717685   2.153   3.290   7.905  0.5577  0.2911 -0.2531
  125MOL    H7817686   2.111   3.132   7.875 -2.1316  2.0518 -1.2215
  125MOL    C7917687   2.370   3.253   0.216  0.4672 -0.6173 -1.0015
  125MOL    C8017688   2.266   3.295   0.333  0.0620 -0.2791  0.2176
  125MOL    O8117689   2.490   3.204   0.268 -0.7430  0.4073  0.2091
  125MOL    H8217690   2.399   3.335   0.151  3.1493 -0.3163  0.5351
  125MOL    H8317691   2.245   3.202   0.387  1.4643 -1.1091 -0.6478
  125MOL    H8417692   2.173   3.334   0.292  0.4523  1.1415  0.6383
  125MOL    H8517693   2.318   3.365   0.398 -0.7474  0.8251 -0.3071
  125MOL    C8617694   2.601   3.296   0.259 -0.8563 -0.0011 -0.4827
  125MOL    C8717695   2.719   3.235   0.331  0.1320 -0.2009 -0.1582
  125MOL    O8817696   2.641   3.316   0.130  0.3264 -0.7734  0.4713
  125MOL    H8917697   2.561   3.387   0.304 -1.6495 -1.1981  1.2633
  125MOL    H9017698   2.738   3.138   0.286  0.5513 -0.4354  0.5156
  125MOL    H9117699   2.685   3.208   0.431 -0.9460  0.2996 -0.3856
  125MOL    H9217700   2.813   3.291   0.341  0.2248 -0.6852  1.9956
  125MOL    C9317701   2.664   3.447   0.095  0.4437 -0.5356  0.2579
  125MOL    C9417702   2.745   3.434   7.879  0.1255 -0.1626 -0.4128
  125MOL    O9517703   2.546   3.514   0.061  0.0967 -0.2903  0.0722
  125MOL    H9617704   2.724   3.492   0.173 -0.6799  1.9264 -0.2375
  125MOL    H9717705   2.846   3.395   7.891 -0.1371 -1.3453 -1.9129
  125MOL    H9817706   2.760   3.529   7.827  1.7677  0.5140  1.2448
  125MOL    H9917707   2.690   3.362   7.818 -1.8687  0.8222  0.1935
  125MOL   C10017708   2.542   3.643   0.114 -0.5172 -0.6094  0.2296
  125MOL   C10117709   2.418   3.710   0.056  0.3707  0.1224 -0.5188
  125MOL   O10217710   2.527   3.635   0.247 -0.1131  0.3824  0.3763
  125MOL   H10317711   2.630   3.694   0.076 -1.2015 -0.2265 -0.8669
  125MOL   H10417712   2.430   3.731   7.864 -2.7138 -1.4408 -1.2554
  125MOL   H10517713   2.395   3.802   0.110 -0.3852  0.1230 -0.8349
  125MOL   H10617714   2.330   3.646   0.064  1.2159 -1.2677 -1.9364
  125MOL   C10717715   2.605   3.715   0.329 -0.6908 -0.2622 -0.2010
  125MOL   C10817716   2.529   3.759   0.454 -0.2884  1.2667 -0.8548
  125MOL   O10917717   2.709   3.637   0.365  0.2731  0.0257  0.4519
  125MOL   H11017718   2.642   3.803   0.277  1.8420 -1.2197 -0.0699
  125MOL   H11117719   2.434   3.801   0.421 -1.1803 -0.7743 -0.9930
  125MOL   H11217720   2.578   3.841   0.506 -1.3295  1.6316 -0.4279
  125MOL   H11317721   2.524   3.672   0.520  0.2010 -0.2856 -2.8260
  125MOL   C11417722   2.828   3.707   0.372 -0.5030  0.3011  0.2804
  125MOL   C11517723   2.921   3.639   0.469  0.3985  0.1500  0.5147
  125MOL   O11617724   2.902   3.699   0.255 -0.8953 -0.0460 -0.0655
  125MOL   H11717725   2.818   3.810   0.406  0.8489  0.1668  1.1123
  125MOL   H11817726   2.938   3.537   0.434 -1.1214  0.4522 -1.1833
  125MOL   H11917727   2.866   3.634   0.563 -2.7144 -1.8702 -1.3024
  125MOL   H12017728   3.010   3.700   0.479 -0.7342  1.8333  0.5910
  125MOL   C12117729   2.924   3.820   0.188 -0.5697  0.6106 -0.3024
  125MOL   C12217730   3.040   3.790   0.097  0.0064  0.5014  0.5112
  125MOL   O12317731   2.818   3.849   0.106  0.2503  0.5105  0.6181
  125MOL   H12417732   2.956   3.904   0.250  1.2505 -0.4123  0.1991
  125MOL   H12517733   3.075   3.890   0.071  1.6814 -0.5165 -1.2911
  125MOL   H12617734   3.012   3.736   0.007  0.7703  2.0554 -0.6823
  125MOL   H12717735   3.124   3.738   0.145 -0.1371  1.0896  1.4135
  125MOL   C12817736   2.800   3.988   0.096 -0.1181 -0.7288  0.0071
  125MOL   C12917737   2.682   4.015   0.005 -0.2577  0.5126  0.0570
  125MOL   O13017738   2.760   4.028   0.224  0.8440  0.2193  0.4604
  125MOL   H13117739   2.883   4.045   0.054 -0.9500  0.0030 -0.6949
  125MOL   H13217740   2.588   3.973   0.040 -1.0482  1.2178 -1.1801
  125MOL   H13317741   2.704   3.952   7.833  0.8653  1.5720 -0.4585
  125MOL   H13417742   2.660   4.118   7.890 -1.3276 -0.0391 -1.1077
  125MOL   C13517743   2.768   4.164   0.253  0.1125  0.4078  0.1468
  125MOL   C13617744   2.661   4.188   0.355  0.1890  0.0723 -0.3625
  125MOL   O13717745   2.886   4.188   0.315 -0.7159 -0.1190  0.0054
  125MOL   H13817746   2.762   4.227   0.164 -2.0830  0.2673  0.1568
  125MOL   H13917747   2.674   4.130   0.446  0.6272 -0.8980 -1.0369
  125MOL   H14017748   2.579   4.131   0.312  1.5498 -1.0277 -1.5542
  125MOL   H14117749   2.644   4.295   0.369  0.9902  0.1783 -0.1912
  125MOL   H14217750   2.919   4.268   0.276 -0.9784  0.2887  0.6072
  126MOL     C117751   3.965   0.056   0.666  0.2888  0.1574  0.4167
  126MOL     C217752   3.882   7.869   0.744  0.2832  0.0460 -0.4067
  126MOL     O317753   4.057   0.118   0.748  1.3549 -0.2064 -0.4942
  126MOL     H417754   3.897   0.137   0.638 -0.8262 -0.3106  1.6717
  126MOL     H517755   3.851   0.001   0.837 -0.9361 -1.4770 -0.0449
  126MOL     H617756   3.932   7.777   0.773 -0.0658 -0.4528 -1.3461
  126MOL     H717757   3.790   7.851   0.688  0.6884 -2.8281 -0.1966
  126MOL     H817758   3.990   0.028   0.564 -2.0697  3.7631 -1.2660
  126MOL     C917759   4.185   0.071   0.735 -0.0332 -0.1353  0.3274
  126MOL    C1017760   4.252   0.176   0.646 -0.4094  0.2573  0.1121
  126MOL    O1117761   4.250   0.068   0.865 -0.0543 -0.2127 -0.2703
  126MOL    H1217762   4.180   7.884   0.695 -0.0133 -0.5331  1.3164
  126MOL    H1317763   4.356   0.146   0.627  0.0873  0.1009  2.9034
  126MOL    H1417764   4.244   0.269   0.702 -1.9500  0.2983 -0.1786
  126MOL    H1517765   4.198   0.181   0.551  0.6448  0.9918 -0.4608
  126MOL    C1617766   4.203   7.873   0.939 -0.0841 -0.3506 -0.0791
  126MOL    C1717767   4.325   7.769   0.947  0.5849 -0.2882 -0.0372
  126MOL    O1817768   4.189   0.005   1.071  0.0473  0.1170 -0.3988
  126MOL    H1917769   4.114   7.829   0.894 -0.0523 -1.5589  0.9983
  126MOL    H2017770   4.299   7.695   1.023  1.6602 -0.1731  0.4546
  126MOL    H2117771   4.417   7.822   0.974 -0.1432  0.9654  0.0018
  126MOL    H2217772   4.337   7.728   0.847 -0.8940 -0.5728 -0.1100
  126MOL    C2317773   4.076   0.087   1.091  0.3111  0.3595  0.2137
  126MOL    C2417774   3.972   7.902   1.141 -0.2849 -0.8086  0.2603
  126MOL    O2517775   4.100   0.172   1.194 -0.0804 -0.3615  0.2241
  126MOL    H2617776   4.040   0.145   1.006  0.8408 -1.8330 -1.5556
  126MOL    H2717777   3.979   7.812   1.081  0.3017 -0.1432 -0.6832
  126MOL    H2817778   3.874   0.036   1.142  0.6016  1.0482  0.3993
  126MOL    H2917779   3.998   7.869   1.241  0.5696 -0.5657  0.1279
  126MOL    C3017780   4.187   0.277   1.155 -0.4474  0.8339 -0.0171
  126MOL    C3117781   4.102   0.401   1.147  0.6190  0.2256  0.0363
  126MOL    O3217782   4.278   0.309   1.259 -0.0532 -0.5340  0.1184
  126MOL    H3317783   4.236   0.255   1.060 -0.1792  0.6714  0.1589
  126MOL    H3417784   4.160   0.480   1.098  1.4860  0.7712  1.8687
  126MOL    H3517785   4.073   0.433   1.247  0.8353 -2.8617  1.1406
  126MOL    H3617786   4.003   0.394   1.103 -0.9077  2.4974  2.9150
  126MOL    C3717787   4.396   0.228   1.254  0.0751 -0.9292 -0.2601
  126MOL    C3817788   4.509   0.324   1.218 -0.1107  0.5264  0.3809
  126MOL    O3917789   4.419   0.167   1.377 -0.0950 -0.7218  0.5742
  126MOL    H4017790   4.389   0.143   1.186  1.9793 -0.2506 -1.3344
  126MOL    H4117791   4.491   0.372   1.121 -0.6218  1.2378  0.8194
  126MOL    H4217792   4.594   0.257   1.215  0.2204  0.9700 -0.4176
  126MOL    H4317793   4.504   0.402   1.294 -3.9792  1.7272 -0.9581
  126MOL    C4417794   4.322   0.075   1.414 -0.4133  0.5757 -0.8154
  126MOL    C4517795   4.372   7.852   1.386 -0.6640  0.2242 -0.1138
  126MOL    O4617796   4.306   0.085   1.551 -1.0935 -0.2235  0.2574
  126MOL    H4717797   4.228   0.100   1.365  1.2833  0.9946 -4.0147
  126MOL    H4817798   4.383   7.827   1.281 -2.3982  0.3441 -0.3364
  126MOL    H4917799   4.302   7.782   1.434  1.3115 -1.2489  0.6858
  126MOL    H5017800   4.466   7.823   1.434  0.2741 -0.6971 -2.4273
  126MOL    C5117801   4.262   0.210   1.594 -0.5764 -0.1233 -0.0485
  126MOL    C5217802   4.113   0.204   1.617 -0.5770  0.3160  0.2209
  126MOL    O5317803   4.322   0.244   1.717 -0.3631 -0.0221 -0.5039
  126MOL    H5417804   4.291   0.288   1.524  0.0497 -1.3780 -1.2081
  126MOL    H5517805   4.089   0.132   1.696  0.0935  0.5370  0.6308
  126MOL    H5617806   4.059   0.172   1.528  0.1751  2.4055 -0.9999
  126MOL    H5717807   4.068   0.299   1.644  0.1449  0.4004  1.1698
  126MOL    C5817808   4.463   0.211   1.724  0.0727 -0.2884  0.0682
  126MOL    C5917809   4.537   0.343   1.746 -0.3844  0.0825 -0.3396
  126MOL    O6017810   4.495   0.142   1.839 -0.2405  0.2462 -0.3422
  126MOL    H6117811   4.505   0.164   1.635  2.1360  0.4831  0.6184
  126MOL    H6217812   4.641   0.322   1.772 -0.5052  0.4465  0.4482
  126MOL    H6317813   4.487   0.395   1.827  3.0673  0.5935  1.5475
  126MOL    H6417814   4.524   0.406   1.658  0.4403 -1.8476 -1.8883
  126MOL    C6517815   4.473   0.005   1.837 -0.0476 -0.4634  0.4106
  126MOL    C6617816   4.606   7.848   1.811  0.0327  0.3765  0.5000
  126MOL    O6717817   4.431   7.874   1.959  0.4283  0.2059  0.2959
  126MOL    H6817818   4.401   7.886   1.762 -1.4430  0.9281  1.1070
  126MOL    H6917819   4.595   7.741   1.832  1.3085  0.2138  0.3597
  126MOL    H7017820   4.682   7.885   1.879 -0.0189 -0.5436  1.0629
  126MOL    H7117821   4.650   7.877   1.716 -0.3402  2.2385  0.8789
  126MOL    C7217822   4.291   7.889   1.986 -0.3430  1.1422 -0.1966
  126MOL    C7317823   4.243   7.749   2.015 -0.2115 -0.2662 -0.4436
  126MOL    O7417824   4.282   0.043   2.105  0.0295  1.1130 -0.2985
  126MOL    H7517825   4.233   0.014   1.903 -1.7836  1.0107  0.7347
  126MOL    H7617826   4.265   7.725   2.119 -0.5956 -1.0909 -0.5461
  126MOL    H7717827   4.283   7.679   1.941  0.1800 -0.9726  0.4213
  126MOL    H7817828   4.134   7.754   2.015 -0.1532  1.4408 -0.9667
  126MOL    C7917829   4.320   0.178   2.112 -0.1796  0.4111  0.3162
  126MOL    C8017830   4.205   0.260   2.058 -0.3469  0.3912  0.0676
  126MOL    O8117831   4.332   0.218   2.249  0.1509  0.1531  0.1729
  126MOL    H8217832   4.411   0.207   2.060 -1.0422  1.2665 -0.7224
  126MOL    H8317833   4.179   0.234   1.955 -2.6202 -2.0823  1.2200
  126MOL    H8417834   4.237   0.365   2.056  2.9224 -0.5535  0.2298
  126MOL    H8517835   4.118   0.253   2.123  1.7165 -0.9448  2.7915
  126MOL    C8617836   4.450   0.163   2.311  0.2021 -0.2278 -0.0849
  126MOL    C8717837   4.560   0.271   2.301 -0.0976 -0.5555 -0.5324
  126MOL    O8817838   4.430   0.136   2.449 -0.2905 -0.2293  0.3278
  126MOL    H8917839   4.475   0.073   2.255 -0.2289  0.3549 -1.2295
  126MOL    H9017840   4.534   0.344   2.378  3.1472  1.2934 -1.0921
  126MOL    H9117841   4.571   0.325   2.207  1.0521 -0.8560 -0.5800
  126MOL    H9217842   4.654   0.229   2.339  0.7206  0.4046 -1.4500
  126MOL    C9317843   4.335   0.040   2.475 -0.2590 -0.6448 -0.0267
  126MOL    C9417844   4.414   7.835   2.526 -0.4428  0.2842 -0.2373
  126MOL    O9517845   4.242   0.082   2.570  0.2125 -0.2287 -0.0979
  126MOL    H9617846   4.287   0.005   2.383 -1.0831 -0.8946  0.4932
  126MOL    H9717847   4.488   7.797   2.455  1.7120  0.7267  1.7440
  126MOL    H9817848   4.338   7.758   2.539 -0.3025 -0.0293 -1.1759
  126MOL    H9917849   4.461   7.864   2.620 -0.5466 -0.3113 -0.0045
  126MOL   C10017850   4.150   0.177   2.527  0.3598 -0.0631  0.3502
  126MOL   C10117851   4.015   0.106   2.503  0.1474  0.1655 -0.2634
  126MOL   O10217852   4.121   0.279   2.611 -0.3959  0.5089  0.4501
  126MOL   H10317853   4.182   0.226   2.435  0.2699  0.5908  0.6651
  126MOL   H10417854   3.974   0.064   2.594  1.2494  1.1147  0.6961
  126MOL   H10517855   4.036   0.023   2.435  1.6351 -0.3031  0.7495
  126MOL   H10617856   3.938   0.175   2.468  0.3853  0.8321  0.5059
  126MOL   C10717857   4.230   0.372   2.612  0.3238 -0.0560 -0.0454
  126MOL   C10817858   4.194   0.485   2.513  0.5653 -0.4456 -0.5316
  126MOL   O10917859   4.258   0.433   2.736 -0.5882  0.5974  0.0353
  126MOL   H11017860   4.324   0.326   2.581  0.8343 -0.0075  1.3828
  126MOL   H11117861   4.135   0.440   2.433 -2.0495 -0.5700  1.3961
  126MOL   H11217862   4.286   0.540   2.491  0.0625  1.7868  2.6110
  126MOL   H11317863   4.132   0.562   2.559  0.7715 -0.6837  0.1417
  126MOL   C11417864   4.298   0.346   2.833  0.4047  0.4310  0.2578
  126MOL   C11517865   4.453   0.355   2.845 -0.1805 -0.5351 -0.2819
  126MOL   O11617866   4.248   0.375   2.960  0.4051 -0.0648  0.2413
  126MOL   H11717867   4.275   0.241   2.813  0.9435  0.7158 -1.9353
  126MOL   H11817868   4.476   0.459   2.869  1.9524 -0.6626 -1.5964
  126MOL   H11917869   4.503   0.313   2.757 -1.8741  0.2043 -1.6427
  126MOL   H12017870   4.484   0.293   2.928 -1.0961 -3.3144 -1.9556
  126MOL   C12117871   4.120   0.338   2.982 -0.3436  0.2144 -0.1191
  126MOL   C12217872   4.129   0.199   3.045  0.0446  0.1682 -0.5281
  126MOL   O12317873   4.065   0.427   3.079 -0.1987  0.3992 -0.1292
  126MOL   H12417874   4.046   0.334   2.903  1.1094 -1.7444 -1.4302
  126MOL   H12517875   4.160   0.128   2.968 -0.5673  0.3743 -0.9715
  126MOL   H12617876   4.029   0.180   3.082  0.2735 -2.2454 -1.0417
  126MOL   H12717877   4.206   0.197   3.122  0.8086 -1.4116 -1.3002
  126MOL   C12817878   4.024   0.548   3.028  0.3766 -0.1992  0.3447
  126MOL   C12917879   3.869   0.558   3.027 -0.4756 -0.5283 -0.7308
  126MOL   O13017880   4.067   0.651   3.113  0.0882  0.8548  0.2599
  126MOL   H13117881   4.055   0.559   2.924 -0.4753 -0.9243  0.0036
  126MOL   H13217882   3.837   0.487   2.951 -1.0132 -2.0970  0.9321
  126MOL   H13317883   3.845   0.662   3.005 -0.4563 -0.2386  0.5740
  126MOL   H13417884   3.823   0.533   3.123  1.1475 -1.1431 -0.0952
  126MOL   C13517885   4.210   0.666   3.117 -0.0490 -0.4419 -0.0939
  126MOL   C13617886   4.249   0.723   2.979 -0.5215 -0.2075  0.3224
  126MOL   O13717887   4.247   0.762   3.212  0.0462 -0.0599  0.6137
  126MOL   H13817888   4.258   0.571   3.141  1.0377  0.0948 -0.0731
  126MOL   H13917889   4.261   0.640   2.909  1.8758 -0.6106  1.1493
  126MOL   H14017890   4.348   0.765   2.998 -2.1864  2.9417  2.4917
  126MOL   H14117891   4.180   0.800   2.945 -2.5006 -1.6883  0.9609
  126MOL   H14217892   4.217   0.742   3.299 -0.2952  1.4728  0.8732
  127MOL     C117893   0.958   6.113   5.248  0.5210 -0.4142  0.2515
  127MOL     C217894   1.056   5.999   5.272  0.6952  0.5625  0.5499
  127MOL     O317895   0.855   6.119   5.345  0.5362  0.1186  1.0050
  127MOL     H417896   0.908   6.116   5.151  2.0259 -0.4833 -0.5373
  127MOL     H517897   1.097   6.003   5.373  1.1498 -2.4192  0.5156
  127MOL     H617898   1.140   6.001   5.202  0.7282  0.0237  0.5757
  127MOL     H717899   1.009   5.902   5.254  0.4536  0.7960 -0.0994
  127MOL     H817900   1.009   6.208   5.262  2.4942 -1.4332  0.1488
  127MOL     C917901   0.761   6.223   5.335 -0.3098 -0.0244 -0.5190
  127MOL    C1017902   0.647   6.181   5.255 -0.1564  0.1192 -0.3430
  127MOL    O1117903   0.712   6.265   5.457 -0.1890  0.0658  0.1668
  127MOL    H1217904   0.803   6.310   5.284 -0.9107  0.2436 -0.5635
  127MOL    H1317905   0.682   6.167   5.153 -2.7589 -0.3370 -1.2073
  127MOL    H1417906   0.572   6.260   5.264 -1.3464 -1.1153  0.6814
  127MOL    H1517907   0.594   6.096   5.299 -1.0962  0.2410 -1.2244
  127MOL    C1617908   0.803   6.315   5.547 -0.8213 -0.2227 -1.0035
  127MOL    C1717909   0.810   6.466   5.539  0.3344  0.2732 -0.6946
  127MOL    O1817910   0.750   6.276   5.668 -0.1045 -0.3556  0.5097
  127MOL    H1917911   0.904   6.273   5.547 -0.3318  0.9479 -0.2305
  127MOL    H2017912   0.714   6.515   5.522 -1.1911 -1.8757  1.4560
  127MOL    H2117913   0.865   6.495   5.449  2.5407 -0.6206  0.3269
  127MOL    H2217914   0.863   6.515   5.621  0.9621  2.1600 -2.1841
  127MOL    C2317915   0.725   6.137   5.690 -0.3667  0.7030  0.8495
  127MOL    C2417916   0.857   6.058   5.708  0.7070 -0.1955 -0.2965
  127MOL    O2517917   0.656   6.121   5.809  0.2988  0.8381 -0.2334
  127MOL    H2617918   0.672   6.094   5.605  0.5522 -0.5846  0.9044
  127MOL    H2717919   0.916   6.062   5.617  1.0003  2.0401 -0.0537
  127MOL    H2817920   0.824   5.956   5.725 -1.6635  0.7610  1.1276
  127MOL    H2917921   0.908   6.098   5.796 -1.2411  0.0639  0.7514
  127MOL    C3017922   0.533   6.193   5.809 -0.4939  0.8409  0.2015
  127MOL    C3117923   0.430   6.105   5.741  0.6878  0.1280  0.4428
  127MOL    O3217924   0.479   6.214   5.936  0.7379 -0.1771 -0.4411
  127MOL    H3317925   0.548   6.292   5.766  3.2146  0.7419  1.0842
  127MOL    H3417926   0.411   6.018   5.805 -0.1808  0.6455  0.8988
  127MOL    H3517927   0.452   6.076   5.639 -1.8055  1.0453 -0.4029
  127MOL    H3617928   0.336   6.160   5.728  0.6370 -0.4961 -2.0380
  127MOL    C3717929   0.561   6.299   6.014 -0.8124 -0.7666  0.4024
  127MOL    C3817930   0.479   6.418   6.058 -0.1059 -1.1000  0.3246
  127MOL    O3917931   0.595   6.241   6.132  1.1053 -0.2442 -0.2657
  127MOL    H4017932   0.652   6.337   5.968 -0.0354 -1.3295  1.4448
  127MOL    H4117933   0.419   6.463   5.979 -1.4809  2.0648  3.0389
  127MOL    H4217934   0.548   6.490   6.102  0.4587 -2.2593  1.3615
  127MOL    H4317935   0.407   6.381   6.131 -0.9700  0.8595  0.5006
  127MOL    C4417936   0.678   6.135   6.127  0.4044  0.1932 -0.5539
  127MOL    C4517937   0.822   6.160   6.183  0.7338  0.2316  0.4385
  127MOL    O4617938   0.617   6.036   6.209 -0.6580 -0.5248  0.0274
  127MOL    H4717939   0.696   6.102   6.025  0.2808  1.4160 -0.9740
  127MOL    H4817940   0.854   6.249   6.129  0.4239 -0.2479 -0.5435
  127MOL    H4917941   0.897   6.082   6.175  0.4009  0.0125 -0.5913
  127MOL    H5017942   0.818   6.175   6.291  0.2201 -0.5338  0.5270
  127MOL    C5117943   0.499   5.976   6.156 -0.4517 -0.5154 -0.5693
  127MOL    C5217944   0.537   5.864   6.054  0.0628  0.0571 -0.2717
  127MOL    O5317945   0.429   5.913   6.257 -0.0998 -0.0299  0.1841
  127MOL    H5417946   0.438   6.049   6.103  0.4198 -0.6604 -1.7850
  127MOL    H5517947   0.446   5.837   6.001 -0.6902  1.2744  0.3746
  127MOL    H5617948   0.574   5.783   6.116 -0.6772 -0.7406 -0.8666
  127MOL    H5717949   0.623   5.901   5.998  0.4611 -2.1198 -1.1521
  127MOL    C5817950   0.390   6.006   6.360  0.2229  0.4566  0.2263
  127MOL    C5917951   0.235   6.017   6.354 -0.1238 -0.2972  0.1228
  127MOL    O6017952   0.434   5.954   6.483  0.5705  0.2903  0.1600
  127MOL    H6117953   0.429   6.107   6.351  1.6927 -0.1926 -0.7753
  127MOL    H6217954   0.202   6.080   6.437  3.1401  1.6993 -0.0030
  127MOL    H6317955   0.198   5.919   6.382 -1.8881  0.0039 -1.0764
  127MOL    H6417956   0.198   6.051   6.257  1.8634 -0.3943 -0.7059
  127MOL    C6517957   0.575   5.965   6.514  0.7696 -0.1485 -0.7016
  127MOL    C6617958   0.596   6.089   6.597 -0.4107  0.8454 -0.5513
  127MOL    O6717959   0.604   5.853   6.593  0.4102 -0.0506 -0.1323
  127MOL    H6817960   0.645   5.963   6.431 -0.8844 -2.8053 -2.1158
  127MOL    H6917961   0.692   6.085   6.649  1.4560  2.2356 -3.7866
  127MOL    H7017962   0.523   6.098   6.677  0.8864 -0.5313  0.8433
  127MOL    H7117963   0.600   6.175   6.531 -0.2985 -0.3247 -2.0909
  127MOL    C7217964   0.620   5.742   6.516  0.0651  1.0364 -0.4182
  127MOL    C7317965   0.768   5.710   6.521 -0.4606 -0.2898 -0.5785
  127MOL    O7417966   0.556   5.638   6.585  0.0495 -0.2291  0.4469
  127MOL    H7517967   0.590   5.751   6.411  0.3884 -0.8284 -0.6741
  127MOL    H7617968   0.794   5.695   6.625 -0.9606 -0.4713 -0.4775
  127MOL    H7717969   0.819   5.804   6.500 -0.8743  0.0955  0.1262
  127MOL    H7817970   0.784   5.618   6.465  0.4009  0.3959 -1.4867
  127MOL    C7917971   0.416   5.643   6.578 -0.1530 -0.7446  0.4237
  127MOL    C8017972   0.365   5.553   6.461  0.6893  0.1336  0.4330
  127MOL    O8117973   0.355   5.604   6.696 -0.5887  0.6433  0.1931
  127MOL    H8217974   0.375   5.742   6.556 -0.6414 -1.4981 -2.2321
  127MOL    H8317975   0.412   5.580   6.367  1.3252 -1.7347  0.1820
  127MOL    H8417976   0.256   5.550   6.452  0.6794 -1.6106  0.7841
  127MOL    H8517977   0.398   5.452   6.486  0.4295  0.1024  0.6615
  127MOL    C8617978   0.382   5.687   6.810  0.0911 -0.2050 -0.1625
  127MOL    C8717979   0.256   5.761   6.851 -0.1041  0.0613  0.0657
  127MOL    O8817980   0.425   5.612   6.912 -0.0644  0.1774 -0.1114
  127MOL    H8917981   0.452   5.765   6.778  0.7204  0.7351  3.2227
  127MOL    H9017982   0.224   5.824   6.768  1.8788  0.4356 -0.4391
  127MOL    H9117983   0.289   5.838   6.921  1.3025 -0.9706  0.5643
  127MOL    H9217984   0.179   5.697   6.895  0.2033 -1.1510 -1.1318
  127MOL    C9317985   0.546   5.550   6.886  0.0072  0.0575 -0.3437
  127MOL    C9417986   0.655   5.638   6.947 -0.6448 -0.7133 -0.1592
  127MOL    O9517987   0.560   5.431   6.955  0.2778  0.1472 -0.0636
  127MOL    H9617988   0.578   5.525   6.785  0.4080 -0.4325 -0.1004
  127MOL    H9717989   0.638   5.673   7.049  0.9601  1.0680 -0.4805
  127MOL    H9817990   0.668   5.724   6.882  1.0333  0.7426  2.0289
  127MOL    H9917991   0.751   5.586   6.952  0.7579  1.8747  0.9785
  127MOL   C10017992   0.469   5.333   6.906 -0.4644 -0.2759  0.5452
  127MOL   C10117993   0.563   5.248   6.814 -0.7044  0.5183 -0.0030
  127MOL   O10217994   0.416   5.258   7.007  0.1741 -0.1587 -0.4391
  127MOL   H10317995   0.394   5.378   6.840  0.4180 -0.3373 -0.5220
  127MOL   H10417996   0.499   5.169   6.776  0.5795 -2.0069  2.8118
  127MOL   H10517997   0.652   5.203   6.859 -0.5274 -0.0931 -0.9417
  127MOL   H10617998   0.602   5.308   6.731  0.4623  0.6004  0.5923
  127MOL   C10717999   0.339   5.324   7.099 -0.2356  0.5561  0.8411
  127MOL   C10818000   0.200   5.258   7.091  0.1353 -0.8469 -0.0893
  127MOL   O10918001   0.382   5.304   7.224  0.5433 -0.0319  0.5431
  127MOL   H11018002   0.330   5.431   7.076 -0.6956  0.1521 -0.8780
  127MOL   H11118003   0.138   5.292   7.174  0.9694 -0.3904  0.3573
  127MOL   H11218004   0.225   5.152   7.101 -1.1332 -1.0501  0.9643
  127MOL   H11318005   0.150   5.274   6.995 -1.7608 -0.2520  0.9735
  127MOL   C11418006   0.513   5.351   7.248 -0.1512  0.2539 -0.2728
  127MOL   C11518007   0.496   5.436   7.371 -0.0419  0.0505  0.6533
  127MOL   O11618008   0.593   5.250   7.298  0.0542 -0.1226  0.1660
  127MOL   H11718009   0.564   5.411   7.173 -0.9945 -0.3171 -1.3104
  127MOL   H11818010   0.433   5.520   7.344  0.0443 -0.0834  0.0200
  127MOL   H11918011   0.592   5.469   7.412  0.6004  0.2873 -0.9953
  127MOL   H12018012   0.437   5.380   7.444 -1.2314  0.3872 -0.0541
  127MOL   C12118013   0.655   5.173   7.205 -0.3905  0.3014 -0.4600
  127MOL   C12218014   0.799   5.223   7.171 -0.0664  0.1439  0.0594
  127MOL   O12318015   0.671   5.042   7.246 -0.2337 -0.1074  0.2886
  127MOL   H12418016   0.597   5.182   7.113 -1.4198  0.0313  0.1548
  127MOL   H12518017   0.784   5.317   7.119  1.3412  0.0641 -0.5122
  127MOL   H12618018   0.846   5.144   7.112 -1.7852 -0.8320 -0.0442
  127MOL   H12718019   0.856   5.239   7.263 -0.4551  1.4703  0.0681
  127MOL   C12818020   0.558   4.966   7.218  0.0040 -0.4239 -0.4956
  127MOL   C12918021   0.620   4.842   7.142 -0.0493 -0.7499 -0.2133
  127MOL   O13018022   0.508   4.907   7.339 -0.0426 -0.3568  0.2641
  127MOL   H13118023   0.473   5.012   7.167  0.0657  0.5278  0.2370
  127MOL   H13218024   0.683   4.792   7.217 -0.2491  0.8558  1.0485
  127MOL   H13318025   0.673   4.869   7.051 -0.6262  1.4506  0.0792
  127MOL   H13418026   0.540   4.770   7.121  0.2209 -0.6755 -1.5021
  127MOL   C13518027   0.451   4.986   7.441 -0.4978 -0.1642 -0.2435
  127MOL   C13618028   0.308   5.016   7.402 -0.6551  0.2694  0.3587
  127MOL   O13718029   0.448   4.913   7.563 -0.4914 -0.5052  0.4653
  127MOL   H13818030   0.519   5.069   7.458  0.1627 -0.9068  0.8308
  127MOL   H13918031   0.267   5.095   7.466 -2.1294  0.3959 -0.7079
  127MOL   H14018032   0.235   4.935   7.408 -2.6603  2.0332  0.5001
  127MOL   H14118033   0.301   5.044   7.297  1.0435  1.0724  0.4447
  127MOL   H14218034   0.520   4.851   7.566  0.2926  0.1381 -2.9329
  128MOL     C118035   5.201   5.491   4.745  0.3674  0.1180  0.2372
  128MOL     C218036   5.070   5.460   4.671  0.3480  0.1304  0.4339
  128MOL     O318037   5.252   5.364   4.787 -0.1432  0.4406 -0.0340
  128MOL     H418038   5.177   5.552   4.831 -0.3085 -1.7331  1.4036
  128MOL     H518039   5.099   5.408   4.580 -2.0725  0.8265 -0.7812
  128MOL     H618040   5.021   5.553   4.642 -0.2127 -0.1598  0.4202
  128MOL     H718041   4.997   5.407   4.734  0.9138  0.0950  1.0624
  128MOL     H818042   5.272   5.544   4.681  0.8500 -1.3624 -0.5082
  128MOL     C918043   5.393   5.380   4.821 -0.5286 -0.5467 -0.1554
  128MOL    C1018044   5.397   5.440   4.964  0.1679  0.6505 -0.1114
  128MOL    O1118045   5.448   5.250   4.830  0.1577  0.1406 -1.1757
  128MOL    H1218046   5.454   5.451   4.766 -0.4246 -0.2022  0.4036
  128MOL    H1318047   5.319   5.395   5.026  1.0905 -2.2004 -0.9366
  128MOL    H1418048   5.378   5.546   4.948 -1.4986  0.2525 -0.8215
  128MOL    H1518049   5.496   5.438   5.010  0.4136  1.8109 -0.5706
  128MOL    C1618050   5.510   5.206   4.712 -0.1036  0.0419  0.3858
  128MOL    C1718051   5.657   5.181   4.753  0.0623  0.5175  0.1613
  128MOL    O1818052   5.460   5.086   4.666 -0.3927 -0.1725 -0.5050
  128MOL    H1918053   5.503   5.277   4.630  0.9885  1.7636  1.7313
  128MOL    H2018054   5.719   5.161   4.666  1.0100 -0.0358  0.9521
  128MOL    H2118055   5.669   5.098   4.822 -1.8428  0.9604  1.0695
  128MOL    H2218056   5.695   5.279   4.783 -1.1047  0.7679  0.8663
  128MOL    C2318057   5.340   5.085   4.606 -0.1141  0.4402  0.5291
  128MOL    C2418058   5.353   5.036   4.459  0.1824  0.4038  0.1555
  128MOL    O2518059   5.251   4.994   4.661  0.1168 -0.3183  0.1126
  128MOL    H2618060   5.290   5.181   4.600 -0.0279  0.5743  1.8961
  128MOL    H2718061   5.396   4.935   4.458  1.3847  0.9119 -1.3837
  128MOL    H2818062   5.404   5.112   4.400 -1.2714  0.8142 -0.5833
  128MOL    H2918063   5.251   5.026   4.423  0.3009  0.3241 -0.1651
  128MOL    C3018064   5.202   5.031   4.785 -0.6416 -0.4534 -0.2810
  128MOL    C3118065   5.051   5.055   4.767 -1.0153 -0.1704  0.1640
  128MOL    O3218066   5.218   4.929   4.875  0.2106 -0.1591 -0.4591
  128MOL    H3318067   5.254   5.122   4.816 -1.5978  0.8334 -2.3033
  128MOL    H3418068   5.004   4.975   4.710  0.2401  0.0659 -1.2383
  128MOL    H3518069   5.043   5.146   4.707 -0.6172 -1.2846 -1.6214
  128MOL    H3618070   5.007   5.065   4.866  1.0283 -1.0910  1.2016
  128MOL    C3718071   5.347   4.915   4.918 -0.5715 -0.3677 -0.0084
  128MOL    C3818072   5.346   4.937   5.069  0.7459 -0.1118 -0.0044
  128MOL    O3918073   5.387   4.781   4.911  0.1238 -0.6628 -0.8839
  128MOL    H4018074   5.421   4.986   4.881  2.6294 -1.7894  3.3201
  128MOL    H4118075   5.289   4.859   5.120 -0.5237  1.6972  1.4104
  128MOL    H4218076   5.312   5.037   5.097 -0.4956 -0.2097 -1.0887
  128MOL    H4318077   5.447   4.921   5.105  0.7623  3.2127  1.6121
  128MOL    C4418078   5.436   4.742   4.788 -0.5873  0.3063 -0.3004
  128MOL    C4518079   5.574   4.691   4.813  1.1034  0.4327  0.8538
  128MOL    O4618080   5.363   4.631   4.746  0.5769 -0.8010  0.2877
  128MOL    H4718081   5.441   4.820   4.712  0.8676  1.1240  0.6143
  128MOL    H4818082   5.624   4.754   4.887 -0.3403 -0.6865  2.8280
  128MOL    H4918083   5.620   4.685   4.715  1.3294 -0.4262  1.0126
  128MOL    H5018084   5.562   4.594   4.862 -2.9926  0.0493 -0.7083
  128MOL    C5118085   5.246   4.668   4.690  0.4010  0.3892 -0.4520
  128MOL    C5218086   5.257   4.648   4.542  0.4989  0.0613  0.3075
  128MOL    O5318087   5.149   4.580   4.748 -0.4543  0.3577  1.0573
  128MOL    H5418088   5.211   4.769   4.710 -1.5301 -0.7743  2.4193
  128MOL    H5518089   5.291   4.548   4.515 -0.7344 -0.5597  1.0201
  128MOL    H5618090   5.334   4.714   4.503  0.4150  0.4320  0.7597
  128MOL    H5718091   5.168   4.676   4.486  0.1667 -1.6750 -0.0334
  128MOL    C5818092   5.112   4.622   4.875  0.4815 -0.3998 -0.1721
  128MOL    C5918093   4.968   4.676   4.863 -0.4337  0.8557 -0.2332
  128MOL    O6018094   5.103   4.514   4.964  0.2260 -0.0508  0.5906
  128MOL    H6118095   5.172   4.706   4.911  0.3695 -0.3578 -0.0830
  128MOL    H6218096   4.971   4.766   4.802 -2.0387  0.4226 -0.9750
  128MOL    H6318097   4.936   4.702   4.964 -0.0287  0.0747  0.0971
  128MOL    H6418098   4.905   4.600   4.819  0.4333  0.0917 -0.1665
  128MOL    C6518099   5.220   4.478   5.030 -0.5884  0.3947 -0.0019
  128MOL    C6618100   5.189   4.493   5.177 -0.0377 -0.0239  0.1766
  128MOL    O6718101   5.242   4.343   5.011  0.3513  0.7179 -0.3649
  128MOL    H6818102   5.314   4.532   5.017 -0.7234  0.4294 -0.8739
  128MOL    H6918103   5.102   4.435   5.209 -1.1306  2.5013  1.8751
  128MOL    H7018104   5.181   4.598   5.204  2.2705 -0.3663  2.3748
  128MOL    H7118105   5.273   4.453   5.234 -0.0529  0.1738  0.3344
  128MOL    C7218106   5.304   4.321   4.883 -0.3509  0.9216  0.0980
  128MOL    C7318107   5.446   4.273   4.889 -0.2606 -0.1518 -0.4940
  128MOL    O7418108   5.233   4.215   4.830 -0.0845 -0.5130 -0.2966
  128MOL    H7518109   5.306   4.406   4.815  1.2451  1.0395  0.2815
  128MOL    H7618110   5.470   4.220   4.798 -0.1932 -0.2583 -0.4143
  128MOL    H7718111   5.466   4.206   4.973 -2.0186 -0.3096 -0.1832
  128MOL    H7818112   5.516   4.353   4.914  0.2135 -1.9747  4.6559
  128MOL    C7918113   5.115   4.252   4.773 -0.0173 -0.2680  0.3016
  128MOL    C8018114   5.133   4.254   4.629 -0.1427 -0.6345 -0.0482
  128MOL    O8118115   5.004   4.169   4.800 -0.1749  0.3748  0.8692
  128MOL    H8218116   5.100   4.355   4.806 -1.1283 -0.2816 -0.1563
  128MOL    H8318117   5.222   4.312   4.605 -0.8064  1.0430  1.3633
  128MOL    H8418118   5.039   4.296   4.594  0.4019  1.0431  0.4490
  128MOL    H8518119   5.146   4.156   4.584 -0.2674 -1.5180  1.7728
  128MOL    C8618120   4.945   4.200   4.927 -0.2495 -0.4475 -0.2552
  128MOL    C8718121   4.798   4.253   4.903  0.1445 -0.0744 -0.5121
  128MOL    O8818122   4.930   4.087   5.009 -0.0044  0.1406  0.5949
  128MOL    H8918123   5.006   4.271   4.983  0.3614 -1.9166  0.9914
  128MOL    H9018124   4.751   4.277   4.998 -0.3099 -1.4201 -0.3955
  128MOL    H9118125   4.736   4.173   4.863 -1.4762  0.2817  1.2537
  128MOL    H9218126   4.793   4.338   4.835 -3.5924  0.2990  0.1461
  128MOL    C9318127   5.057   4.033   5.049 -0.3847  0.0698  0.1142
  128MOL    C9418128   5.080   4.074   5.194 -0.6666 -0.0342 -0.3698
  128MOL    O9518129   5.050   3.896   5.038  0.5185 -0.5370  0.9141
  128MOL    H9618130   5.134   4.058   4.976 -2.0873 -0.3135 -1.8598
  128MOL    H9718131   5.179   4.037   5.223  0.6000  3.3489 -0.0863
  128MOL    H9818132   5.009   4.034   5.266 -2.0575  1.6486 -0.7610
  128MOL    H9918133   5.076   4.182   5.211  0.1122 -0.1114  0.3555
  128MOL   C10018134   5.065   3.844   4.910 -0.1549  0.6374  0.1028
  128MOL   C10118135   5.186   3.751   4.919 -0.2578 -0.1995  0.1732
  128MOL   O10218136   4.955   3.762   4.879 -0.1089  0.3320  0.1500
  128MOL   H10318137   5.086   3.917   4.832 -0.4240 -0.7631 -1.3140
  128MOL   H10418138   5.207   3.706   4.822  0.1331  0.2092  0.0720
  128MOL   H10518139   5.162   3.667   4.985 -1.4405 -0.0763 -0.0867
  128MOL   H10618140   5.278   3.805   4.940 -1.0784  1.0165  0.6991
  128MOL   C10718141   4.855   3.827   4.813  1.2087 -0.3878 -0.6512
  128MOL   C10818142   4.863   3.776   4.665 -0.6673  0.7454 -0.1708
  128MOL   O10918143   4.743   3.770   4.869  0.3558 -0.0138  0.3613
  128MOL   H11018144   4.839   3.934   4.825 -2.2874 -0.8311 -0.8676
  128MOL   H11118145   4.955   3.800   4.613  1.0793  1.3737  3.0746
  128MOL   H11218146   4.782   3.824   4.610 -0.9308 -0.3869 -0.7964
  128MOL   H11318147   4.841   3.669   4.662  1.6519  0.2303 -0.1120
  128MOL   C11418148   4.693   3.844   4.973  0.6450  0.3883  0.2872
  128MOL   C11518149   4.558   3.891   4.927  0.0970 -0.4149 -0.5806
  128MOL   O11618150   4.658   3.757   5.076 -0.4374 -0.0737 -0.1624
  128MOL   H11718151   4.754   3.926   5.010 -0.8733  0.1181  3.6021
  128MOL   H11818152   4.568   3.956   4.839 -1.7359  1.7407  0.7284
  128MOL   H11918153   4.496   3.930   5.007  1.4937 -0.4584  0.5336
  128MOL   H12018154   4.491   3.814   4.889  1.1362 -1.0353 -1.1832
  128MOL   C12118155   4.765   3.731   5.157 -0.2286 -0.2255  0.1569
  128MOL   C12218156   4.751   3.807   5.283  0.0917 -0.1248 -0.0939
  128MOL   O12318157   4.780   3.598   5.192 -0.5055 -0.1330 -0.0099
  128MOL   H12418158   4.860   3.767   5.118 -0.5232 -0.2561 -0.5798
  128MOL   H12518159   4.653   3.783   5.322  1.1135 -1.9265  1.4220
  128MOL   H12618160   4.751   3.916   5.273 -1.0781 -0.1854 -0.8636
  128MOL   H12718161   4.833   3.778   5.348  0.9087 -1.0206 -1.4838
  128MOL   C12818162   4.872   3.527   5.112  0.3820 -0.3571 -1.3879
  128MOL   C12918163   4.980   3.471   5.209 -0.2340  0.0635  0.1514
  128MOL   O13018164   4.803   3.420   5.046  0.2849  0.0993 -0.4750
  128MOL   H13118165   4.928   3.593   5.046 -0.5090 -0.0295 -1.8211
  128MOL   H13218166   5.060   3.432   5.146 -1.6009 -3.0595  0.2752
  128MOL   H13318167   4.949   3.396   5.282 -1.1965  1.0776  0.8052
  128MOL   H13418168   5.018   3.545   5.280  0.9866 -0.9845  0.6142
  128MOL   C13518169   4.730   3.463   4.937  0.0914  0.3501  0.2345
  128MOL   C13618170   4.707   3.342   4.846  0.3329 -0.1562  0.5580
  128MOL   O13718171   4.606   3.513   4.967  0.0458 -0.2209 -0.4765
  128MOL   H13818172   4.778   3.539   4.875 -0.5469  1.0464  0.5752
  128MOL   H13918173   4.659   3.257   4.894 -1.3584  1.7775  2.3840
  128MOL   H14018174   4.801   3.313   4.798  0.3052 -0.0303  0.4313
  128MOL   H14118175   4.643   3.368   4.762  1.0806 -0.7894 -0.2160
  128MOL   H14218176   4.622   3.599   5.003 -1.0615 -0.8296  1.5518
  129MOL     C118177   4.723   5.573   5.881  0.1010  0.3506  0.3828
  129MOL     C218178   4.740   5.445   5.800  0.1173 -0.0271  0.1408
  129MOL     O318179   4.637   5.539   5.978 -0.1056  0.6532 -0.0058
  129MOL     H418180   4.690   5.656   5.819  0.8529  0.1392 -0.2988
  129MOL     H518181   4.831   5.437   5.742 -0.1971 -0.1021 -0.3498
  129MOL     H618182   4.653   5.440   5.734  0.2600 -0.4724 -0.0135
  129MOL     H718183   4.738   5.360   5.868  1.5855 -1.9322 -2.1291
  129MOL     H818184   4.824   5.583   5.921  0.4768 -1.5468 -0.0386
  129MOL     C918185   4.619   5.628   6.077  0.4195  0.0653 -0.1420
  129MOL    C1018186   4.543   5.750   6.039 -0.5236  0.1033 -0.6171
  129MOL    O1118187   4.557   5.570   6.190  0.7748 -0.3638  0.1707
  129MOL    H1218188   4.718   5.664   6.107  0.2490  0.1830  0.2700
  129MOL    H1318189   4.581   5.793   5.945 -0.2485 -0.1267 -0.6140
  129MOL    H1418190   4.545   5.815   6.126 -0.9712 -1.3463  0.4952
  129MOL    H1518191   4.437   5.726   6.038 -0.7200  0.7402  2.1841
  129MOL    C1618192   4.636   5.475   6.255 -0.3733  0.3201  0.0091
  129MOL    C1718193   4.659   5.535   6.399 -0.2140 -0.0990 -0.8219
  129MOL    O1818194   4.557   5.358   6.280 -0.3054  0.1589  0.2518
  129MOL    H1918195   4.731   5.465   6.201 -1.1815  0.4663 -1.4562
  129MOL    H2018196   4.700   5.636   6.389  1.7698 -0.7808  0.0821
  129MOL    H2118197   4.728   5.469   6.451  2.1413  0.6768 -2.8604
  129MOL    H2218198   4.567   5.563   6.450  0.0123  1.3287 -1.1744
  129MOL    C2318199   4.541   5.279   6.169 -0.2397 -0.3259  0.2493
  129MOL    C2418200   4.618   5.152   6.183 -0.2933 -0.1855 -0.6882
  129MOL    O2518201   4.406   5.247   6.158 -1.0847 -0.1444  0.6147
  129MOL    H2618202   4.572   5.330   6.078 -0.7989  0.7749  0.6609
  129MOL    H2718203   4.574   5.073   6.121 -0.1653  0.9900 -2.3161
  129MOL    H2818204   4.595   5.119   6.284 -1.5775  0.1845 -0.8484
  129MOL    H2918205   4.721   5.181   6.161 -0.9060  3.0860  0.4386
  129MOL    C3018206   4.329   5.352   6.098  0.1949  0.4422  0.3842
  129MOL    C3118207   4.280   5.324   5.958 -0.6989 -0.1958 -0.0817
  129MOL    O3218208   4.214   5.358   6.174  0.0912 -0.2329 -0.2599
  129MOL    H3318209   4.382   5.447   6.095  0.6881  0.1092 -3.3122
  129MOL    H3418210   4.244   5.222   5.949 -1.4894 -0.2200  2.7504
  129MOL    H3518211   4.365   5.336   5.890  1.0528 -0.1385  2.0669
  129MOL    H3618212   4.195   5.389   5.937 -0.9720 -0.3850  0.4402
  129MOL    C3718213   4.228   5.434   6.289  0.0472  0.3796 -0.0812
  129MOL    C3818214   4.167   5.575   6.270 -0.2920  0.6251  0.3999
  129MOL    O3918215   4.154   5.375   6.394  0.2193  0.5398  0.6312
  129MOL    H4018216   4.332   5.454   6.311 -0.1567  1.8929 -0.4637
  129MOL    H4118217   4.072   5.585   6.218 -0.5976 -0.2400  0.7817
  129MOL    H4218218   4.240   5.643   6.226 -1.8527  0.6194 -2.3014
  129MOL    H4318219   4.139   5.612   6.369 -0.9450 -1.0235  0.8531
  129MOL    C4418220   4.224   5.268   6.446 -0.0414  0.2479  0.3646
  129MOL    C4518221   4.275   5.320   6.589 -0.2135  0.3091  0.2024
  129MOL    O4618222   4.140   5.153   6.458  0.0524  0.2604  0.9374
  129MOL    H4718223   4.314   5.241   6.391 -0.8337 -0.3070 -0.6864
  129MOL    H4818224   4.189   5.337   6.652 -1.9496  0.8283 -2.2294
  129MOL    H4918225   4.333   5.412   6.587  0.4392 -0.1055 -1.3651
  129MOL    H5018226   4.350   5.247   6.621  0.2781  0.2530 -1.0481
  129MOL    C5118227   4.100   5.095   6.332 -0.1702 -0.2564  0.7840
  129MOL    C5218228   4.111   4.945   6.351 -0.1350  0.0104 -0.1316
  129MOL    O5318229   3.965   5.115   6.325 -1.3073 -0.2920  0.0231
  129MOL    H5418230   4.149   5.129   6.241  0.1644 -1.2505  0.5939
  129MOL    H5518231   4.066   4.914   6.445 -0.8426 -1.4843 -0.9441
  129MOL    H5618232   4.217   4.923   6.356  0.2101  1.5941 -0.1401
  129MOL    H5718233   4.068   4.888   6.269  2.9650 -0.3558 -1.5813
  129MOL    C5818234   3.921   5.213   6.240  0.2384 -0.1478  0.8717
  129MOL    C5918235   3.895   5.143   6.109  0.9018 -0.3611 -0.3199
  129MOL    O6018236   3.794   5.254   6.285 -0.0560  0.3152  0.4809
  129MOL    H6118237   3.982   5.302   6.226  2.0556 -1.5517 -0.5017
  129MOL    H6218238   3.856   5.210   6.032 -0.2385  0.4444  0.9352
  129MOL    H6318239   3.817   5.072   6.135  0.6652  0.9673  2.8563
  129MOL    H6418240   3.980   5.086   6.072  1.6391 -0.2235  1.1227
  129MOL    C6518241   3.788   5.361   6.376 -0.2132 -0.1999 -0.0249
  129MOL    C6618242   3.712   5.466   6.301  0.3224  0.2082 -0.4654
  129MOL    O6718243   3.718   5.331   6.490 -0.4418 -0.1134  0.9552
  129MOL    H6818244   3.888   5.390   6.407 -0.5061 -0.6939  1.4280
  129MOL    H6918245   3.617   5.428   6.265  0.7507 -1.7984  0.4515
  129MOL    H7018246   3.770   5.484   6.210  1.1957 -0.5654 -0.0729
  129MOL    H7118247   3.704   5.557   6.361  0.2210 -2.2755  3.4501
  129MOL    C7218248   3.802   5.263   6.582  0.0291 -0.8523 -0.3109
  129MOL    C7318249   3.857   5.370   6.675 -0.2344 -0.2128 -0.0221
  129MOL    O7418250   3.733   5.165   6.652 -0.3557  0.1051 -1.1369
  129MOL    H7518251   3.881   5.222   6.520 -0.9692 -0.0995 -2.1354
  129MOL    H7618252   3.770   5.388   6.738 -0.5488  1.4740 -0.8893
  129MOL    H7718253   3.899   5.458   6.626  0.1520 -1.2634 -1.6230
  129MOL    H7818254   3.929   5.315   6.735  1.6793  0.9440 -1.1618
  129MOL    C7918255   3.680   5.067   6.564 -1.1371  0.3554 -0.1426
  129MOL    C8018256   3.770   4.943   6.582  0.2572  0.1249 -0.3202
  129MOL    O8118257   3.548   5.026   6.594 -0.1923 -0.2234  0.0362
  129MOL    H8218258   3.682   5.093   6.458  0.1931 -3.0503 -1.0503
  129MOL    H8318259   3.869   4.968   6.543 -0.2576  0.7150 -1.2775
  129MOL    H8418260   3.755   4.854   6.521 -0.2387 -0.1215  0.1605
  129MOL    H8518261   3.777   4.915   6.687  0.7027  0.4763 -0.2528
  129MOL    C8618262   3.458   5.135   6.580 -0.2648  0.3958 -0.3771
  129MOL    C8718263   3.374   5.089   6.457  0.3057 -0.0581  0.5657
  129MOL    O8818264   3.366   5.139   6.688 -0.0579  0.2018  0.0428
  129MOL    H8918265   3.502   5.234   6.566 -1.4597  0.7667 -1.5743
  129MOL    H9018266   3.431   5.092   6.364 -1.2130 -0.9210 -0.4314
  129MOL    H9118267   3.288   5.152   6.437  0.9817 -0.0951 -2.9374
  129MOL    H9218268   3.336   4.987   6.466 -0.8445  0.2404 -0.6899
  129MOL    C9318269   3.416   5.195   6.810 -0.4656  0.4425 -0.4001
  129MOL    C9418270   3.316   5.304   6.855 -0.1172 -0.3167 -0.4487
  129MOL    O9518271   3.404   5.098   6.908  0.1657 -0.6237 -0.5221
  129MOL    H9618272   3.517   5.235   6.803  0.3511 -1.1137  2.0213
  129MOL    H9718273   3.326   5.390   6.789 -0.0694 -2.0214 -2.6993
  129MOL    H9818274   3.350   5.335   6.954 -1.7386  0.5237 -0.1410
  129MOL    H9918275   3.218   5.257   6.852  0.1528 -0.9240  0.0101
  129MOL   C10018276   3.497   4.995   6.902 -0.4324 -0.7105  0.2133
  129MOL   C10118277   3.580   5.002   7.033 -0.5640  0.2919 -0.3867
  129MOL   O10218278   3.431   4.874   6.915 -0.7283  0.3703 -0.8747
  129MOL   H10318279   3.568   4.989   6.820 -0.9039  0.7264 -0.3045
  129MOL   H10418280   3.656   4.924   7.028 -0.6036  0.2551 -0.4238
  129MOL   H10518281   3.519   4.985   7.122  0.0398  0.6299  0.0987
  129MOL   H10618282   3.633   5.097   7.044  0.6326 -0.3761 -0.3381
  129MOL   C10718283   3.404   4.820   6.794  0.2740 -0.5536  0.4559
  129MOL   C10818284   3.523   4.728   6.750 -0.0413  0.0903 -0.0300
  129MOL   O10918285   3.283   4.746   6.787 -0.4327  0.0839  0.0730
  129MOL   H11018286   3.392   4.898   6.718  0.8090  0.0028  0.9412
  129MOL   H11118287   3.619   4.780   6.746  0.4700 -0.9171 -1.6183
  129MOL   H11218288   3.510   4.674   6.656 -0.0963 -0.1504  0.1160
  129MOL   H11318289   3.543   4.650   6.823  3.9942  2.9940  2.1704
  129MOL   C11418290   3.167   4.827   6.784  0.4355  0.1399 -0.1265
  129MOL   C11518291   3.084   4.778   6.665  0.7556 -0.3243 -0.0189
  129MOL   O11618292   3.092   4.813   6.897 -0.5493 -0.3047 -0.0588
  129MOL   H11718293   3.177   4.933   6.764 -2.9001  0.4855 -0.2599
  129MOL   H11818294   3.074   4.670   6.674  1.0085 -0.3746 -0.3573
  129MOL   H11918295   3.133   4.809   6.573 -0.5890 -2.0108 -1.3468
  129MOL   H12018296   2.985   4.824   6.674  1.3243  0.8182  0.4845
  129MOL   C12118297   3.128   4.875   7.013  0.7419  0.5834  0.8662
  129MOL   C12218298   3.022   4.978   7.036 -0.3923 -0.6562 -0.3090
  129MOL   O12318299   3.129   4.782   7.122  0.1562  0.3249 -0.0977
  129MOL   H12418300   3.226   4.921   7.003  1.4633 -0.6981  1.8493
  129MOL   H12518301   3.065   5.032   7.121 -1.1347  1.5259 -1.2877
  129MOL   H12618302   2.927   4.930   7.055 -0.4880 -0.6085 -0.6666
  129MOL   H12718303   3.017   5.050   6.955 -0.4376 -0.8349 -0.4651
  129MOL   C12818304   3.241   4.694   7.122 -0.6061 -0.3448  0.2117
  129MOL   C12918305   3.315   4.720   7.251  0.4188  0.1694  0.3950
  129MOL   O13018306   3.207   4.564   7.112 -0.2488  0.2000  0.2960
  129MOL   H13118307   3.298   4.715   7.032 -0.3681  1.5451  0.7830
  129MOL   H13218308   3.414   4.678   7.235 -0.3023 -0.8565 -1.7532
  129MOL   H13318309   3.267   4.669   7.335  1.0137 -0.1206  0.5607
  129MOL   H13418310   3.342   4.824   7.263  0.2515 -0.1166  3.6381
  129MOL   C13518311   3.126   4.520   7.000  0.1638 -0.1137  0.4434
  129MOL   C13618312   3.151   4.366   6.990  0.1741 -0.5247 -0.2078
  129MOL   O13718313   2.992   4.559   7.021  0.2322 -0.0943  0.1125
  129MOL   H13818314   3.160   4.573   6.910 -0.7271 -1.6215 -0.8132
  129MOL   H13918315   3.143   4.316   7.086 -0.6180  1.0275  0.5464
  129MOL   H14018316   3.245   4.344   6.938  0.5939  0.9398 -0.0982
  129MOL   H14118317   3.084   4.316   6.920  0.3386 -0.3113 -0.5222
  129MOL   H14218318   3.004   4.653   7.028  0.3310 -0.0824 -0.2131
  130MOL     C118319   4.367   5.376   0.603 -0.0666 -0.0561 -0.2457
  130MOL     C218320   4.449   5.244   0.600  0.4884  0.1938  0.8521
  130MOL     O318321   4.402   5.465   0.706 -0.1487  0.3215  0.2390
  130MOL     H418322   4.260   5.358   0.618  0.0386 -0.2205  0.3225
  130MOL     H518323   4.553   5.271   0.583  0.5083 -0.2167  0.3105
  130MOL     H618324   4.414   5.170   0.528  0.2723  0.7566  0.3785
  130MOL     H718325   4.442   5.202   0.700  1.7052 -0.7021  0.5775
  130MOL     H818326   4.376   5.407   0.499 -0.0449 -2.5912 -1.0320
  130MOL     C918327   4.324   5.581   0.699 -0.3562  0.0285  0.6158
  130MOL    C1018328   4.205   5.567   0.789 -0.5549 -0.6854 -0.6217
  130MOL    O1118329   4.393   5.693   0.737 -0.1066 -0.4670 -0.3160
  130MOL    H1218330   4.282   5.600   0.600  0.0991 -0.2384  0.3689
  130MOL    H1318331   4.134   5.490   0.760 -0.7025 -0.4780 -0.7995
  130MOL    H1418332   4.150   5.660   0.783 -0.3151 -0.4558  0.4824
  130MOL    H1518333   4.230   5.547   0.894  0.5233 -2.0293 -1.1151
  130MOL    C1618334   4.492   5.720   0.645  0.5781  0.1376  0.6649
  130MOL    C1718335   4.440   5.833   0.555  0.3405  0.3501 -0.0265
  130MOL    O1818336   4.601   5.769   0.711 -0.1336 -0.6677  0.1352
  130MOL    H1918337   4.530   5.632   0.593  0.0655  0.3347 -0.0452
  130MOL    H2018338   4.521   5.872   0.493  1.4060 -0.3989  0.8927
  130MOL    H2118339   4.382   5.911   0.606 -0.1209  0.2839 -0.4457
  130MOL    H2218340   4.369   5.794   0.483  2.4688 -0.1863 -1.8852
  130MOL    C2318341   4.658   5.683   0.803 -0.2261  0.3175 -0.3174
  130MOL    C2418342   4.773   5.614   0.741  0.1171  0.3462  0.7617
  130MOL    O2518343   4.702   5.749   0.915  0.4416 -0.1536 -0.7538
  130MOL    H2618344   4.583   5.607   0.825  0.0345 -0.3472 -1.6827
  130MOL    H2718345   4.810   5.538   0.809 -0.3168 -0.7828 -0.2540
  130MOL    H2818346   4.859   5.678   0.721 -0.2709  0.8831  0.8060
  130MOL    H2918347   4.737   5.560   0.654  0.0059  2.0114 -0.2505
  130MOL    C3018348   4.593   5.787   0.998 -0.5129 -0.4145 -0.6914
  130MOL    C3118349   4.612   5.730   1.139  0.4292 -0.2016  0.4392
  130MOL    O3218350   4.585   5.932   1.023  0.0428 -0.1705 -0.0834
  130MOL    H3318351   4.495   5.768   0.954 -0.2888 -0.8233 -1.0153
  130MOL    H3418352   4.718   5.730   1.164  0.3125 -0.4828  0.9548
  130MOL    H3518353   4.572   5.630   1.149  1.0449 -0.3040  2.1382
  130MOL    H3618354   4.559   5.796   1.208  0.3048  0.0637  0.0928
  130MOL    C3718355   4.502   6.004   0.934  0.3848  0.2323  0.0206
  130MOL    C3818356   4.356   5.998   0.989 -0.4580 -0.5686  0.7729
  130MOL    O3918357   4.533   6.135   0.932  0.0299  0.1537  0.5450
  130MOL    H4018358   4.501   5.957   0.835 -3.6413  0.4803 -0.1232
  130MOL    H4118359   4.336   5.900   1.032 -0.2038 -1.1303 -0.3686
  130MOL    H4218360   4.287   6.025   0.910  0.7166  1.7843  0.5033
  130MOL    H4318361   4.353   6.063   1.077  1.0995  0.2329  0.2467
  130MOL    C4418362   4.625   6.172   0.831  0.0916  0.4051 -0.0430
  130MOL    C4518363   4.548   6.266   0.740 -0.0159 -0.4570  0.6431
  130MOL    O4618364   4.738   6.239   0.873  0.3456  0.3913  0.1430
  130MOL    H4718365   4.677   6.091   0.779 -0.4101 -0.0221  0.1257
  130MOL    H4818366   4.456   6.216   0.710 -0.0646  0.1446 -0.2400
  130MOL    H4918367   4.612   6.296   0.657 -1.2849 -1.5235 -0.7437
  130MOL    H5018368   4.518   6.351   0.802 -1.9093 -0.8700  0.3250
  130MOL    C5118369   4.831   6.157   0.936  0.0914  0.1047  0.3105
  130MOL    C5218370   4.937   6.117   0.834 -0.0289  0.2811  0.1139
  130MOL    O5318371   4.894   6.221   1.048  0.2171  0.4777  0.2006
  130MOL    H5418372   4.775   6.070   0.970 -1.6013  0.4811 -1.4136
  130MOL    H5518373   4.890   6.064   0.751 -2.4745  2.1143  0.2487
  130MOL    H5618374   5.015   6.055   0.878  0.5482  1.3031  0.5434
  130MOL    H5718375   4.987   6.205   0.794 -0.2873 -0.9581 -3.0785
  130MOL    C5818376   4.800   6.267   1.138  0.2598 -0.5107 -0.1233
  130MOL    C5918377   4.787   6.163   1.249 -0.2249  1.3810 -0.0637
  130MOL    O6018378   4.824   6.391   1.198  0.4751  0.2125 -0.2355
  130MOL    H6118379   4.700   6.282   1.096 -0.3946  1.1856  1.9648
  130MOL    H6218380   4.885   6.181   1.293  1.1029  1.8128 -3.0983
  130MOL    H6318381   4.783   6.059   1.213  1.0227  0.7546  1.5637
  130MOL    H6418382   4.701   6.182   1.313 -0.1370  1.6584 -0.0315
  130MOL    C6518383   4.837   6.489   1.098  0.1539 -0.0953 -0.3458
  130MOL    C6618384   4.704   6.558   1.108 -0.1112 -0.1162 -0.2114
  130MOL    O6718385   4.923   6.587   1.141  0.2113 -0.2539  0.4105
  130MOL    H6818386   4.865   6.444   1.003 -0.3315 -3.1417  0.8929
  130MOL    H6918387   4.685   6.565   1.215  3.1207 -0.6590  0.4602
  130MOL    H7018388   4.624   6.504   1.057  0.7944  0.2505 -2.0710
  130MOL    H7118389   4.708   6.658   1.064 -0.6053  0.9018  1.9882
  130MOL    C7218390   5.055   6.530   1.143 -0.1626 -0.1672  0.0201
  130MOL    C7318391   5.113   6.533   1.005 -0.1214 -0.2358  0.3980
  130MOL    O7418392   5.144   6.611   1.224 -0.1345 -0.0418  0.0148
  130MOL    H7518393   5.049   6.427   1.177  0.3641 -0.0846  0.3609
  130MOL    H7618394   5.119   6.636   0.970 -2.0139 -0.2132  0.0887
  130MOL    H7718395   5.058   6.471   0.934  0.7076 -0.9437  0.3748
  130MOL    H7818396   5.215   6.494   1.007  0.0615  0.2020 -0.2176
  130MOL    C7918397   5.108   6.631   1.358  0.7365  0.8086  0.7829
  130MOL    C8018398   5.184   6.524   1.441 -0.4161 -0.5842 -0.2444
  130MOL    O8118399   5.140   6.753   1.407  0.5406 -0.0980 -0.0988
  130MOL    H8218400   5.002   6.613   1.373  0.3744  2.4875  0.4185
  130MOL    H8318401   5.175   6.421   1.407 -0.5176 -0.9031  0.7440
  130MOL    H8418402   5.135   6.519   1.539 -1.0441 -5.0767 -0.6993
  130MOL    H8518403   5.289   6.548   1.457 -0.8518  0.3995  1.2627
  130MOL    C8618404   5.062   6.862   1.342  0.3820  0.1735  0.0645
  130MOL    C8718405   4.944   6.912   1.432 -0.2217 -0.2169  0.8316
  130MOL    O8818406   5.145   6.975   1.313 -0.0138 -0.2877 -0.4094
  130MOL    H8918407   5.018   6.835   1.246 -5.2799  3.9815  1.3434
  130MOL    H9018408   4.978   6.927   1.535  0.1094  0.5040  0.6143
  130MOL    H9118409   4.866   6.836   1.429 -0.1684 -0.2794  0.9880
  130MOL    H9218410   4.902   7.004   1.393 -0.2067 -0.1674  0.9329
  130MOL    C9318411   5.238   6.954   1.207  0.2742 -0.1489  0.2097
  130MOL    C9418412   5.176   7.011   1.071 -0.1147  0.3459 -0.0339
  130MOL    O9518413   5.365   7.011   1.225  0.4375  0.7866  0.1161
  130MOL    H9618414   5.254   6.846   1.199 -0.1119 -0.1612 -0.3838
  130MOL    H9718415   5.078   6.973   1.043  0.2000  0.4448 -1.3328
  130MOL    H9818416   5.241   6.984   0.987  0.4200  0.0745  0.4645
  130MOL    H9918417   5.172   7.119   1.083  0.0593  0.3758 -0.2476
  130MOL   C10018418   5.418   6.962   1.347 -0.0678  0.9925 -0.7994
  130MOL   C10118419   5.536   6.875   1.314 -0.3262 -0.4813  0.0371
  130MOL   O10218420   5.473   7.068   1.424  0.4467  0.5005  0.4093
  130MOL   H10318421   5.347   6.914   1.414  1.0858 -1.9450 -1.6164
  130MOL   H10418422   5.602   6.851   1.397  0.7014  1.4956 -0.1713
  130MOL   H10518423   5.600   6.934   1.248  0.0496  0.6934  1.4387
  130MOL   H10618424   5.502   6.787   1.259 -1.6072  0.5071 -0.7992
  130MOL   C10718425   5.385   7.166   1.463  0.0562 -0.1425 -0.7429
  130MOL   C10818426   5.380   7.155   1.612 -0.0527 -0.4290  0.1994
  130MOL   O10918427   5.437   7.293   1.439 -0.4936  0.8518  0.5420
  130MOL   H11018428   5.282   7.163   1.428 -0.0988 -1.3534 -0.2037
  130MOL   H11118429   5.371   7.054   1.652 -0.8120 -0.2932  0.3749
  130MOL   H11218430   5.300   7.214   1.656  0.5492  0.5393  0.0175
  130MOL   H11318431   5.474   7.177   1.663  0.1593  2.0509 -1.1755
  130MOL   C11418432   5.433   7.330   1.305  0.1463  0.0516  0.0565
  130MOL   C11518433   5.307   7.409   1.277 -0.1147 -0.2148  0.3353
  130MOL   O11618434   5.556   7.389   1.263 -0.2340  0.1068  0.1226
  130MOL   H11718435   5.430   7.239   1.246 -1.7660  0.0499  0.1282
  130MOL   H11818436   5.223   7.346   1.305 -0.8933 -0.1950 -1.8783
  130MOL   H11918437   5.303   7.427   1.170 -0.1930  0.5360  0.4616
  130MOL   H12018438   5.314   7.505   1.329  1.3426  0.1227 -0.4324
  130MOL   C12118439   5.668   7.305   1.272 -0.4263 -0.3030 -1.1970
  130MOL   C12218440   5.676   7.236   1.141 -0.1900  0.5533 -0.1907
  130MOL   O12318441   5.795   7.378   1.286 -0.1371  0.3529 -0.4600
  130MOL   H12418442   5.656   7.235   1.355 -0.0758  0.3308 -0.6066
  130MOL   H12518443   5.782   7.212   1.140 -0.2455  0.3080 -1.4658
  130MOL   H12618444   5.642   7.295   1.055  0.3039 -0.2845 -0.9634
  130MOL   H12718445   5.626   7.139   1.137  0.8108  0.0325 -0.1025
  130MOL   C12818446   5.786   7.480   1.379 -0.2393 -0.2709  0.0978
  130MOL   C12918447   5.818   7.429   1.524 -1.0055  0.1491 -0.3339
  130MOL   O13018448   5.900   7.559   1.354 -0.0724  0.3358  0.7342
  130MOL   H13118449   5.696   7.542   1.379 -1.8648 -2.5678  1.2433
  130MOL   H13218450   5.900   7.362   1.497 -2.2440 -1.3143 -0.5434
  130MOL   H13318451   5.733   7.369   1.558 -1.6144  1.4832  0.5358
  130MOL   H13418452   5.841   7.506   1.597 -0.8150  0.1988 -0.4460
  130MOL   C13518453   5.878   7.634   1.236 -0.7883  0.4865 -0.0947
  130MOL   C13618454   5.821   7.767   1.277  0.0146 -0.3259 -0.1455
  130MOL   O13718455   5.998   7.660   1.161 -0.2975 -0.6736  0.3415
  130MOL   H13818456   5.806   7.591   1.166 -0.9548  0.3497  0.1594
  130MOL   H13918457   5.881   7.818   1.352  1.2663  0.3761 -1.5866
  130MOL   H14018458   5.723   7.746   1.319  0.2984 -0.2040  0.5865
  130MOL   H14118459   5.817   7.828   1.186  0.8854  1.3020  0.8737
  130MOL   H14218460   6.059   7.588   1.157 -0.3398 -0.6799 -0.2496
  131MOL     C118461   5.428   0.600   0.896  0.6596  0.2349  0.8232
  131MOL     C218462   5.405   0.636   0.747  0.2163 -0.0397 -0.5888
  131MOL     O318463   5.543   0.523   0.896  0.0186 -0.3677  0.1115
  131MOL     H418464   5.343   0.540   0.928  1.6260 -0.0192  2.9610
  131MOL     H518465   5.316   0.697   0.745 -1.0806 -1.8941 -0.8567
  131MOL     H618466   5.399   0.548   0.683 -0.8243  0.6874 -1.4844
  131MOL     H718467   5.488   0.691   0.703  0.9930 -1.4831 -0.9813
  131MOL     H818468   5.437   0.686   0.961  2.4841  0.1140  0.7609
  131MOL     C918469   5.583   0.462   1.023 -0.1038  0.3042 -0.1984
  131MOL    C1018470   5.590   0.563   1.136 -0.5030 -0.0911  0.6499
  131MOL    O1118471   5.503   0.360   1.068  0.9624  0.4935  0.0195
  131MOL    H1218472   5.685   0.426   1.009  0.6665  2.0582  0.7949
  131MOL    H1318473   5.660   0.637   1.098  0.7839 -2.3490 -1.5951
  131MOL    H1418474   5.638   0.512   1.220 -1.8717 -0.3517  1.2899
  131MOL    H1518475   5.498   0.602   1.180  0.4987  2.7806  0.2671
  131MOL    C1618476   5.541   0.241   1.018  0.3265 -0.0360 -0.1043
  131MOL    C1718477   5.632   0.165   1.114 -0.9324  0.6635 -0.3039
  131MOL    O1818478   5.429   0.165   0.986 -0.6993  0.1056 -0.0428
  131MOL    H1918479   5.593   0.251   0.922  2.9702 -4.3725  0.7395
  131MOL    H2018480   5.730   0.211   1.110 -1.4370  1.5575 -2.7764
  131MOL    H2118481   5.641   0.062   1.081  0.1712  0.7276 -0.2091
  131MOL    H2218482   5.593   0.167   1.216 -1.5171 -1.7959 -0.4484
  131MOL    C2318483   5.352   0.207   0.882 -0.1462 -0.3776  0.0037
  131MOL    C2418484   5.386   0.114   0.768 -0.1992  0.4420  0.0134
  131MOL    O2518485   5.218   0.183   0.911 -0.1825 -0.5109 -0.1051
  131MOL    H2618486   5.364   0.311   0.854  0.2090 -0.4310 -0.0370
  131MOL    H2718487   5.357   0.010   0.787  0.5178  0.1556 -0.4326
  131MOL    H2818488   5.489   0.117   0.731 -0.3030 -0.0456 -0.3328
  131MOL    H2918489   5.335   0.148   0.678  2.0531  0.6715 -1.2357
  131MOL    C3018490   5.165   0.259   1.014 -0.2044  0.3856  0.4847
  131MOL    C3118491   5.017   0.296   0.968 -0.0010 -0.3772  0.5778
  131MOL    O3218492   5.139   0.161   1.124  0.3516 -0.2715 -0.2726
  131MOL    H3318493   5.221   0.346   1.047  1.0222 -1.1198  2.4431
  131MOL    H3418494   4.972   0.203   0.933 -1.0976  0.3373  0.0401
  131MOL    H3518495   5.029   0.364   0.883 -1.6244 -0.1779  0.4831
  131MOL    H3618496   4.957   0.338   1.049 -0.8542  0.3944 -0.4305
  131MOL    C3718497   5.220   0.177   1.238 -0.4251 -0.4434  0.0564
  131MOL    C3818498   5.145   0.279   1.324 -0.0264  0.1621  0.8509
  131MOL    O3918499   5.226   0.062   1.320  0.0652 -0.4639 -0.4469
  131MOL    H4018500   5.324   0.202   1.216 -0.7287  0.4338 -0.4010
  131MOL    H4118501   5.046   0.241   1.349 -0.6683  1.1760 -0.1042
  131MOL    H4218502   5.135   0.377   1.276  0.5640  0.1445  0.6864
  131MOL    H4318503   5.198   0.281   1.419 -0.8911 -1.5024  1.3900
  131MOL    C4418504   5.274   7.860   1.253  0.0689 -0.1426 -0.4420
  131MOL    C4518505   5.399   7.807   1.320 -0.1091  0.3364 -0.0499
  131MOL    O4618506   5.178   7.759   1.273 -0.1001 -0.6674 -0.1891
  131MOL    H4718507   5.301   7.872   1.148  1.9540  3.7302  0.4131
  131MOL    H4818508   5.385   7.798   1.428 -3.0150  0.0390 -0.4144
  131MOL    H4918509   5.472   7.884   1.295  1.7763 -0.9267  1.4179
  131MOL    H5018510   5.428   7.710   1.282 -1.6568  0.1982 -0.9004
  131MOL    C5118511   5.058   7.766   1.202 -0.2722  0.3731  0.1831
  131MOL    C5218512   5.064   7.653   1.097 -0.1513 -0.0018 -0.6482
  131MOL    O5318513   4.953   7.727   1.289 -0.3533  0.3459  0.5824
  131MOL    H5418514   5.033   7.860   1.151  1.1369  0.8057  0.2658
  131MOL    H5518515   4.969   7.664   1.044 -0.6433  2.3211  0.6322
  131MOL    H5618516   5.070   7.559   1.151 -1.4866 -0.6147 -1.5542
  131MOL    H5718517   5.152   7.668   1.035  0.8483  0.0005  0.7639
  131MOL    C5818518   4.897   7.830   1.359 -0.8135  0.3439  0.6529
  131MOL    C5918519   4.758   7.857   1.298 -0.0203 -0.7503  0.4889
  131MOL    O6018520   4.882   7.795   1.495 -0.0270 -0.3073  0.3485
  131MOL    H6118521   4.959   0.005   1.364  0.7311 -0.5756 -1.4176
  131MOL    H6218522   4.763   7.891   1.194 -1.0647  0.8132  0.9236
  131MOL    H6318523   4.724   0.030   1.354 -0.6880 -0.2233 -0.7160
  131MOL    H6418524   4.689   7.774   1.306 -0.8716  0.0182  1.1961
  131MOL    C6518525   4.994   7.786   1.575 -0.0028  0.2315 -0.0192
  131MOL    C6618526   4.995   7.899   1.681  0.1217  0.2818  0.0561
  131MOL    O6718527   4.995   7.664   1.640  0.9172  0.6810 -0.5495
  131MOL    H6818528   5.090   7.799   1.525 -0.6068  1.0240 -1.0065
  131MOL    H6918529   4.915   7.891   1.754  2.2209  1.2295  2.5187
  131MOL    H7018530   4.978   0.082   1.634  0.0771  0.0821 -0.3474
  131MOL    H7118531   5.088   7.895   1.737 -2.3495  1.2205  4.4866
  131MOL    C7218532   5.037   7.560   1.558 -0.3560  0.6211 -0.4175
  131MOL    C7318533   5.178   7.514   1.605 -0.0979 -0.3560  0.4813
  131MOL    O7418534   4.954   7.450   1.567 -0.6597  0.1960  0.1786
  131MOL    H7518535   5.052   7.580   1.452  2.2381 -1.0604 -0.3907
  131MOL    H7618536   5.204   7.443   1.527  0.8404  1.7287 -1.1729
  131MOL    H7718537   5.179   7.468   1.703 -1.3204  0.1300  0.7284
  131MOL    H7818538   5.246   7.600   1.601 -0.2962 -0.2044  0.3451
  131MOL    C7918539   4.854   7.440   1.467  0.0762  0.0103  0.5043
  131MOL    C8018540   4.890   7.318   1.374 -0.7564  0.3793  0.0079
  131MOL    O8118541   4.732   7.410   1.531  0.2710 -0.3485  0.2214
  131MOL    H8218542   4.841   7.533   1.412  1.0405 -2.2805 -3.8061
  131MOL    H8318543   4.801   7.287   1.319  0.7937 -0.2305 -2.2160
  131MOL    H8418544   4.933   7.237   1.434 -0.0469  0.3955 -0.4669
  131MOL    H8518545   4.952   7.361   1.295 -2.1180  1.7372 -0.3351
  131MOL    C8618546   4.684   7.514   1.620  0.2493  0.9168 -0.1037
  131MOL    C8718547   4.578   7.591   1.538 -0.4017  0.3581 -0.6408
  131MOL    O8818548   4.610   7.459   1.730  0.0377  0.3891  0.0434
  131MOL    H8918549   4.765   7.582   1.646  1.2845 -0.0490 -0.7432
  131MOL    H9018550   4.524   7.658   1.605  0.1335  0.9783 -0.8289
  131MOL    H9118551   4.501   7.524   1.500 -1.7551  1.0678  0.8010
  131MOL    H9218552   4.617   7.640   1.449  0.9723  0.3633 -0.0458
  131MOL    C9318553   4.703   7.400   1.819 -0.3058  0.1459  0.2013
  131MOL    C9418554   4.722   7.483   1.944  0.2265 -0.2920  0.6481
  131MOL    O9518555   4.655   7.280   1.874 -0.3605  0.1976 -0.3226
  131MOL    H9618556   4.800   7.382   1.772 -1.1736  1.1054 -2.0289
  131MOL    H9718557   4.758   7.582   1.915 -2.1979  0.6873  0.8950
  131MOL    H9818558   4.790   7.435   2.015  2.1753 -1.4311 -1.8801
  131MOL    H9918559   4.631   7.497   2.001 -0.3090  0.6529 -0.4135
  131MOL   C10018560   4.683   7.170   1.785  0.3599 -0.4351  0.3559
  131MOL   C10118561   4.785   7.079   1.843 -0.3946  0.3789 -0.2480
  131MOL   O10218562   4.571   7.087   1.757 -0.0591 -0.0684 -0.0026
  131MOL   H10318563   4.716   7.201   1.686 -0.3106  2.6901  1.0756
  131MOL   H10418564   4.793   6.984   1.791  0.7593  0.3141  0.0348
  131MOL   H10518565   4.775   7.067   1.951 -1.2961  0.4422 -0.3244
  131MOL   H10618566   4.883   7.125   1.830  0.9171 -1.9306  1.1816
  131MOL   C10718567   4.488   7.141   1.662 -0.2812  0.0884  0.0862
  131MOL   C10818568   4.497   7.057   1.535  1.4090 -0.0327 -0.3731
  131MOL   O10918569   4.359   7.142   1.709 -0.2685 -0.0728 -0.5264
  131MOL   H11018570   4.508   7.245   1.639 -0.5360  0.6567  2.3605
  131MOL   H11118571   4.600   7.074   1.502  1.4797  0.5986  0.1617
  131MOL   H11218572   4.426   7.090   1.459 -1.3585 -1.4347  1.5492
  131MOL   H11318573   4.473   6.955   1.566 -0.4762  0.7734  0.8794
  131MOL   C11418574   4.335   7.255   1.796 -0.1921  0.6853  0.4131
  131MOL   C11518575   4.261   7.365   1.724 -0.2882 -0.0386 -0.4218
  131MOL   O11618576   4.248   7.218   1.897  0.1531  0.1023  0.5464
  131MOL   H11718577   4.421   7.299   1.846  1.4355 -2.4761  0.5235
  131MOL   H11818578   4.216   7.438   1.791 -0.3828 -0.7273  0.2675
  131MOL   H11918579   4.187   7.309   1.667 -1.1403  1.4699 -0.7927
  131MOL   H12018580   4.323   7.411   1.647  1.3952 -0.6477  0.5222
  131MOL   C12118581   4.297   7.136   1.996  0.0569  0.2103 -0.8289
  131MOL   C12218582   4.328   7.226   2.123 -0.0743 -0.2164 -0.1955
  131MOL   O12318583   4.190   7.049   2.028  0.3524  0.4237  0.7042
  131MOL   H12418584   4.383   7.074   1.969 -0.3640 -1.4892  1.6548
  131MOL   H12518585   4.368   7.157   2.198 -0.4648 -0.7354 -0.4556
  131MOL   H12618586   4.233   7.271   2.154  0.7839 -0.1861  2.4993
  131MOL   H12718587   4.405   7.301   2.108  0.8395 -1.2339 -0.6075
  131MOL   C12818588   4.169   6.949   1.933 -0.1387  0.7989 -0.3667
  131MOL   C12918589   4.211   6.815   1.992  0.2486 -0.3239 -0.3556
  131MOL   O13018590   4.030   6.935   1.919  0.0834 -0.0448 -0.3074
  131MOL   H13118591   4.212   6.965   1.834 -0.4094 -0.4745 -0.7039
  131MOL   H13218592   4.184   6.812   2.097  1.1378 -2.2563 -0.1577
  131MOL   H13318593   4.320   6.809   1.985  0.3091  1.7659 -1.4093
  131MOL   H13418594   4.164   6.729   1.944 -2.7230  0.2998  1.3528
  131MOL   C13518595   3.966   7.042   1.850  0.6425  0.8792 -0.4170
  131MOL   C13618596   3.827   6.999   1.813  0.4363 -0.6285  0.0848
  131MOL   O13718597   3.962   7.161   1.927 -0.2386 -0.7180 -0.1613
  131MOL   H13818598   4.033   7.051   1.765  1.7390 -2.2644  0.0200
  131MOL   H13918599   3.790   7.079   1.750  0.4600  0.7102  1.7157
  131MOL   H14018600   3.762   6.991   1.900 -0.7170  1.1892 -0.5699
  131MOL   H14118601   3.834   6.902   1.764 -1.4724 -0.5973 -0.2426
  131MOL   H14218602   4.050   7.177   1.958  0.5631 -1.3943 -1.9702
  132MOL     C118603   7.890   4.211   7.333  0.5746 -0.0632 -0.6649
  132MOL     C218604   7.752   4.184   7.293 -0.5231 -0.3666 -0.4777
  132MOL     O318605   7.900   4.339   7.390 -0.1050  0.0634  0.1557
  132MOL     H418606   0.040   4.207   7.245  0.6843  1.7514 -0.6952
  132MOL     H518607   7.723   4.267   7.228  2.8155  2.6571  1.7001
  132MOL     H618608   7.685   4.172   7.378 -0.4213  0.8694 -0.2060
  132MOL     H718609   7.759   4.095   7.231  0.3597  0.2529 -1.2956
  132MOL     H818610   0.007   4.129   7.398 -1.6410  0.4196  1.0317
  132MOL     C918611   0.106   4.384   7.444  0.2461 -0.4986  0.3680
  132MOL    C1018612   0.161   4.302   7.557  0.5734 -0.1375 -0.5961
  132MOL    O1118613   0.201   4.408   7.348 -0.1551  0.7646  0.3322
  132MOL    H1218614   0.078   4.480   7.486 -1.2282  0.6709 -3.1363
  132MOL    H1318615   0.235   4.363   7.609 -0.4677  1.2501 -0.7009
  132MOL    H1418616   0.213   4.213   7.521  2.8044  1.2620 -0.9136
  132MOL    H1518617   0.072   4.267   7.609  0.6197 -0.1105 -0.4985
  132MOL    C1618618   0.164   4.492   7.250  0.1325  0.0562  0.3495
  132MOL    C1718619   0.157   4.640   7.296  0.1296 -0.0061 -0.9357
  132MOL    O1818620   0.263   4.485   7.151 -0.8322  0.5598 -0.4879
  132MOL    H1918621   0.064   4.473   7.210  0.4107 -0.9849  0.1364
  132MOL    H2018622   0.075   4.656   7.366  1.9037  0.3664  1.0769
  132MOL    H2118623   0.147   4.695   7.202  0.1724  1.0486 -0.3269
  132MOL    H2218624   0.243   4.678   7.350 -0.0116 -2.1330  0.8262
  132MOL    C2318625   0.255   4.373   7.074  0.2827 -0.4534 -0.3966
  132MOL    C2418626   0.185   4.408   6.942  0.2615  0.0161 -0.2299
  132MOL    O2518627   0.386   4.310   7.051 -0.2741  0.0201 -0.5444
  132MOL    H2618628   0.201   4.293   7.125  0.0753  0.7175  1.2657
  132MOL    H2718629   0.189   4.318   6.881  1.5681  0.0853 -0.2614
  132MOL    H2818630   0.229   4.493   6.891 -1.0573  0.5245 -0.5447
  132MOL    H2918631   0.080   4.435   6.943  0.8666  2.4595  1.5903
  132MOL    C3018632   0.458   4.296   7.173 -0.3482 -0.7604 -0.0321
  132MOL    C3118633   0.406   4.176   7.255 -0.2026  0.2986 -0.5409
  132MOL    O3218634   0.593   4.269   7.147  0.1408 -0.1285 -0.1554
  132MOL    H3318635   0.459   4.386   7.235 -2.2464 -2.0259  1.8933
  132MOL    H3418636   0.300   4.198   7.269  0.0529  0.4816  1.1466
  132MOL    H3518637   0.456   4.165   7.351 -0.3563 -1.3070 -0.6301
  132MOL    H3618638   0.423   4.087   7.194 -0.3287  0.7036 -1.1760
  132MOL    C3718639   0.675   4.376   7.107  0.2052 -0.3515 -0.4111
  132MOL    C3818640   0.615   4.476   7.007 -0.0665  0.2919 -0.1617
  132MOL    O3918641   0.732   4.447   7.210  0.2740 -0.3887 -0.1665
  132MOL    H4018642   0.762   4.330   7.060 -0.4337 -1.2014 -0.7913
  132MOL    H4118643   0.573   4.424   6.920  0.4801  1.5665 -1.2119
  132MOL    H4218644   0.700   4.527   6.960  0.8658 -1.5309 -0.5265
  132MOL    H4318645   0.542   4.539   7.057 -2.5023 -1.5806 -1.2476
  132MOL    C4418646   0.829   4.371   7.289  0.7415 -0.6840 -0.6977
  132MOL    C4518647   0.975   4.407   7.238  0.2976  0.3194  0.1619
  132MOL    O4618648   0.835   4.411   7.421  0.0672  0.0022  0.0468
  132MOL    H4718649   0.801   4.265   7.289  1.5769 -0.9348  1.3073
  132MOL    H4818650   1.046   4.348   7.294 -0.4342 -3.5008 -2.7337
  132MOL    H4918651   0.980   4.515   7.253  2.0004  0.1831  0.6763
  132MOL    H5018652   0.979   4.381   7.132  0.6788  0.1645  0.2137
  132MOL    C5118653   0.723   4.389   7.498 -0.4495 -0.0714 -0.4020
  132MOL    C5218654   0.755   4.270   7.590 -0.2066  0.2766  0.1985
  132MOL    O5318655   0.699   4.510   7.580  0.1795  0.1829 -0.5550
  132MOL    H5418656   0.639   4.367   7.432 -1.0013 -1.9513  0.8995
  132MOL    H5518657   0.788   4.190   7.523 -0.2751 -0.2350  0.7680
  132MOL    H5618658   0.662   4.258   7.644 -1.8386  0.2853 -2.4988
  132MOL    H5718659   0.826   4.291   7.670 -0.0213  1.9174 -0.3732
  132MOL    C5818660   0.650   4.627   7.505  0.2203  0.3181  0.2133
  132MOL    C5918661   0.511   4.601   7.460  0.0836 -0.0643  0.0081
  132MOL    O6018662   0.659   4.750   7.566 -0.7230 -0.2312 -0.6955
  132MOL    H6118663   0.710   4.641   7.415 -0.5045  0.8390 -0.1924
  132MOL    H6218664   0.473   4.684   7.400 -0.0848  0.0431  0.2610
  132MOL    H6318665   0.457   4.567   7.548  4.2567  1.1168  3.1274
  132MOL    H6418666   0.502   4.516   7.392 -0.0315 -2.2238  2.6574
  132MOL    C6518667   0.790   4.798   7.593 -0.3451  0.0930  0.2885
  132MOL    C6618668   0.840   4.885   7.480 -0.3430 -0.0614 -0.6884
  132MOL    O6718669   0.799   4.879   7.704 -0.0138  0.0598 -0.0590
  132MOL    H6818670   0.843   4.703   7.604  1.0856  0.4943 -2.7012
  132MOL    H6918671   0.933   4.939   7.499 -0.9532  1.0649 -0.8331
  132MOL    H7018672   0.759   4.954   7.454  1.0002  0.4638 -3.7401
  132MOL    H7118673   0.865   4.816   7.400  0.2702  0.3051 -0.8235
  132MOL    C7218674   0.775   4.821   7.825  0.0099  0.1069  0.3313
  132MOL    C7318675   0.900   4.762   7.887 -0.6147 -0.0794  0.1485
  132MOL    O7418676   0.726   4.913   0.008 -0.3328 -0.7873  0.3655
  132MOL    H7518677   0.699   4.744   7.812  1.8683 -1.6616 -0.2656
  132MOL    H7618678   0.870   4.709   0.063 -0.2514  0.9838  0.9078
  132MOL    H7718679   0.974   4.833   0.009 -0.9126  0.6951 -0.7487
  132MOL    H7818680   0.954   4.700   7.816  0.9162 -0.5899  1.7321
  132MOL    C7918681   0.601   4.965   7.893 -0.4998  0.3734 -0.6476
  132MOL    C8018682   0.503   4.915   0.085  0.3475  0.1836  0.1441
  132MOL    O8118683   0.618   5.098   7.913 -0.2663 -0.0936 -0.4729
  132MOL    H8218684   0.572   4.951   7.789  0.4424 -0.2448 -0.8418
  132MOL    H8318685   0.548   4.929   0.183 -1.8983  0.0568  1.2358
  132MOL    H8418686   0.488   4.810   0.060  3.7442 -0.1561 -0.7663
  132MOL    H8518687   0.408   4.968   0.078  0.3023  0.0822 -0.0427
  132MOL    C8618688   0.669   5.168   7.801  0.1079 -0.5511  0.0465
  132MOL    C8718689   0.563   5.255   7.729  0.0920  0.2445  0.3370
  132MOL    O8818690   0.764   5.254   7.854  0.0908  0.1173  0.0510
  132MOL    H8918691   0.711   5.107   7.721 -2.3771  1.0697 -2.5892
  132MOL    H9018692   0.512   5.321   7.799  0.7491  1.7400 -0.5442
  132MOL    H9118693   0.493   5.186   7.682 -2.2713  2.5591  0.2977
  132MOL    H9218694   0.610   5.302   7.642 -0.2410 -1.3585 -0.7200
  132MOL    C9318695   0.898   5.203   7.847 -0.2060  0.0637  0.4595
  132MOL    C9418696   0.970   5.277   7.732  0.3228 -0.3907  0.9369
  132MOL    O9518697   0.970   5.227   0.050  0.6143 -0.4854 -0.3782
  132MOL    H9618698   0.907   5.096   7.828 -1.0524 -0.0819  0.8406
  132MOL    H9718699   1.057   5.226   7.689  1.2441  1.5462  0.4820
  132MOL    H9818700   0.991   5.382   7.753  0.5286 -0.0160 -1.0554
  132MOL    H9918701   0.903   5.278   7.646  1.2564  0.0033  0.2035
  132MOL   C10018702   0.937   5.145   0.160 -0.1386 -0.5034 -0.4475
  132MOL   C10118703   1.063   5.067   0.201 -0.3496  0.9345  0.1392
  132MOL   O10218704   0.907   5.227   0.269  0.2670 -0.1513  0.3185
  132MOL   H10318705   0.856   5.072   0.152 -0.5876 -0.1395  0.6779
  132MOL   H10418706   1.150   5.128   0.224  0.5569  0.1506 -1.1571
  132MOL   H10518707   1.094   5.001   0.121 -1.2645  0.3098  0.2897
  132MOL   H10618708   1.040   5.002   0.286  1.1362  1.6151  1.0744
  132MOL   C10718709   0.776   5.274   0.279  0.6939  0.3639  0.3437
  132MOL   C10818710   0.715   5.200   0.392  0.5023 -0.0163  0.1318
  132MOL   O10918711   0.767   5.409   0.313  0.1357 -0.1203 -0.5732
  132MOL   H11018712   0.721   5.259   0.187  2.3521  0.6417 -0.7186
  132MOL   H11118713   0.625   5.245   0.435 -2.0150 -4.5144 -0.0985
  132MOL   H11218714   0.793   5.189   0.468  1.4439 -0.2691 -0.8648
  132MOL   H11318715   0.696   5.098   0.359  0.1234 -0.2784  1.1436
  132MOL   C11418716   0.825   5.497   0.218 -0.0215  0.4572 -0.4774
  132MOL   C11518717   0.712   5.559   0.139  0.1149  0.1298  0.1898
  132MOL   O11618718   0.893   5.594   0.278 -0.3914 -0.1119 -0.2183
  132MOL   H11718719   0.890   5.444   0.148 -0.2504 -3.2111  1.9388
  132MOL   H11818720   0.643   5.478   0.113 -0.5665  1.1788 -1.3487
  132MOL   H11918721   0.753   5.609   0.051  0.8928 -0.8071  0.0258
  132MOL   H12018722   0.669   5.641   0.198  1.3314  0.3024  0.8531
  132MOL   C12118723   1.017   5.556   0.335 -0.3006 -0.1211  0.5683
  132MOL   C12218724   1.125   5.620   0.243  0.3107  0.3729  0.2150
  132MOL   O12318725   1.034   5.605   0.467 -0.1832  0.5503  0.1221
  132MOL   H12418726   1.023   5.447   0.329 -3.0449 -0.2681 -0.1651
  132MOL   H12518727   1.119   5.607   0.135  1.0409  1.5823  0.0191
  132MOL   H12618728   1.229   5.612   0.275  0.0149  0.0729  1.1187
  132MOL   H12718729   1.099   5.725   0.256  0.3293  0.5590 -1.1711
  132MOL   C12818730   0.959   5.539   0.568  0.3342  0.5241  0.5786
  132MOL   C12918731   1.056   5.458   0.655 -0.4850  0.6123  0.4197
  132MOL   O13018732   0.893   5.629   0.653  0.2444 -0.6690 -0.0011
  132MOL   H13118733   0.880   5.472   0.534 -0.4543  2.1250 -0.8058
  132MOL   H13218734   0.994   5.392   0.716  0.5307  1.4239  2.3664
  132MOL   H13318735   1.118   5.519   0.719  1.0080  0.3313 -0.7474
  132MOL   H13418736   1.129   5.408   0.591  0.9089 -0.3353  2.7177
  132MOL   C13518737   0.774   5.679   0.604  0.9313  0.2430  1.3117
  132MOL   C13618738   0.687   5.740   0.720  0.1698  0.2092  0.3280
  132MOL   O13718739   0.801   5.781   0.505 -0.7865  0.5019 -0.1934
  132MOL   H13818740   0.711   5.605   0.555  1.1498 -0.1224  1.5698
  132MOL   H13918741   0.663   5.654   0.782 -0.6497  0.7835  0.8365
  132MOL   H14018742   0.590   5.774   0.682 -1.9468 -0.1061  5.0557
  132MOL   H14118743   0.732   5.821   0.778  0.9218  0.3609 -0.4626
  132MOL   H14218744   0.846   5.742   0.432  0.7239 -2.1569  2.0669
  133MOL     C118745   2.030   3.875   3.234 -0.2427 -0.3961 -0.4510
  133MOL     C218746   2.050   3.735   3.175  0.3214 -1.0473  0.2571
  133MOL     O318747   1.999   3.968   3.131  0.1267  0.4141 -0.2395
  133MOL     H418748   2.121   3.912   3.280 -1.3206  1.3284  0.3279
  133MOL     H518749   2.133   3.723   3.106  0.7723 -1.8918  0.9262
  133MOL     H618750   1.955   3.706   3.131  0.7696 -1.2981 -0.5548
  133MOL     H718751   2.084   3.666   3.253  2.1704 -1.8760 -1.2568
  133MOL     H818752   1.947   3.884   3.304  1.5803  1.8595  1.4752
  133MOL     C918753   1.982   4.099   3.168  0.3874  0.4923  0.1054
  133MOL    C1018754   1.997   4.176   3.033  0.5219 -0.4787 -0.8665
  133MOL    O1118755   1.853   4.123   3.208  0.4402  0.1533  0.1948
  133MOL    H1218756   2.054   4.127   3.244 -0.1166  0.4938  0.5878
  133MOL    H1318757   1.923   4.144   2.960 -0.3248  0.7808 -0.5752
  133MOL    H1418758   2.090   4.145   2.987 -0.2024 -1.9671 -1.3493
  133MOL    H1518759   1.995   4.284   3.052 -0.3568 -0.6078 -0.1650
  133MOL    C1618760   1.846   4.211   3.313  0.5484  0.9397  0.4969
  133MOL    C1718761   1.695   4.240   3.340  0.2881  0.5181 -0.0928
  133MOL    O1818762   1.904   4.145   3.424 -0.2588  0.0469  0.0185
  133MOL    H1918763   1.896   4.305   3.292  2.3261  0.2040  1.3831
  133MOL    H2018764   1.684   4.323   3.410  0.5679  0.6676 -0.2267
  133MOL    H2118765   1.639   4.152   3.373  1.6610 -0.1211  0.5716
  133MOL    H2218766   1.650   4.278   3.248 -1.1516  1.4157  0.9493
  133MOL    C2318767   1.944   4.234   3.525  0.5293 -0.0973 -0.4148
  133MOL    C2418768   1.986   4.148   3.637  0.3947  0.7934 -0.4309
  133MOL    O2518769   2.045   4.310   3.480  0.4228 -0.3641 -0.0170
  133MOL    H2618770   1.864   4.302   3.555  2.1005  0.5979  2.3002
  133MOL    H2718771   1.918   4.067   3.664  2.8282 -1.1506  0.1180
  133MOL    H2818772   1.990   4.198   3.734 -0.9349  0.0778  0.0027
  133MOL    H2918773   2.074   4.096   3.597  0.2338 -1.0705  1.5564
  133MOL    C3018774   2.052   4.436   3.535 -0.1621  0.3871 -0.3380
  133MOL    C3118775   2.174   4.494   3.469 -0.6395 -0.5607 -0.4195
  133MOL    O3218776   1.943   4.508   3.499  0.0790 -0.6749  0.0075
  133MOL    H3318777   2.061   4.426   3.644  0.7442 -0.1212 -0.4495
  133MOL    H3418778   2.194   4.600   3.482  2.4733 -1.3102  1.5901
  133MOL    H3518779   2.158   4.480   3.362 -2.9194  3.2318 -0.6722
  133MOL    H3618780   2.265   4.445   3.506 -0.1114 -0.0597 -1.0259
  133MOL    C3718781   1.898   4.590   3.609 -0.1757  0.1807 -0.5289
  133MOL    C3818782   1.795   4.681   3.559  0.7454 -0.5630 -0.9065
  133MOL    O3918783   1.844   4.510   3.705  0.3748  0.3583  0.0944
  133MOL    H4018784   1.979   4.655   3.641  1.2797 -1.4071 -0.8798
  133MOL    H4118785   1.760   4.747   3.638  0.3826 -1.7793 -0.0387
  133MOL    H4218786   1.713   4.626   3.512 -1.2265  0.4455  1.2546
  133MOL    H4318787   1.843   4.745   3.484 -0.6127  0.4140 -0.9751
  133MOL    C4418788   1.852   4.554   3.837 -0.4782  0.1541  1.1168
  133MOL    C4518789   1.731   4.489   3.921 -0.1824  0.1200 -0.2714
  133MOL    O4618790   1.973   4.517   3.899 -0.3100  0.4244  0.0603
  133MOL    H4718791   1.838   4.662   3.832  0.6193  0.1988 -3.4423
  133MOL    H4818792   1.741   4.509   4.028 -0.3069 -1.9020  0.1443
  133MOL    H4918793   1.741   4.380   3.920  0.5632  0.1258  2.6039
  133MOL    H5018794   1.636   4.521   3.877  0.0128  1.1325  0.0260
  133MOL    C5118795   2.041   4.618   3.966  0.1594 -0.2359 -0.2765
  133MOL    C5218796   2.143   4.541   4.057  0.5503 -0.1138 -0.4528
  133MOL    O5318797   2.113   4.689   3.876 -0.2006  0.8578  0.1920
  133MOL    H5418798   1.974   4.686   4.018  1.9176  0.7391  0.7548
  133MOL    H5518799   2.087   4.476   4.125 -1.5600  2.3547  0.2714
  133MOL    H5618800   2.202   4.612   4.115 -1.0129  0.3999  0.5438
  133MOL    H5718801   2.213   4.479   4.001  2.1236  1.3355 -0.1084
  133MOL    C5818802   2.093   4.822   3.860 -0.7517 -0.5010 -0.7190
  133MOL    C5918803   2.213   4.887   3.781  0.0245  0.1757 -0.2425
  133MOL    O6018804   1.974   4.863   3.794  0.0353  0.2483  1.0608
  133MOL    H6118805   2.095   4.860   3.962  1.2012 -0.1207 -0.8741
  133MOL    H6218806   2.302   4.889   3.842  0.6406 -0.3054 -1.1130
  133MOL    H6318807   2.186   4.990   3.758 -1.4714 -0.3684 -1.0069
  133MOL    H6418808   2.234   4.837   3.686 -2.6488 -0.8854 -0.3492
  133MOL    C6518809   1.915   4.980   3.838  0.2180  0.3434 -0.1133
  133MOL    C6618810   1.884   5.071   3.717  0.9470  0.7855  0.1920
  133MOL    O6718811   1.789   4.955   3.896 -0.3062 -0.4499 -0.3847
  133MOL    H6818812   1.976   5.037   3.909  0.4405  1.1236 -0.9208
  133MOL    H6918813   1.808   5.017   3.662  1.1924  0.6324  0.0071
  133MOL    H7018814   1.975   5.085   3.658  0.3860  0.5262 -0.7409
  133MOL    H7118815   1.832   5.161   3.751 -0.9786  1.2002 -3.6750
  133MOL    C7218816   1.788   4.966   4.036  0.5444 -0.1859  0.2573
  133MOL    C7318817   1.655   4.920   4.095 -0.1912 -0.9359 -0.7181
  133MOL    O7418818   1.897   4.896   4.086  0.1214 -0.5653 -0.1286
  133MOL    H7518819   1.793   5.073   4.056 -2.2036 -0.2175  1.4097
  133MOL    H7618820   1.573   4.984   4.063 -1.6960 -2.1948  0.4855
  133MOL    H7718821   1.640   4.920   4.203  0.1054 -0.7136 -0.6795
  133MOL    H7818822   1.636   4.823   4.050  1.5463 -2.1589  1.0832
  133MOL    C7918823   1.958   4.954   4.200  0.4316  0.0121 -0.3227
  133MOL    C8018824   1.989   4.832   4.298  0.9057 -0.1530 -0.0116
  133MOL    O8118825   2.082   4.997   4.150 -0.2745  0.0656 -0.2429
  133MOL    H8218826   1.894   5.022   4.256 -1.0301 -2.9933  1.8539
  133MOL    H8318827   1.894   4.780   4.311  0.1408 -0.1427 -4.8012
  133MOL    H8418828   2.025   4.876   4.391 -0.6396  1.1609 -0.0113
  133MOL    H8518829   2.057   4.756   4.258  0.5812  0.0630 -0.9833
  133MOL    C8618830   2.099   5.137   4.150  0.6037 -0.3380 -1.1676
  133MOL    C8718831   2.244   5.176   4.128 -0.1526 -0.0674 -0.2460
  133MOL    O8818832   2.019   5.201   4.061  0.1900  0.1677 -0.1224
  133MOL    H8918833   2.066   5.155   4.253  0.2935 -2.7295 -0.8084
  133MOL    H9018834   2.305   5.121   4.199 -0.5208 -0.4604 -0.2303
  133MOL    H9118835   2.267   5.278   4.156 -0.9116  0.7832 -2.6073
  133MOL    H9218836   2.268   5.154   4.024  0.1638 -1.6935  0.1569
  133MOL    C9318837   1.984   5.332   4.101  0.0968  0.4541  0.4903
  133MOL    C9418838   1.918   5.396   3.982 -0.1183 -0.0177  0.2522
  133MOL    O9518839   1.877   5.312   4.198 -0.1520  0.1677 -0.4099
  133MOL    H9618840   2.072   5.388   4.132  0.4987 -0.1417  0.4141
  133MOL    H9718841   1.895   5.499   4.008  2.1157  0.5367  0.1077
  133MOL    H9818842   1.827   5.342   3.953  1.3904 -1.1385 -2.5665
  133MOL    H9918843   1.982   5.404   3.894 -1.7993  1.9832 -0.8311
  133MOL   C10018844   1.887   5.398   4.300  0.8493  0.8258 -1.0321
  133MOL   C10118845   1.770   5.365   4.389 -0.5209 -0.4944  0.0105
  133MOL   O10218846   1.993   5.375   4.384 -0.4165  0.4514  0.4305
  133MOL   H10318847   1.880   5.501   4.264  0.9471  1.7746  1.5352
  133MOL   H10418848   1.676   5.358   4.334 -1.4963 -1.1191  1.7367
  133MOL   H10518849   1.755   5.443   4.464 -1.1336 -1.1510  0.5774
  133MOL   H10618850   1.792   5.265   4.426  4.1250  0.2894 -0.3592
  133MOL   C10718851   2.066   5.487   4.420 -0.0314 -0.3703 -0.1896
  133MOL   C10818852   2.168   5.443   4.521  0.4495  0.5161  0.1488
  133MOL   O10918853   2.130   5.535   4.304  0.1118 -0.9988  0.2122
  133MOL   H11018854   1.991   5.555   4.460  0.6371 -0.4458  1.2591
  133MOL   H11118855   2.230   5.362   4.483 -1.1071 -0.5097 -0.2442
  133MOL   H11218856   2.118   5.400   4.609  0.1919  1.5501  0.5092
  133MOL   H11318857   2.222   5.532   4.553  2.4078 -0.7851  0.5758
  133MOL   C11418858   2.119   5.672   4.282 -0.8689 -0.4942 -0.9500
  133MOL   C11518859   2.250   5.713   4.199  0.1874 -0.2561  0.3828
  133MOL   O11618860   2.005   5.699   4.208 -0.5095  0.2967  0.0025
  133MOL   H11718861   2.115   5.717   4.381 -0.3316 -1.6763 -0.3859
  133MOL   H11818862   2.234   5.818   4.175  1.8719  0.1425  0.9170
  133MOL   H11918863   2.246   5.656   4.106  3.4269  0.4347 -0.2477
  133MOL   H12018864   2.339   5.692   4.259  2.6152 -0.6095 -3.1290
  133MOL   C12118865   1.928   5.800   4.264  0.3864  0.1418  0.1782
  133MOL   C12218866   1.825   5.827   4.151 -1.1974 -0.0397  0.6312
  133MOL   O12318867   1.853   5.747   4.375  0.0039 -0.2834 -0.2760
  133MOL   H12418868   1.988   5.886   4.292  0.8422  1.2251 -3.8954
  133MOL   H12518869   1.769   5.734   4.144  1.3433 -1.4264 -1.9194
  133MOL   H12618870   1.871   5.851   4.055 -0.8650 -0.0196  0.7969
  133MOL   H12718871   1.753   5.903   4.183  0.6458  2.4196 -0.8433
  133MOL   C12818872   1.864   5.821   4.495 -0.0269 -0.5958 -1.2109
  133MOL   C12918873   1.797   5.732   4.600  0.6595  0.1723 -0.2401
  133MOL   O13018874   1.991   5.828   4.536 -0.8800  0.1651 -0.0181
  133MOL   H13118875   1.801   5.908   4.478  0.1695  0.2612  2.0529
  133MOL   H13218876   1.818   5.764   4.702  2.9992 -2.4936  0.1893
  133MOL   H13318877   1.831   5.628   4.595  1.5053  0.4714 -0.7352
  133MOL   H13418878   1.689   5.737   4.584  0.1340 -1.4439  2.4951
  133MOL   C13518879   2.032   5.956   4.576  0.1817  0.2127 -0.1555
  133MOL   C13618880   2.180   5.952   4.611  0.4187  0.0642 -0.5222
  133MOL   O13718881   2.010   6.053   4.478  0.4444  0.3006 -0.2357
  133MOL   H13818882   1.979   5.995   4.663 -0.2204  0.5522 -0.5483
  133MOL   H13918883   2.216   6.055   4.599  0.3538  0.2566  0.8593
  133MOL   H14018884   2.231   5.900   4.530  0.4924 -2.5704  1.1709
  133MOL   H14118885   2.191   5.901   4.706  0.1289  1.0989  0.0739
  133MOL   H14218886   1.998   6.134   4.525 -1.9999  0.1932 -0.5952
  134MOL     C118887   0.346   7.048   7.802 -0.6623 -0.1364  0.1291
  134MOL     C218888   0.269   7.090   7.681  0.1333 -1.0316 -0.5385
  134MOL     O318889   0.261   6.962   7.871  0.0982 -0.5564  0.0970
  134MOL     H418890   0.352   7.135   7.867 -2.5813 -0.6983  1.1039
  134MOL     H518891   0.326   7.154   7.613 -0.4938 -3.0694 -3.0603
  134MOL     H618892   0.177   7.148   7.682  0.1206 -0.9898 -2.1068
  134MOL     H718893   0.237   7.005   7.620  0.7255 -1.3164 -0.4542
  134MOL     H818894   0.452   7.032   7.780 -0.3425  2.8306 -0.7169
  134MOL     C918895   0.299   6.831   7.882  0.3782  0.6991  1.0755
  134MOL    C1018896   0.221   6.785   0.088  0.0604 -0.1750  0.0021
  134MOL    O1118897   0.257   6.756   7.774 -0.2289 -0.0349 -0.4943
  134MOL    H1218898   0.406   6.825   7.905  0.5952 -0.4641 -0.1957
  134MOL    H1318899   0.119   6.819   0.070 -0.4358 -2.3729 -1.6013
  134MOL    H1418900   0.264   6.841   0.171  1.4159 -0.9384 -0.1751
  134MOL    H1518901   0.214   6.678   0.103  0.1517  0.1752  2.6701
  134MOL    C1618902   0.354   6.677   7.716 -0.3023 -0.2788 -0.7521
  134MOL    C1718903   0.280   6.592   7.608 -0.1183 -0.0371  1.6687
  134MOL    O1818904   0.444   6.758   7.642 -0.5935  0.3506  0.0986
  134MOL    H1918905   0.412   6.620   7.788 -0.8779 -1.0226 -0.8696
  134MOL    H2018906   0.202   6.526   7.646 -0.3646 -1.6549 -1.5167
  134MOL    H2118907   0.357   6.540   7.551 -0.5063 -0.4269  1.5006
  134MOL    H2218908   0.225   6.670   7.554 -1.7511 -2.1669  0.1780
  134MOL    C2318909   0.580   6.742   7.671  0.7050  0.3801  0.2912
  134MOL    C2418910   0.658   6.844   7.584 -0.3664 -0.5515  0.0476
  134MOL    O2518911   0.604   6.771   7.799 -0.1684  0.2974  0.2016
  134MOL    H2618912   0.595   6.639   7.639  1.7032  0.4165  0.6250
  134MOL    H2718913   0.629   6.946   7.612 -0.3714  0.1844 -2.5340
  134MOL    H2818914   0.642   6.825   7.478 -2.3610  0.5944  0.1085
  134MOL    H2918915   0.763   6.828   7.610  0.0525 -1.3196 -2.0183
  134MOL    C3018916   0.727   6.713   7.848 -0.0219  0.0813 -0.6416
  134MOL    C3118917   0.737   6.753   0.084 -0.4744 -0.5511 -0.4900
  134MOL    O3218918   0.716   6.572   7.847 -0.4730 -0.0535  0.6734
  134MOL    H3318919   0.819   6.740   7.795  0.9567 -4.9089 -1.7410
  134MOL    H3418920   0.646   6.726   0.138 -0.1517  0.0066  0.3350
  134MOL    H3518921   0.759   6.859   0.082  0.8670 -0.7655  1.1911
  134MOL    H3618922   0.827   6.711   0.128 -0.7381  1.1074  1.7158
  134MOL    C3718923   0.844   6.508   7.859  0.8497 -0.6213 -0.1425
  134MOL    C3818924   0.810   6.362   7.888  0.0750 -0.0294 -0.2898
  134MOL    O3918925   0.909   6.505   7.736  0.6920  0.2061 -0.3564
  134MOL    H4018926   0.906   6.543   0.028 -0.3552  3.2344 -0.7685
  134MOL    H4118927   0.788   6.373   0.080 -1.7576 -1.8783 -0.4454
  134MOL    H4218928   0.891   6.291   7.874  1.0101  1.0100 -0.2777
  134MOL    H4318929   0.714   6.330   7.847 -1.2080  0.6164  2.0940
  134MOL    C4418930   1.048   6.480   7.756  0.7992  0.0196  0.0503
  134MOL    C4518931   1.105   6.422   7.631 -0.3066 -0.2720  0.4244
  134MOL    O4618932   1.120   6.595   7.781 -0.2833  0.0858  0.1778
  134MOL    H4718933   1.064   6.409   7.837 -0.7148  0.8096  1.0582
  134MOL    H4818934   1.208   6.389   7.644  0.1871  0.9606 -0.3360
  134MOL    H4918935   1.091   6.483   7.542  0.3574  1.6779  1.6254
  134MOL    H5018936   1.045   6.333   7.612 -0.0249 -0.2125 -0.7371
  134MOL    C5118937   1.195   6.604   7.898  0.3758 -0.4551 -0.2807
  134MOL    C5218938   1.297   6.713   7.867 -0.4943 -0.2703  0.7153
  134MOL    O5318939   1.123   6.642   0.090 -0.0842  0.0504  0.7646
  134MOL    H5418940   1.247   6.511   0.005 -0.0880 -0.3327  1.4725
  134MOL    H5518941   1.245   6.791   7.812 -2.2521 -1.5310  0.5532
  134MOL    H5618942   1.372   6.673   7.798 -0.3274  1.3101 -0.0455
  134MOL    H5718943   1.331   6.744   0.052 -0.4295  1.2484  0.2227
  134MOL    C5818944   1.135   6.563   0.202 -0.2663 -0.0314  0.6436
  134MOL    C5918945   1.060   6.641   0.307  0.2993 -0.0544 -0.0307
  134MOL    O6018946   1.057   6.445   0.186 -0.6248  0.4608 -0.3390
  134MOL    H6118947   1.241   6.547   0.221 -0.0193  1.1310  0.3080
  134MOL    H6218948   1.051   6.580   0.397  0.0935 -1.7060 -1.1574
  134MOL    H6318949   0.962   6.664   0.265 -0.0028 -0.7395  0.2913
  134MOL    H6418950   1.103   6.740   0.322 -0.0695  0.1129 -0.0780
  134MOL    C6518951   1.133   6.333   0.213 -0.0321 -0.0468 -0.5993
  134MOL    C6618952   1.042   6.202   0.232  0.3107 -0.8139 -0.5897
  134MOL    O6718953   1.217   6.298   0.099 -0.2026  0.8797  0.5917
  134MOL    H6818954   1.189   6.351   0.304 -1.4345  1.5109 -0.0223
  134MOL    H6918955   0.998   6.184   0.134 -0.9407 -2.3117  0.2329
  134MOL    H7018956   0.954   6.226   0.291  0.2555  0.6281 -1.2331
  134MOL    H7118957   1.089   6.117   0.282  2.4845  0.1377 -0.9206
  134MOL    C7218958   1.351   6.284   0.136 -0.3394 -0.8753  0.1430
  134MOL    C7318959   1.402   6.190   0.030  0.0626 -0.6319 -0.1614
  134MOL    O7418960   1.433   6.400   0.116  0.1309  0.4004 -0.0512
  134MOL    H7518961   1.367   6.237   0.233  2.0943  0.4493  0.4371
  134MOL    H7618962   1.509   6.172   0.040  0.2486  0.9451  0.7174
  134MOL    H7718963   1.380   6.238   7.848 -1.4227 -1.2658 -0.1486
  134MOL    H7818964   1.347   6.097   0.044  0.4852 -0.6991  1.0893
  134MOL    C7918965   1.524   6.428   0.216  0.2133 -0.2205 -0.2929
  134MOL    C8018966   1.636   6.514   0.156 -0.1577  0.3796 -0.4645
  134MOL    O8118967   1.469   6.490   0.327 -0.2427 -0.5163 -0.3392
  134MOL    H8218968   1.561   6.328   0.240  1.2074 -0.0031 -0.8931
  134MOL    H8318969   1.666   6.470   0.061  0.2632 -1.6922  0.5932
  134MOL    H8418970   1.719   6.504   0.226 -2.6779  1.1512  2.8240
  134MOL    H8518971   1.604   6.617   0.144  1.0868  0.4911 -3.2095
  134MOL    C8618972   1.484   6.413   0.447 -0.1836  0.4064  0.1989
  134MOL    C8718973   1.452   6.498   0.571 -0.9506 -0.3268  0.6155
  134MOL    O8818974   1.400   6.310   0.454  0.6881 -0.5285  0.3153
  134MOL    H8918975   1.586   6.374   0.447 -1.9510 -4.6878 -2.2603
  134MOL    H9018976   1.487   6.600   0.555 -2.9751  0.1155 -1.1244
  134MOL    H9118977   1.497   6.462   0.663  0.5082  0.5838  0.2760
  134MOL    H9218978   1.344   6.508   0.576 -0.6397  3.5687  0.4885
  134MOL    C9318979   1.462   6.188   0.489  0.4397  0.6223 -0.0091
  134MOL    C9418980   1.347   6.098   0.543  0.5910  0.1900 -0.1736
  134MOL    O9518981   1.520   6.116   0.386 -0.3085  0.0438  0.2820
  134MOL    H9618982   1.533   6.197   0.571 -1.0049 -2.4042  1.6808
  134MOL    H9718983   1.260   6.082   0.480 -0.4492 -0.3589  1.3699
  134MOL    H9818984   1.313   6.137   0.639  1.7251  1.4750 -0.2821
  134MOL    H9918985   1.381   5.999   0.572  0.0045  0.4570  1.5102
  134MOL   C10018986   1.658   6.087   0.404  0.1909 -0.1473  0.0054
  134MOL   C10118987   1.688   5.972   0.302 -0.0950 -0.1278  0.3644
  134MOL   O10218988   1.731   6.191   0.355 -0.2120 -0.2012 -0.2400
  134MOL   H10318989   1.690   6.056   0.504 -1.9138  0.9523  1.0604
  134MOL   H10418990   1.648   6.004   0.206 -2.8019  0.5153  1.6610
  134MOL   H10518991   1.645   5.879   0.341  0.5118 -0.5044  0.1381
  134MOL   H10618992   1.793   5.946   0.289  0.0915  0.2226  1.1400
  134MOL   C10718993   1.852   6.214   0.432 -0.3399 -0.1756  0.5269
  134MOL   C10818994   1.937   6.326   0.360  0.2268  0.3714  0.8704
  134MOL   O10918995   1.820   6.271   0.554 -0.4493 -0.0218 -0.1076
  134MOL   H11018996   1.905   6.119   0.436  1.9225  1.1116  2.4074
  134MOL   H11118997   1.889   6.423   0.369 -0.5464  0.2799 -1.9299
  134MOL   H11218998   1.955   6.302   0.255  0.2720 -0.1788  1.0001
  134MOL   H11318999   2.036   6.336   0.404 -0.3743  1.1908  2.0558
  134MOL   C11419000   1.888   6.219   0.659  0.4660 -0.0292  0.2552
  134MOL   C11519001   1.872   6.329   0.768 -0.5041 -0.1811 -0.5586
  134MOL   O11619002   1.812   6.110   0.707  0.0309 -0.1800  0.5039
  134MOL   H11719003   1.993   6.199   0.641  0.4671  0.2664 -0.0850
  134MOL   H11819004   1.767   6.351   0.790 -0.3114 -1.7840  2.1906
  134MOL   H11919005   1.927   6.418   0.739 -0.9349  0.4994  0.7005
  134MOL   H12019006   1.911   6.301   0.866 -1.8121  1.8523  0.5867
  134MOL   C12119007   1.890   5.996   0.734 -0.2039  0.4929 -0.4200
  134MOL   C12219008   1.797   5.900   0.810  0.5470  0.4427 -0.4303
  134MOL   O12319009   1.932   5.939   0.611 -0.4492 -0.3290 -0.1269
  134MOL   H12419010   1.972   6.041   0.790 -1.3213  0.2681  1.4327
  134MOL   H12519011   1.838   5.799   0.823  1.0662  0.7609  0.4441
  134MOL   H12619012   1.703   5.872   0.762 -0.2033 -1.0502  1.8369
  134MOL   H12719013   1.761   5.946   0.902 -1.5200  0.6633 -1.3253
  134MOL   C12819014   2.044   5.863   0.628 -0.1051 -0.3246  0.1308
  134MOL   C12919015   2.075   5.823   0.482 -0.4979  0.5341 -0.1057
  134MOL   O13019016   2.156   5.944   0.666  0.3597  0.2680 -0.3689
  134MOL   H13119017   2.038   5.774   0.691  0.9752 -0.3025  0.2723
  134MOL   H13219018   2.165   5.764   0.495 -0.9625 -0.0934  0.3345
  134MOL   H13319019   2.092   5.907   0.416 -0.4798  0.3324 -0.3563
  134MOL   H13419020   2.009   5.750   0.434  0.0813 -0.0085 -0.0744
  134MOL   C13519021   2.236   5.891   0.765 -0.2090  0.7307 -0.2066
  134MOL   C13619022   2.358   5.977   0.769 -0.4110 -0.4559 -0.6687
  134MOL   O13719023   2.169   5.897   0.886 -0.0508 -0.4361  0.2221
  134MOL   H13819024   2.260   5.786   0.752 -0.0712  0.7966 -0.4889
  134MOL   H13919025   2.419   5.964   0.680 -1.9698 -0.0470 -1.8210
  134MOL   H14019026   2.424   5.959   0.854 -1.1340 -2.0989 -0.4304
  134MOL   H14119027   2.332   6.083   0.767  0.4857 -0.2481 -1.8599
  134MOL   H14219028   2.132   5.811   0.903  1.3719 -1.2659 -0.8376
  135MOL     C119029   6.362   0.807   1.462 -0.5557 -0.7016 -0.1659
  135MOL     C219030   6.443   0.807   1.337 -0.4359 -0.0575  0.4011
  135MOL     O319031   6.228   0.831   1.430 -0.1376 -0.0177 -0.0069
  135MOL     H419032   6.398   0.892   1.521  1.1340  0.2929 -2.5461
  135MOL     H519033   6.550   0.805   1.358 -0.3518  1.4647  0.1885
  135MOL     H619034   6.435   0.897   1.276  0.4969  0.1594  0.5842
  135MOL     H719035   6.419   0.722   1.273 -1.0813  1.1375 -0.9944
  135MOL     H819036   6.373   0.714   1.518  2.7580  0.4976  1.3115
  135MOL     C919037   6.144   0.836   1.539  0.1996 -0.2805 -0.4715
  135MOL    C1019038   6.163   0.961   1.609 -0.6124 -0.2119  0.3319
  135MOL    O1119039   6.010   0.832   1.491 -0.2081  0.3857  0.0490
  135MOL    H1219040   6.175   0.759   1.610  1.2094  1.0911  0.6183
  135MOL    H1319041   6.079   0.988   1.672 -1.0072 -0.7864  0.0493
  135MOL    H1419042   6.168   1.037   1.531 -0.0011 -0.8708 -0.2921
  135MOL    H1519043   6.255   0.959   1.667 -1.7039 -0.2614  2.0856
  135MOL    C1619044   5.970   0.701   1.442 -0.3852  0.2564  0.0564
  135MOL    C1719045   5.854   0.652   1.534  0.1986 -0.2252 -0.5359
  135MOL    O1819046   5.914   0.703   1.318  0.1987 -0.2371  0.5780
  135MOL    H1919047   6.053   0.631   1.449  0.9920  2.0273  1.7718
  135MOL    H2019048   5.882   0.649   1.639 -1.5527 -2.3809 -0.0822
  135MOL    H2119049   5.834   0.549   1.501  0.5830 -1.2331  2.2605
  135MOL    H2219050   5.764   0.711   1.523 -1.3299 -2.4148 -0.1620
  135MOL    C2319051   6.017   0.706   1.224  0.1094 -0.0862  0.2843
  135MOL    C2419052   5.995   0.588   1.137  0.5027  0.3343  0.5901
  135MOL    O2519053   6.002   0.819   1.144  0.3113  0.4810 -0.2424
  135MOL    H2619054   6.116   0.705   1.270  0.3233 -3.0492 -0.1620
  135MOL    H2719055   5.951   0.499   1.184 -0.6715  1.0985  0.9550
  135MOL    H2819056   6.087   0.566   1.083  0.2648 -0.8909  0.6713
  135MOL    H2919057   5.935   0.611   1.050 -1.5372 -1.8853  1.3511
  135MOL    C3019058   6.059   0.941   1.189  0.0291  0.2253 -1.0769
  135MOL    C3119059   6.177   0.983   1.106 -0.2206  0.3147 -0.1585
  135MOL    O3219060   5.964   1.052   1.179  0.2709 -0.0154 -0.1037
  135MOL    H3319061   6.088   0.939   1.294 -0.6413  0.5843 -0.8764
  135MOL    H3419062   6.262   0.915   1.104  2.1165  3.1562 -1.5543
  135MOL    H3519063   6.208   1.087   1.119  0.1808  0.4043 -1.7380
  135MOL    H3619064   6.142   0.975   1.003 -0.6937  0.5164 -0.0161
  135MOL    C3719065   5.865   1.048   1.282 -0.5140 -0.1497  0.5102
  135MOL    C3819066   5.907   1.160   1.381 -0.5871  0.8385  0.2392
  135MOL    O3919067   5.738   1.069   1.242 -1.0810 -0.1083 -0.5001
  135MOL    H4019068   5.863   0.947   1.324  1.4323 -0.9824 -1.3184
  135MOL    H4119069   5.927   1.247   1.318  0.4355 -0.0146 -0.6317
  135MOL    H4219070   5.990   1.123   1.441  0.1336  4.3347  1.5307
  135MOL    H4319071   5.825   1.178   1.450 -1.5105 -3.3954  0.3648
  135MOL    C4419072   5.683   0.978   1.153  0.7361 -0.7905  0.1796
  135MOL    C4519073   5.560   0.920   1.228  0.3800  0.8071  0.3182
  135MOL    O4619074   5.631   1.047   1.044  0.1186 -0.1793 -0.8245
  135MOL    H4719075   5.749   0.898   1.120  1.1915 -0.1942 -0.3517
  135MOL    H4819076   5.519   0.838   1.169 -0.7487  2.0871 -0.7100
  135MOL    H4919077   5.487   0.996   1.257  1.9177  2.6241 -0.4952
  135MOL    H5019078   5.585   0.873   1.323 -1.3035  1.5539  1.1436
  135MOL    C5119079   5.731   1.083   0.952  0.2311 -0.0882 -0.0845
  135MOL    C5219080   5.705   0.999   0.829 -0.1363  0.4604  0.0284
  135MOL    O5319081   5.718   1.215   0.907  0.0358 -0.3202 -0.1020
  135MOL    H5419082   5.832   1.058   0.986 -0.0540  0.5782  1.2394
  135MOL    H5519083   5.600   0.997   0.800  0.1529 -0.6611 -0.9628
  135MOL    H5619084   5.746   0.898   0.826  0.0918  0.5358  0.6036
  135MOL    H5719085   5.753   1.055   0.748  2.0282 -2.8838 -1.0848
  135MOL    C5819086   5.782   1.307   0.994 -0.2767  0.0149  0.5388
  135MOL    C5919087   5.892   1.376   0.904 -0.4012 -0.0262 -0.4431
  135MOL    O6019088   5.681   1.400   1.028  0.0139 -0.5738  0.2632
  135MOL    H6119089   5.818   1.270   1.090  0.1616 -2.3018 -0.4931
  135MOL    H6219090   5.918   1.470   0.953 -0.0577 -0.1103 -0.4628
  135MOL    H6319091   5.845   1.408   0.811 -2.1121 -0.6321  0.2149
  135MOL    H6419092   5.980   1.313   0.889  0.1785  0.3941  1.0147
  135MOL    C6519093   5.608   1.363   1.137 -0.8779  0.5907 -0.6894
  135MOL    C6619094   5.657   1.443   1.261  0.1109  0.6009 -0.3743
  135MOL    O6719095   5.475   1.409   1.122  0.7967 -0.3676  0.0723
  135MOL    H6819096   5.605   1.254   1.147 -0.1856  0.4857 -1.6105
  135MOL    H6919097   5.755   1.407   1.293  0.1641  2.9783  2.4178
  135MOL    H7019098   5.589   1.437   1.346  0.5467  0.8784  0.0026
  135MOL    H7119099   5.669   1.548   1.231 -0.8524  0.4450 -1.3475
  135MOL    C7219100   5.398   1.325   1.036  0.1953  0.2018  0.3129
  135MOL    C7319101   5.283   1.257   1.125 -0.0006 -0.1984 -0.1311
  135MOL    O7419102   5.329   1.400   0.940  0.0605  0.9779  0.6713
  135MOL    H7519103   5.463   1.252   0.987 -1.7350 -0.3602 -1.5230
  135MOL    H7619104   5.234   1.174   1.075 -0.1012 -0.4276  0.3374
  135MOL    H7719105   5.209   1.332   1.153 -0.4617 -0.2387 -1.2451
  135MOL    H7819106   5.316   1.223   1.224 -2.4685 -1.4067  0.3155
  135MOL    C7919107   5.401   1.403   0.827  0.6871  0.3087  0.3595
  135MOL    C8019108   5.319   1.316   0.726  0.7724  0.2682  0.3945
  135MOL    O8119109   5.407   1.526   0.768  0.1872 -0.0799 -0.4828
  135MOL    H8219110   5.504   1.368   0.830  0.9059  0.8083 -0.9810
  135MOL    H8319111   5.369   1.329   0.630 -1.0116 -0.9505 -0.7530
  135MOL    H8419112   5.225   1.371   0.713  1.2585  1.0530  0.1519
  135MOL    H8519113   5.307   1.211   0.752  0.6602 -0.1311 -1.2167
  135MOL    C8619114   5.510   1.603   0.814  0.3761 -0.3920 -0.2845
  135MOL    C8719115   5.608   1.611   0.699 -0.3250  0.4692  0.1584
  135MOL    O8819116   5.461   1.735   0.847 -0.1796 -0.4546 -0.6033
  135MOL    H8919117   5.553   1.568   0.907  0.3014 -0.1284 -0.1495
  135MOL    H9019118   5.622   1.511   0.659 -1.2612 -0.3985  1.9699
  135MOL    H9119119   5.706   1.642   0.737  0.2633 -1.3827  0.1997
  135MOL    H9219120   5.577   1.679   0.619  0.5322 -2.5033 -2.8054
  135MOL    C9319121   5.370   1.735   0.947  0.4436 -0.4698  0.1442
  135MOL    C9419122   5.428   1.820   1.057  0.6073  0.8241 -0.4257
  135MOL    O9519123   5.253   1.795   0.903  0.3542 -0.3353  0.2287
  135MOL    H9619124   5.345   1.638   0.990  0.6317 -0.9396 -0.7782
  135MOL    H9719125   5.514   1.767   1.098 -0.1375 -0.5436 -0.5975
  135MOL    H9819126   5.364   1.823   1.145  0.5247  1.5545 -0.5050
  135MOL    H9919127   5.444   1.921   1.020  0.0504  0.9749 -0.2558
  135MOL   C10019128   5.151   1.707   0.857  0.3247  0.2792  0.0469
  135MOL   C10119129   5.061   1.670   0.975  0.2376  0.0925 -0.1898
  135MOL   O10219130   5.071   1.770   0.761  0.8084 -0.1786  0.3317
  135MOL   H10319131   5.182   1.613   0.812 -1.5647 -0.9732  1.3044
  135MOL   H10419132   5.117   1.624   1.057 -1.6697 -1.9416  0.0213
  135MOL   H10519133   4.985   1.595   0.954  0.0205  0.4324 -0.6182
  135MOL   H10619134   5.022   1.762   1.017  0.9372 -0.5921  2.0791
  135MOL   C10719135   5.131   1.774   0.635 -0.6740  0.5854  0.0455
  135MOL   C10819136   5.033   1.715   0.544 -0.5438  0.1211 -0.0328
  135MOL   O10919137   5.142   1.911   0.587 -0.5059  0.8297 -0.2415
  135MOL   H11019138   5.229   1.727   0.623  0.0670  2.5052 -1.9024
  135MOL   H11119139   4.947   1.781   0.542  0.4392  1.4182 -0.7387
  135MOL   H11219140   5.007   1.618   0.586  1.9984 -0.3748  0.4987
  135MOL   H11319141   5.083   1.705   0.447  0.3376  0.6126  0.3675
  135MOL   C11419142   5.260   1.981   0.626 -0.8818  0.3675 -0.3414
  135MOL   C11519143   5.340   1.985   0.497  0.5266  0.1065 -0.6189
  135MOL   O11619144   5.235   2.110   0.664  0.2027 -0.0371 -0.1892
  135MOL   H11719145   5.318   1.917   0.692 -0.0208 -0.9240 -2.3097
  135MOL   H11819146   5.288   2.056   0.432 -0.2475 -1.1768 -1.4348
  135MOL   H11919147   5.339   1.885   0.455 -1.6397 -0.7930  1.4787
  135MOL   H12019148   5.442   2.015   0.523  0.5904 -0.7953  0.2012
  135MOL   C12119149   5.166   2.114   0.786 -0.0986  0.0983  0.0377
  135MOL   C12219150   5.263   2.175   0.889 -0.6885 -0.3213  0.3947
  135MOL   O12319151   5.048   2.192   0.777 -0.2374 -0.2542 -0.2435
  135MOL   H12419152   5.135   2.017   0.826  0.2862  0.4179  1.1099
  135MOL   H12519153   5.214   2.177   0.986  0.2278  0.1059  0.8626
  135MOL   H12619154   5.275   2.278   0.854 -3.6598 -0.2679 -0.5560
  135MOL   H12719155   5.361   2.127   0.890 -0.4871  0.0517 -0.3367
  135MOL   C12819156   4.940   2.116   0.725 -0.4179  0.0183  0.9760
  135MOL   C12919157   4.830   2.105   0.831 -0.2705 -0.0177  0.3207
  135MOL   O13019158   4.887   2.188   0.621  0.4120  0.0260  0.4047
  135MOL   H13119159   4.959   2.015   0.687  1.1371  0.3550  0.8269
  135MOL   H13219160   4.780   2.199   0.853 -1.3759 -0.5359  0.0755
  135MOL   H13319161   4.870   2.063   0.923 -1.2857  0.0632  0.8078
  135MOL   H13419162   4.754   2.036   0.795 -0.0716 -0.2029  0.2523
  135MOL   C13519163   4.967   2.189   0.502 -0.4637 -0.3496 -0.5692
  135MOL   C13619164   4.874   2.253   0.399  0.5524 -0.2775  0.2706
  135MOL   O13719165   5.072   2.281   0.518  0.5107  0.1520 -0.1612
  135MOL   H13819166   5.007   2.090   0.478  0.5867  0.0694 -0.5919
  135MOL   H13919167   4.939   2.301   0.326  0.9478 -0.0864  0.7404
  135MOL   H14019168   4.816   2.332   0.446  2.4349  1.0980  0.3308
  135MOL   H14119169   4.816   2.182   0.341 -0.5810  0.8257  0.0480
  135MOL   H14219170   5.126   2.244   0.585  1.3538  1.1514 -0.2724
  136MOL     C119171   2.421   5.213   5.462 -0.1928  0.0162 -0.1056
  136MOL     C219172   2.330   5.105   5.413  0.4140  0.1763  0.3453
  136MOL     O319173   2.340   5.282   5.565  0.0974 -0.5593 -0.1984
  136MOL     H419174   2.439   5.281   5.378  0.6814  0.5157  0.4805
  136MOL     H519175   2.228   5.140   5.398 -0.3422 -1.4163  1.6215
  136MOL     H619176   2.338   5.016   5.475  0.8563  0.6230  0.9438
  136MOL     H719177   2.356   5.069   5.314  2.5510 -0.9756  1.2871
  136MOL     H819178   2.512   5.174   5.507 -0.4774  0.3663  0.7962
  136MOL     C919179   2.403   5.391   5.631 -0.5023 -0.0048 -0.1822
  136MOL    C1019180   2.399   5.506   5.534  0.0269 -0.5359  0.4441
  136MOL    O1119181   2.333   5.425   5.746  0.3897 -0.2288 -0.4211
  136MOL    H1219182   2.508   5.375   5.655 -0.2051  0.4098 -1.1676
  136MOL    H1319183   2.298   5.528   5.497  0.6167  0.4154 -0.6356
  136MOL    H1419184   2.451   5.484   5.441 -1.3600  1.6278 -0.8868
  136MOL    H1519185   2.445   5.596   5.575 -0.8305 -0.7415  1.8897
  136MOL    C1619186   2.326   5.321   5.840  0.0486  0.5609 -0.0894
  136MOL    C1719187   2.414   5.355   5.961  0.2920 -0.7598 -0.8222
  136MOL    O1819188   2.200   5.286   5.893 -0.0020 -0.3812  0.3672
  136MOL    H1919189   2.375   5.231   5.803 -1.6083 -0.2552 -0.3525
  136MOL    H2019190   2.430   5.261   6.014  0.8858 -0.4678 -0.4809
  136MOL    H2119191   2.364   5.422   6.030 -0.2289 -0.7677 -1.1852
  136MOL    H2219192   2.508   5.400   5.929  0.9207 -0.5246  1.2716
  136MOL    C2319193   2.120   5.207   5.804  0.0963 -0.1399 -0.5682
  136MOL    C2419194   2.080   5.079   5.876  0.1487  0.4106 -0.1690
  136MOL    O2519195   2.001   5.270   5.774  0.1647  0.8702 -0.2754
  136MOL    H2619196   2.172   5.189   5.710 -1.5006  1.6412 -1.8489
  136MOL    H2719197   2.032   5.094   5.972  0.7884 -0.6322  0.3304
  136MOL    H2819198   2.167   5.018   5.902 -0.4499 -1.4480 -2.4097
  136MOL    H2919199   2.012   5.017   5.819  0.5095  0.2699 -0.4527
  136MOL    C3019200   2.012   5.340   5.651 -0.5610 -0.2102  0.0904
  136MOL    C3119201   1.960   5.246   5.541  0.2308 -0.0074 -0.4705
  136MOL    O3219202   1.925   5.446   5.666 -0.0066 -0.6688 -0.6052
  136MOL    H3319203   2.108   5.380   5.620  0.0930 -1.9896 -0.2475
  136MOL    H3419204   1.937   5.292   5.444 -2.5742  1.2108  0.7191
  136MOL    H3519205   1.871   5.193   5.576  0.7972 -0.5946  0.0801
  136MOL    H3619206   2.035   5.169   5.521  1.6433  1.4033 -0.7190
  136MOL    C3719207   1.965   5.545   5.755  0.1203  0.0887 -0.4766
  136MOL    C3819208   2.018   5.656   5.662  0.2629 -0.2007  0.6239
  136MOL    O3919209   1.867   5.597   5.839 -0.0934  0.1917  0.1668
  136MOL    H4019210   2.046   5.514   5.822  0.3328  0.0927 -0.7310
  136MOL    H4119211   2.029   5.753   5.711  0.8375  0.9778 -1.7590
  136MOL    H4219212   1.932   5.659   5.595 -0.9666  0.3001  2.1891
  136MOL    H4319213   2.112   5.630   5.614  0.2285 -1.1148  1.0445
  136MOL    C4419214   1.839   5.515   5.955 -0.2908 -0.2090  0.2863
  136MOL    C4519215   1.885   5.606   6.066 -0.9474  0.0817  0.2152
  136MOL    O4619216   1.705   5.493   5.974 -0.1228  0.3311  0.0751
  136MOL    H4719217   1.888   5.418   5.964  1.7857  0.7001 -0.9164
  136MOL    H4819218   1.812   5.686   6.072 -0.4791  0.6199 -0.9328
  136MOL    H4919219   1.983   5.650   6.045 -1.2032 -0.1065 -1.5024
  136MOL    H5019220   1.893   5.571   6.168  1.2395  4.0911  1.5473
  136MOL    C5119221   1.664   5.393   5.886 -0.7064 -0.0857  0.4028
  136MOL    C5219222   1.646   5.266   5.961 -0.1067 -0.0049 -0.6950
  136MOL    O5319223   1.537   5.432   5.838 -0.2269  0.1231  0.1578
  136MOL    H5419224   1.726   5.371   5.799  1.9816  1.2499  1.9255
  136MOL    H5519225   1.588   5.295   6.049  1.0706 -0.9961  0.4452
  136MOL    H5619226   1.745   5.235   5.995 -0.3496  0.4063  0.4116
  136MOL    H5719227   1.606   5.190   5.894  0.2373 -0.4320 -0.4220
  136MOL    C5819228   1.544   5.504   5.724 -0.2897 -0.0096  0.0601
  136MOL    C5919229   1.528   5.414   5.605 -0.5976 -0.1274 -0.8346
  136MOL    O6019230   1.439   5.586   5.718 -0.0277 -0.0950 -0.3108
  136MOL    H6119231   1.634   5.564   5.717 -1.0810  1.3876  1.4297
  136MOL    H6219232   1.439   5.351   5.602 -1.3538  1.0054 -3.2253
  136MOL    H6319233   1.610   5.343   5.595 -3.3336 -3.2720 -1.5841
  136MOL    H6419234   1.521   5.476   5.516 -0.7833  2.0528  0.6600
  136MOL    C6519235   1.454   5.691   5.813  0.6698 -0.0446 -0.6688
  136MOL    C6619236   1.478   5.818   5.728 -0.3980 -0.1066 -0.1682
  136MOL    O6719237   1.337   5.711   5.883  0.5569 -0.2175  0.2028
  136MOL    H6819238   1.534   5.680   5.886 -0.8286 -1.0233  0.8544
  136MOL    H6919239   1.395   5.815   5.657  1.3223 -3.0572 -2.2253
  136MOL    H7019240   1.571   5.811   5.671 -0.6168 -1.2410 -0.4118
  136MOL    H7119241   1.465   5.908   5.787 -0.9134 -0.1799 -0.1649
  136MOL    C7219242   1.309   5.611   5.975  0.0645 -1.1825  0.4062
  136MOL    C7319243   1.271   5.679   6.116  0.4002  0.1675  0.8176
  136MOL    O7419244   1.191   5.541   5.946  0.2197 -0.0245 -0.1088
  136MOL    H7519245   1.386   5.536   5.992 -0.3100 -1.7461 -0.3898
  136MOL    H7619246   1.179   5.736   6.107  1.7528  2.0591 -1.5682
  136MOL    H7719247   1.357   5.741   6.142  2.6315 -0.7942 -3.8132
  136MOL    H7819248   1.254   5.593   6.182 -2.2256 -0.0477 -0.1122
  136MOL    C7919249   1.213   5.401   5.911 -0.6031  0.3535 -0.2737
  136MOL    C8019250   1.208   5.314   6.034  0.2115  0.4655 -0.3096
  136MOL    O8119251   1.104   5.365   5.827  0.0819 -0.6739  0.2758
  136MOL    H8219252   1.306   5.377   5.860 -0.5518  1.1894 -0.5911
  136MOL    H8319253   1.148   5.229   6.001 -1.4196  1.9662 -1.3313
  136MOL    H8419254   1.143   5.353   6.112 -0.0170 -0.3345 -0.0971
  136MOL    H8519255   1.300   5.288   6.085  0.2202  0.5093 -0.3023
  136MOL    C8619256   1.122   5.394   5.691  0.1824 -0.0058  0.2242
  136MOL    C8719257   1.119   5.259   5.615 -0.2889  0.2804  0.3122
  136MOL    O8819258   1.008   5.459   5.634 -0.7105 -0.3032 -0.1889
  136MOL    H8919259   1.208   5.459   5.673  0.2296  0.0370  0.6185
  136MOL    H9019260   1.092   5.267   5.510  0.7554  2.0092  0.1544
  136MOL    H9119261   1.047   5.193   5.664 -1.1483 -1.9925 -3.7664
  136MOL    H9219262   1.215   5.208   5.616 -0.1294  0.5713  2.3572
  136MOL    C9319263   0.990   5.586   5.682 -0.5610  0.6451 -0.4201
  136MOL    C9419264   1.077   5.676   5.595 -0.5901  0.0130  0.4693
  136MOL    O9519265   0.859   5.618   5.653 -0.1263 -0.4786 -0.4936
  136MOL    H9619266   1.022   5.599   5.785 -0.2211  0.0142 -0.4444
  136MOL    H9719267   1.058   5.780   5.620 -1.1804  0.5021 -1.8545
  136MOL    H9819268   1.050   5.661   5.490 -0.4325  1.7319  0.1675
  136MOL    H9919269   1.182   5.650   5.611 -0.0658  0.8588 -1.3952
  136MOL   C10019270   0.762   5.558   5.737 -0.3420  0.1510 -0.2885
  136MOL   C10119271   0.720   5.657   5.842  0.2678  0.8983  0.1581
  136MOL   O10219272   0.652   5.511   5.665  0.1068 -0.0823  1.2163
  136MOL   H10319273   0.811   5.476   5.788 -0.4926 -0.8470 -1.7277
  136MOL   H10419274   0.653   5.737   5.810 -1.5287  0.4555  2.6532
  136MOL   H10519275   0.817   5.685   5.883  0.9777 -0.9434 -0.2390
  136MOL   H10619276   0.664   5.599   5.915  1.0220  0.6704  0.5651
  136MOL   C10719277   0.674   5.391   5.598  0.6041 -0.6071 -0.0595
  136MOL   C10819278   0.576   5.297   5.669 -0.6570  0.3835  0.0371
  136MOL   O10919279   0.628   5.394   5.463 -0.5452 -0.3289 -0.0854
  136MOL   H11019280   0.775   5.352   5.604  0.2875 -1.0498  3.5317
  136MOL   H11119281   0.583   5.194   5.633  0.6410 -0.4190  2.4856
  136MOL   H11219282   0.475   5.316   5.632 -1.3824 -1.5934  0.9548
  136MOL   H11319283   0.580   5.297   5.778  0.4602 -1.0870  0.0103
  136MOL   C11419284   0.695   5.476   5.369 -0.4140  0.0037 -0.3200
  136MOL   C11519285   0.745   5.401   5.247 -0.6115 -0.1476  0.1435
  136MOL   O11619286   0.620   5.585   5.325  0.0017 -0.4943  0.1403
  136MOL   H11719287   0.783   5.525   5.412 -1.3993  1.5954 -0.0763
  136MOL   H11819288   0.660   5.357   5.196  0.8866 -0.6600 -1.9828
  136MOL   H11919289   0.806   5.314   5.274 -0.4879 -0.1626 -0.1756
  136MOL   H12019290   0.805   5.470   5.188  0.5244  0.4530  1.9270
  136MOL   C12119291   0.624   5.705   5.402 -0.3644  0.4579  0.1816
  136MOL   C12219292   0.711   5.797   5.326  0.3921  0.6759 -0.6569
  136MOL   O12319293   0.505   5.758   5.422  0.5660  0.1338 -0.6796
  136MOL   H12419294   0.670   5.690   5.500  2.4428 -1.7396 -1.3573
  136MOL   H12519295   0.807   5.747   5.316  0.0283  0.0615 -1.1635
  136MOL   H12619296   0.736   5.892   5.372  0.5685  0.3134  0.0056
  136MOL   H12719297   0.659   5.813   5.231 -0.6579  1.3700  0.0192
  136MOL   C12819298   0.416   5.681   5.492  0.2627  0.0529 -0.4824
  136MOL   C12919299   0.382   5.773   5.607  0.2825 -0.6762  0.0629
  136MOL   O13019300   0.300   5.657   5.427  0.1558  0.2922 -0.4983
  136MOL   H13119301   0.449   5.585   5.533 -1.6577 -1.7368 -2.9071
  136MOL   H13219302   0.464   5.780   5.679  1.8888 -1.0181 -1.7029
  136MOL   H13319303   0.296   5.729   5.659 -0.3915  0.2023 -0.2972
  136MOL   H13419304   0.366   5.876   5.577  1.1829 -0.9176 -1.2802
  136MOL   C13519305   0.301   5.563   5.320  0.4455  0.4226  0.0649
  136MOL   C13619306   0.160   5.545   5.260  0.3340  0.1657  0.4223
  136MOL   O13719307   0.377   5.602   5.208  0.2536  0.1338 -0.4092
  136MOL   H13819308   0.343   5.469   5.358  1.5309  0.8488 -0.0502
  136MOL   H13919309   0.167   5.492   5.166 -3.7477  1.0597 -0.4995
  136MOL   H14019310   0.124   5.644   5.231 -0.3588 -0.7234 -1.8087
  136MOL   H14119311   0.104   5.488   5.334  1.2342  0.6744  1.5147
  136MOL   H14219312   0.449   5.644   5.252 -0.1711  0.3175  0.1313
  137MOL     C119313   6.542   5.524   6.404  0.2719  0.2245  0.2677
  137MOL     C219314   6.536   5.417   6.290 -0.0254  0.3876 -0.4659
  137MOL     O319315   6.643   5.495   6.505 -0.5919  0.3408  0.3143
  137MOL     H419316   6.446   5.518   6.455  0.6336 -2.9208  0.6851
  137MOL     H519317   6.625   5.396   6.231 -0.0031 -3.6866  0.8981
  137MOL     H619318   6.449   5.442   6.228  0.1045  0.7307 -0.5135
  137MOL     H719319   6.526   5.314   6.322 -0.7741  0.7748  0.5683
  137MOL     H819320   6.537   5.625   6.364  1.6814  0.4648  0.6668
  137MOL     C919321   6.640   5.573   6.621  0.0573  0.4827  0.5111
  137MOL    C1019322   6.686   5.495   6.755 -0.7115 -1.0085  0.1054
  137MOL    O1119323   6.724   5.686   6.601  0.4610  0.5218 -0.5294
  137MOL    H1219324   6.537   5.604   6.634 -0.5480 -1.2326 -0.0740
  137MOL    H1319325   6.690   5.559   6.843 -1.8343  0.1782 -0.6798
  137MOL    H1419326   6.779   5.440   6.745 -0.4911 -0.7279  0.6045
  137MOL    H1519327   6.612   5.417   6.774 -2.6965  1.3902  2.7180
  137MOL    C1619328   6.671   5.814   6.599  0.0874  0.1547 -0.4762
  137MOL    C1719329   6.788   5.904   6.617 -0.4134  0.7620  0.6222
  137MOL    O1819330   6.620   5.847   6.475 -0.0679 -0.0710  0.2374
  137MOL    H1919331   6.599   5.826   6.680 -2.2369 -0.4529 -2.3959
  137MOL    H2019332   6.847   5.862   6.698 -1.2173 -1.4514  0.0918
  137MOL    H2119333   6.748   6.003   6.640 -1.6012  0.1256  1.3503
  137MOL    H2219334   6.842   5.905   6.522  1.5502 -0.7009  1.7064
  137MOL    C2319335   6.486   5.886   6.491  0.1686  0.0577 -0.2551
  137MOL    C2419336   6.429   5.915   6.349 -0.3762  0.1243 -0.2646
  137MOL    O2519337   6.405   5.785   6.542 -0.2775  0.0692  0.0422
  137MOL    H2619338   6.479   5.975   6.552  0.3538 -0.5365  0.6425
  137MOL    H2719339   6.421   5.823   6.290  1.2775  0.1952 -0.6092
  137MOL    H2819340   6.483   5.998   6.302  0.2565  0.2840  0.7369
  137MOL    H2919341   6.323   5.942   6.354 -0.3279  0.5154 -1.1430
  137MOL    C3019342   6.293   5.829   6.616  0.5722 -0.1369 -1.0159
  137MOL    C3119343   6.202   5.710   6.630 -0.9181 -0.0010  0.8535
  137MOL    O3219344   6.327   5.875   6.746  0.6261  0.3843 -0.3627
  137MOL    H3319345   6.234   5.906   6.565  2.5604  2.3985  0.4281
  137MOL    H3419346   6.268   5.639   6.681 -0.0714  0.3032  0.2015
  137MOL    H3519347   6.163   5.680   6.533 -0.4402  1.9586  0.0351
  137MOL    H3619348   6.124   5.737   6.700 -2.2882 -1.5013 -0.0478
  137MOL    C3719349   6.259   5.986   6.783  1.0923 -0.1461  0.1443
  137MOL    C3819350   6.268   5.997   6.933  0.3699 -0.1278  0.6176
  137MOL    O3919351   6.332   6.096   6.739 -1.0357  0.2902  0.2215
  137MOL    H4019352   6.155   5.996   6.750  1.1311 -0.0078  0.0611
  137MOL    H4119353   6.219   5.912   6.981 -0.4053  0.6435  1.1984
  137MOL    H4219354   6.214   6.085   6.966  3.5299  2.0566  0.1811
  137MOL    H4319355   6.372   6.009   6.964  0.4718 -1.6488  0.9266
  137MOL    C4419356   6.266   6.189   6.670 -0.1421 -0.1373  0.3390
  137MOL    C4519357   6.375   6.296   6.633 -0.2090  0.5386 -0.1148
  137MOL    O4619358   6.212   6.138   6.550  0.0436  0.0765  0.8018
  137MOL    H4719359   6.190   6.228   6.737 -0.0885  1.8855 -0.7329
  137MOL    H4819360   6.316   6.373   6.582 -0.1539  1.8251  1.7163
  137MOL    H4919361   6.446   6.248   6.566 -0.0543  2.5762 -1.4617
  137MOL    H5019362   6.429   6.331   6.721  2.0865 -0.8299 -0.9343
  137MOL    C5119363   6.084   6.177   6.519  0.3866 -0.1392 -0.0313
  137MOL    C5219364   6.066   6.115   6.391 -0.0805 -0.3187 -0.0781
  137MOL    O5319365   5.999   6.122   6.617  0.4994 -0.2334 -0.3819
  137MOL    H5419366   6.070   6.285   6.512 -0.6608 -0.1474  1.6232
  137MOL    H5519367   6.148   6.147   6.327 -0.2682 -0.0837 -0.2024
  137MOL    H5619368   5.971   6.148   6.348  0.4414 -0.8226 -1.6512
  137MOL    H5719369   6.068   6.007   6.401 -3.9268 -0.4179  0.6652
  137MOL    C5819370   5.893   6.201   6.661 -0.6906  0.0006 -0.3880
  137MOL    C5919371   5.797   6.108   6.735 -0.5154  0.0493 -0.3169
  137MOL    O6019372   5.951   6.295   6.749 -0.2421 -1.0103 -0.7735
  137MOL    H6119373   5.845   6.242   6.573  0.3546  1.0258 -0.4971
  137MOL    H6219374   5.715   6.170   6.772 -0.8065 -0.2995 -0.3654
  137MOL    H6319375   5.847   6.062   6.820 -1.4462  0.9295  0.7253
  137MOL    H6419376   5.756   6.029   6.672  1.7432 -0.1864 -1.5504
  137MOL    C6519377   5.882   6.418   6.756 -0.0725 -0.1532  0.9044
  137MOL    C6619378   5.944   6.503   6.869  0.2166  0.2442  0.2136
  137MOL    O6719379   5.898   6.495   6.637 -0.0993 -0.0298  0.1883
  137MOL    H6819380   5.776   6.395   6.771 -0.7799  0.9151 -2.1946
  137MOL    H6919381   5.916   6.454   6.963 -3.6752 -1.5852 -1.7882
  137MOL    H7019382   5.909   6.606   6.864 -1.6062 -0.3609 -0.0781
  137MOL    H7119383   6.052   6.505   6.860  0.1170 -0.9916 -1.4387
  137MOL    C7219384   5.782   6.555   6.589 -0.2139  0.2766 -0.2067
  137MOL    C7319385   5.815   6.634   6.460  0.8422  0.2228  0.2139
  137MOL    O7419386   5.688   6.455   6.559 -0.0397 -0.2698 -0.2300
  137MOL    H7519387   5.757   6.621   6.672 -0.3740  0.8695 -0.7247
  137MOL    H7619388   5.735   6.703   6.435  0.2814 -1.0212 -1.5487
  137MOL    H7719389   5.835   6.563   6.380  1.8848  0.4826  0.2349
  137MOL    H7819390   5.905   6.693   6.476  1.7626  0.2953 -4.5030
  137MOL    C7919391   5.557   6.501   6.584 -0.0810 -0.0561  1.0862
  137MOL    C8019392   5.463   6.397   6.515 -0.0776  0.6264 -0.1843
  137MOL    O8119393   5.536   6.509   6.726 -0.0056  0.1628  0.4308
  137MOL    H8219394   5.547   6.605   6.550  1.2898 -0.4612 -0.6526
  137MOL    H8319395   5.485   6.366   6.413  0.4967 -0.0703  0.1457
  137MOL    H8419396   5.362   6.438   6.508 -1.2277 -1.7184  1.8484
  137MOL    H8519397   5.465   6.307   6.576  0.2097 -0.8380 -2.2921
  137MOL    C8619398   5.412   6.575   6.753  0.5806 -0.5901  0.2910
  137MOL    C8719399   5.382   6.564   6.899  0.4803  0.1208 -0.8595
  137MOL    O8819400   5.430   6.717   6.718  0.0464  0.3731 -0.1907
  137MOL    H8919401   5.335   6.522   6.698  0.8151 -0.5138 -0.1099
  137MOL    H9019402   5.365   6.462   6.935 -0.1289 -0.6199 -3.1660
  137MOL    H9119403   5.298   6.624   6.935 -0.7542 -1.9097 -0.1964
  137MOL    H9219404   5.474   6.589   6.951  0.5589 -3.1862  0.7668
  137MOL    C9319405   5.325   6.770   6.640 -0.2424  0.2920  0.1606
  137MOL    C9419406   5.353   6.921   6.631 -0.0084  0.4419  0.4789
  137MOL    O9519407   5.326   6.721   6.510  0.1343  0.0993 -0.3781
  137MOL    H9619408   5.230   6.748   6.688  0.0093 -2.5262 -0.5325
  137MOL    H9719409   5.374   6.953   6.733  2.0914  0.8168 -0.0406
  137MOL    H9819410   5.267   6.976   6.593 -0.9246 -1.3264 -0.0262
  137MOL    H9919411   5.442   6.934   6.570  0.4330  0.0732  1.0386
  137MOL   C10019412   5.200   6.703   6.448 -0.3911  0.0039  0.6099
  137MOL   C10119413   5.231   6.664   6.312 -1.0254  0.0289 -0.7227
  137MOL   O10219414   5.135   6.591   6.494  0.1213  0.3596  0.5394
  137MOL   H10319415   5.140   6.793   6.430 -0.8243  0.4807  4.0674
  137MOL   H10419416   5.287   6.572   6.326 -2.4168 -0.6346  0.7254
  137MOL   H10519417   5.289   6.731   6.249 -2.2350  2.7870  1.0054
  137MOL   H10619418   5.141   6.637   6.256 -2.4326 -2.4758  2.5904
  137MOL   C10719419   5.003   6.611   6.530  0.0646  0.1621 -0.1777
  137MOL   C10819420   4.960   6.469   6.583  0.0142 -0.1751  0.1399
  137MOL   O10919421   4.996   6.695   6.638 -0.2450 -0.0468  0.2634
  137MOL   H11019422   4.938   6.638   6.447 -0.8367 -0.2316  0.4032
  137MOL   H11119423   5.015   6.436   6.671  1.4283  0.6761 -0.4000
  137MOL   H11219424   4.957   6.395   6.503  1.8043 -0.0509 -0.0715
  137MOL   H11319425   4.857   6.479   6.617  0.4712  1.1762  1.2232
  137MOL   C11419426   4.884   6.785   6.634 -0.2654  0.4377  0.0848
  137MOL   C11519427   4.910   6.899   6.730  0.0472  0.2605  0.7181
  137MOL   O11619428   4.870   6.846   6.513  0.2525  0.3940 -0.3007
  137MOL   H11719429   4.795   6.739   6.676 -1.2678  1.2465 -1.1269
  137MOL   H11819430   4.891   6.866   6.832 -1.0230 -1.7264 -0.0938
  137MOL   H11919431   4.840   6.979   6.708  0.9984  0.6918 -0.8607
  137MOL   H12019432   5.015   6.926   6.719 -0.1638  2.3775  3.3102
  137MOL   C12119433   4.737   6.849   6.460  0.6353  0.2814 -0.3410
  137MOL   C12219434   4.750   6.922   6.325  0.3210  0.1408 -0.2113
  137MOL   O12319435   4.691   6.721   6.445 -0.5593 -0.3372 -0.3610
  137MOL   H12419436   4.670   6.905   6.525 -0.3896 -0.5021 -0.7156
  137MOL   H12519437   4.801   7.018   6.339  1.6795 -1.0383  3.4210
  137MOL   H12619438   4.649   6.952   6.294  0.3939  1.3808  0.6992
  137MOL   H12719439   4.806   6.871   6.247  0.9039  2.1614 -1.1609
  137MOL   C12819440   4.566   6.703   6.503 -0.2513  0.1183  0.2652
  137MOL   C12919441   4.517   6.560   6.469 -0.7757 -0.0033  0.5851
  137MOL   O13019442   4.568   6.711   6.639  0.0435  0.0466  0.1330
  137MOL   H13119443   4.504   6.777   6.452  0.9701  0.7939 -0.2509
  137MOL   H13219444   4.432   6.537   6.533 -1.2573  1.2583  0.4040
  137MOL   H13319445   4.598   6.493   6.499  0.8954  1.9166  0.4057
  137MOL   H13419446   4.489   6.545   6.365  0.6780  0.6142  0.0924
  137MOL   C13519447   4.457   6.769   6.704  0.1018  0.0102  0.2209
  137MOL   C13619448   4.474   6.746   6.852 -0.8220 -0.0339 -0.3432
  137MOL   O13719449   4.434   6.909   6.684  0.0404  0.2593 -0.6251
  137MOL   H13819450   4.363   6.722   6.674 -0.6032  0.7833  1.1723
  137MOL   H13919451   4.500   6.642   6.867  1.5778  0.7968  1.7257
  137MOL   H14019452   4.378   6.764   6.902  0.0665 -1.9589  2.2009
  137MOL   H14119453   4.561   6.800   6.890  0.6609  0.0220 -3.7201
  137MOL   H14219454   4.348   6.928   6.720 -0.5019 -3.3716  0.2434
  138MOL     C119455   0.087   0.847   5.294 -0.5774 -0.3139  0.0985
  138MOL     C219456   0.237   0.830   5.319 -0.5226  0.1190  0.4726
  138MOL     O319457   0.024   0.752   5.382  0.2477 -0.1371 -0.2345
  138MOL     H419458   0.053   0.833   5.191  2.0372  1.2581 -1.0419
  138MOL     H519459   0.249   0.844   5.426  0.5316  0.5110  0.3070
  138MOL     H619460   0.300   0.899   5.263 -0.1119 -1.6863 -1.3501
  138MOL     H719461   0.272   0.730   5.294 -4.2036 -1.0518 -0.3333
  138MOL     H819462   0.064   0.947   5.329 -0.5943 -0.4874  0.5767
  138MOL     C919463   7.803   0.769   5.416  0.1379  0.2517 -0.3632
  138MOL    C1019464   7.741   0.632   5.392 -0.5503  0.2226  0.5607
  138MOL    O1119465   7.786   0.815   5.549 -0.2707 -0.2521 -0.0098
  138MOL    H1219466   7.762   0.843   5.347 -1.0598  0.1530  0.2242
  138MOL    H1319467   7.780   0.557   5.461  0.4170  0.4650  0.2885
  138MOL    H1419468   7.769   0.590   5.296  1.4392  0.7600  0.8756
  138MOL    H1519469   7.632   0.642   5.395 -0.4836  1.0844  0.2215
  138MOL    C1619470   7.737   0.944   5.564 -0.7841  0.3083 -0.0549
  138MOL    C1719471   7.593   0.931   5.572 -0.4988  0.1393 -0.1705
  138MOL    O1819472   7.774   0.991   5.687 -0.2089 -0.0437 -0.8768
  138MOL    H1919473   7.786   1.003   5.486  0.9534 -0.1399  0.6810
  138MOL    H2019474   7.570   0.874   5.663 -3.4914  1.4989  0.0048
  138MOL    H2119475   7.544   0.896   5.481 -0.2398 -1.2532  0.2186
  138MOL    H2219476   7.562   1.033   5.597  2.6116  0.5411  2.2591
  138MOL    C2319477   7.908   1.015   5.716 -0.2093  0.2433 -0.2611
  138MOL    C2419478   0.009   1.176   5.721  0.1842  0.1245 -0.0191
  138MOL    O2519479   0.026   0.962   5.843  0.3021 -0.8443  0.3652
  138MOL    H2619480   0.059   0.968   5.643 -1.6417  0.1918 -1.5311
  138MOL    H2719481   7.856   1.217   5.797  0.2960  1.4175 -0.6010
  138MOL    H2819482   7.885   1.220   5.628  0.3164  2.9992  1.2361
  138MOL    H2919483   0.107   1.215   5.746 -0.3689 -0.3189  3.0040
  138MOL    C3019484   0.010   0.834   5.860 -0.0788 -0.2224  0.1370
  138MOL    C3119485   0.136   0.759   5.825 -0.6687  0.7559 -0.1076
  138MOL    O3219486   7.901   0.805   5.994 -0.0763  0.1747  0.0120
  138MOL    H3319487   7.841   0.791   5.803 -0.9017 -2.8363  3.1528
  138MOL    H3419488   0.156   0.773   5.719 -0.4719 -1.6481 -0.4075
  138MOL    H3519489   0.130   0.653   5.849 -2.6142  0.5098 -1.5477
  138MOL    H3619490   0.226   0.787   5.879  1.1124 -0.1888 -2.4824
  138MOL    C3719491   7.778   0.829   6.047 -0.3269 -0.0903  0.0932
  138MOL    C3819492   7.720   0.694   6.074 -0.2646  0.1047 -0.4129
  138MOL    O3919493   7.789   0.889   6.179 -0.2987  0.1618  0.4558
  138MOL    H4019494   7.719   0.890   5.979  2.4730  1.2388 -1.2114
  138MOL    H4119495   7.704   0.637   5.982  0.4293 -0.0703 -0.4301
  138MOL    H4219496   7.619   0.704   6.114 -0.5155  0.7356 -1.1857
  138MOL    H4319497   7.777   0.632   6.144  0.1288 -1.4622 -2.0642
  138MOL    C4419498   7.796   1.029   6.170 -0.6885 -1.1094 -0.1709
  138MOL    C4519499   7.656   1.098   6.154  0.7285  0.2565  0.2206
  138MOL    O4619500   7.866   1.097   6.266  0.0339 -0.3066  0.3012
  138MOL    H4719501   7.844   1.044   6.073 -2.3273 -0.8614 -0.9549
  138MOL    H4819502   7.593   1.059   6.074  0.3222  0.0702  0.6314
  138MOL    H4919503   7.677   1.203   6.137 -0.3205  0.4693  0.2074
  138MOL    H5019504   7.616   1.096   6.255  3.0419  0.0056  1.1702
  138MOL    C5119505   0.081   1.059   6.268 -0.3608 -0.2347  0.5471
  138MOL    C5219506   0.160   1.146   6.165 -0.2011  0.0486 -1.1770
  138MOL    O5319507   0.143   1.089   6.394  0.9798  0.3409 -0.1766
  138MOL    H5419508   0.095   0.953   6.249 -1.2391 -0.1765 -0.4858
  138MOL    H5519509   0.266   1.125   6.173 -0.1103  0.9225  0.2602
  138MOL    H5619510   0.150   1.253   6.183  1.0922  0.0859 -0.6527
  138MOL    H5719511   0.130   1.122   6.063  2.1463 -0.5497 -1.7385
  138MOL    C5819512   0.117   0.992   6.489  0.5372 -0.9357  0.4276
  138MOL    C5919513   0.232   0.896   6.482  0.7245  0.3392 -0.9770
  138MOL    O6019514   0.123   1.039   6.618 -0.4850 -0.2028  0.1759
  138MOL    H6119515   0.021   0.945   6.467 -0.0084  0.9596 -1.4401
  138MOL    H6219516   0.190   0.809   6.533 -0.3004 -0.1340 -2.6032
  138MOL    H6319517   0.314   0.944   6.536  1.3189 -1.6066 -0.1038
  138MOL    H6419518   0.257   0.854   6.385  1.0007  0.4952 -0.9732
  138MOL    C6519519   0.011   1.114   6.655 -0.1752 -0.1962 -0.1660
  138MOL    C6619520   7.836   1.030   6.742  0.6681 -0.1087 -0.4810
  138MOL    O6719521   0.058   1.227   6.727  0.3683  0.1495  0.0941
  138MOL    H6819522   7.873   1.149   6.566 -2.6141 -2.1125  0.4688
  138MOL    H6919523   7.776   0.958   6.686 -0.1406 -0.3689  0.6962
  138MOL    H7019524   7.775   1.104   6.795 -1.1885 -2.4666  0.7610
  138MOL    H7119525   7.884   0.989   6.831 -1.7196 -1.0027  0.4477
  138MOL    C7219526   0.112   1.323   6.636 -0.3333 -0.4662  0.0144
  138MOL    C7319527   0.024   1.443   6.634 -0.6949  1.1426  0.2214
  138MOL    O7419528   0.228   1.369   6.698  0.0178 -0.8509  0.5308
  138MOL    H7519529   0.127   1.295   6.532 -0.8736  1.3723 -0.5672
  138MOL    H7619530   7.842   1.423   6.585 -0.4688  0.9376 -0.1449
  138MOL    H7719531   0.079   1.520   6.580  1.6380 -0.9884 -0.5768
  138MOL    H7819532   0.009   1.478   6.736 -2.0278  0.4191  0.2837
  138MOL    C7919533   0.338   1.284   6.681 -0.0220  0.5000  0.3168
  138MOL    C8019534   0.421   1.353   6.569 -0.6594 -0.0808 -0.0748
  138MOL    O8119535   0.426   1.273   6.790 -0.1810 -0.1096 -0.6717
  138MOL    H8219536   0.312   1.190   6.632  0.1891  1.4904 -1.7094
  138MOL    H8319537   0.418   1.460   6.587  0.4336  0.0087 -0.3393
  138MOL    H8419538   0.386   1.335   6.468  0.8013 -0.2153 -0.5785
  138MOL    H8519539   0.524   1.316   6.573 -0.1748  0.7018 -3.5464
  138MOL    C8619540   0.380   1.182   6.885 -0.8991 -0.2085  0.5690
  138MOL    C8719541   0.507   1.127   6.954 -0.2285  0.0256 -0.0290
  138MOL    O8819542   0.310   1.248   6.986  0.0046  0.5409 -0.6345
  138MOL    H8919543   0.322   1.096   6.849  0.2696 -1.4219  1.5246
  138MOL    H9019544   0.587   1.103   6.884  1.0629  1.8095  0.8065
  138MOL    H9119545   0.499   1.031   7.005  0.9241 -0.5985 -0.9939
  138MOL    H9219546   0.535   1.208   7.021 -0.0145 -0.3650  0.3605
  138MOL    C9319547   0.191   1.198   7.025 -0.8992 -0.3813  0.3608
  138MOL    C9419548   0.223   1.080   7.119  0.4969 -0.0163  0.4083
  138MOL    O9519549   0.129   1.290   7.101 -0.8323 -0.4915 -0.3644
  138MOL    H9619550   0.130   1.167   6.940  0.2279  0.3415 -0.7290
  138MOL    H9719551   0.121   1.066   7.153 -0.5426  3.3683 -1.0634
  138MOL    H9819552   0.299   1.097   7.196  1.4445  0.4442 -0.6016
  138MOL    H9919553   0.254   0.990   7.066  0.3899  0.4493 -0.4567
  138MOL   C10019554   0.085   1.397   7.022  0.2114  0.0835  0.8053
  138MOL   C10119555   7.846   1.378   6.989 -0.2143  1.0123 -0.0374
  138MOL   O10219556   0.109   1.513   7.100  0.5752 -0.7751  0.4424
  138MOL   H10319557   0.143   1.393   6.930  0.3765 -3.1483  0.9988
  138MOL   H10419558   7.792   1.359   7.081 -0.5078 -3.0394 -0.9316
  138MOL   H10519559   7.829   1.290   6.926 -1.9298  0.4611  1.1547
  138MOL   H10619560   7.810   1.463   6.931 -0.1649 -0.4196 -2.2664
  138MOL   C10719561   0.243   1.541   7.124  0.0632  0.2832  0.1853
  138MOL   C10819562   0.305   1.599   6.995  0.0733  0.4953 -0.5203
  138MOL   O10919563   0.254   1.642   7.218 -0.8036 -0.4226  0.0237
  138MOL   H11019564   0.292   1.455   7.170  0.8734  2.3839  3.3256
  138MOL   H11119565   0.240   1.672   6.948 -1.0267 -0.5185 -0.6083
  138MOL   H11219566   0.343   1.518   6.933  0.6126 -0.6611  1.2638
  138MOL   H11319567   0.397   1.649   7.027 -0.6687 -0.4772  3.3644
  138MOL   C11419568   0.219   1.608   7.349 -0.8564  0.7217 -0.0868
  138MOL   C11519569   0.340   1.618   7.437 -0.1253 -0.1421  0.1608
  138MOL   O11619570   0.127   1.711   7.385 -0.1033  0.0741  0.1163
  138MOL   H11719571   0.170   1.511   7.353 -0.0494  0.3127  0.0322
  138MOL   H11819572   0.421   1.547   7.425  0.8273  0.7400  1.2544
  138MOL   H11919573   0.315   1.608   7.543  1.7528  1.3867  0.7901
  138MOL   H12019574   0.376   1.719   7.455  1.2327 -0.6659  0.4064
  138MOL   C12119575   7.902   1.678   7.359 -0.3610  0.2359  0.4483
  138MOL   C12219576   7.826   1.641   7.489  0.7751  0.0816  0.4516
  138MOL   O12319577   7.829   1.780   7.301 -0.3125  0.6037  0.5172
  138MOL   H12419578   7.904   1.594   7.290  0.9343  1.2559 -0.7742
  138MOL   H12519579   7.722   1.621   7.467  0.3710  0.3856  1.9896
  138MOL   H12619580   7.828   1.721   7.564  1.1036  1.2575 -0.7932
  138MOL   H12719581   7.876   1.555   7.534 -2.0254 -2.3787 -0.9412
  138MOL   C12819582   7.861   1.794   7.164  0.2827 -0.1572 -0.1698
  138MOL   C12919583   7.741   1.752   7.081  0.3975 -0.3407 -0.0288
  138MOL   O13019584   7.881   1.927   7.129  0.3673 -0.5239  0.6025
  138MOL   H13119585   0.038   1.741   7.139  1.0339  0.6912  0.7134
  138MOL   H13219586   7.707   1.657   7.122 -1.1982  0.3684  0.3237
  138MOL   H13319587   7.777   1.733   6.980  2.5038 -0.9330  0.7962
  138MOL   H13419588   7.665   1.829   7.078  1.0973  0.3321 -0.6207
  138MOL   C13519589   0.089   1.977   7.175  0.2427 -0.4481 -0.1625
  138MOL   C13619590   0.196   1.987   7.062 -0.6429  0.3921 -0.2165
  138MOL   O13719591   0.076   2.102   7.224 -0.3067 -0.4316 -1.1353
  138MOL   H13819592   0.123   1.922   7.262  0.2999  0.2575  0.2611
  138MOL   H13919593   0.204   1.893   7.006 -0.2054 -0.6773  1.6036
  138MOL   H14019594   0.285   2.027   7.110 -0.2744 -0.6643  0.0039
  138MOL   H14119595   0.168   2.066   6.993 -2.6453  0.7532  0.9963
  138MOL   H14219596   0.037   2.092   7.310 -1.4440 -2.8874 -1.8736
  139MOL     C119597   6.317   1.654   0.743 -0.0165  1.0526 -0.3249
  139MOL     C219598   6.243   1.723   0.861  0.0548 -1.1519 -0.5834
  139MOL     O319599   6.338   1.753   0.646 -0.5527 -0.0895 -0.8680
  139MOL     H419600   6.258   1.577   0.695  0.3143 -0.5167  1.6909
  139MOL     H519601   6.140   1.750   0.838 -0.1118 -1.0313  0.2817
  139MOL     H619602   6.301   1.812   0.889 -0.3921 -1.0948  0.1710
  139MOL     H719603   6.242   1.650   0.941  0.7728  1.1513  1.6147
  139MOL     H819604   6.415   1.610   0.762 -0.2318 -0.3338 -2.3544
  139MOL     C919605   6.384   1.709   0.520 -0.4941 -0.2954 -0.0596
  139MOL    C1019606   6.264   1.669   0.429  0.3432  0.4981 -0.1476
  139MOL    O1119607   6.450   1.818   0.458  0.2174 -0.3260 -0.1112
  139MOL    H1219608   6.455   1.627   0.519  1.0191  0.9265  2.3494
  139MOL    H1319609   6.181   1.737   0.447 -0.5877 -0.2706 -1.4684
  139MOL    H1419610   6.228   1.567   0.440  0.7034  0.0977 -2.4309
  139MOL    H1519611   6.298   1.674   0.326 -0.5592  1.5439 -0.4071
  139MOL    C1619612   6.576   1.844   0.517  0.1953  0.1541 -0.5075
  139MOL    C1719613   6.683   1.808   0.411  0.0166  0.3006  0.6008
  139MOL    O1819614   6.588   1.975   0.546 -0.2510 -0.7028 -0.2848
  139MOL    H1919615   6.584   1.785   0.609 -1.2397  1.1257  0.2657
  139MOL    H2019616   6.782   1.840   0.442  0.0902  0.2091  0.4547
  139MOL    H2119617   6.665   1.860   0.317  2.5070  1.6441  0.8198
  139MOL    H2219618   6.687   1.702   0.389  0.1166  0.2563  0.8294
  139MOL    C2319619   6.513   2.025   0.657  0.4635 -0.6408  0.1075
  139MOL    C2419620   6.621   2.081   0.747 -0.3402 -0.4061 -0.7157
  139MOL    O2519621   6.450   2.140   0.615  0.4137 -0.1994  0.0890
  139MOL    H2619622   6.461   1.945   0.709 -3.6826  1.3232 -0.8472
  139MOL    H2719623   6.575   2.133   0.831  0.5873 -0.7897  0.0365
  139MOL    H2819624   6.678   2.146   0.681 -1.2995  0.3236 -0.8346
  139MOL    H2919625   6.687   2.002   0.783 -0.1993 -0.9033 -2.0328
  139MOL    C3019626   6.327   2.110   0.565 -0.1330  0.5253 -0.0980
  139MOL    C3119627   6.223   2.133   0.676 -0.2052 -0.1692 -0.1935
  139MOL    O3219628   6.295   2.197   0.461 -0.2009 -0.0884  0.4891
  139MOL    H3319629   6.320   2.009   0.525 -0.6048  1.3761 -2.2300
  139MOL    H3419630   6.213   2.237   0.706 -2.0801 -0.0169 -1.2433
  139MOL    H3519631   6.254   2.080   0.766 -0.1542 -2.2637 -1.4001
  139MOL    H3619632   6.126   2.104   0.635 -0.5201  1.0291 -0.3099
  139MOL    C3719633   6.369   2.161   0.341  0.9608 -0.0704  0.1627
  139MOL    C3819634   6.269   2.114   0.230  0.8160 -0.2696  0.7398
  139MOL    O3919635   6.447   2.262   0.290  0.0413 -0.2062  0.3638
  139MOL    H4019636   6.434   2.075   0.355  1.0608  0.1031  0.7729
  139MOL    H4119637   6.197   2.185   0.190 -1.5314 -3.0277 -0.1677
  139MOL    H4219638   6.207   2.034   0.270 -0.7325  0.7262  0.3462
  139MOL    H4319639   6.335   2.077   0.151 -1.1175  1.0324 -1.5770
  139MOL    C4419640   6.565   2.282   0.351 -0.2419  0.0963 -0.3721
  139MOL    C4519641   6.673   2.235   0.258 -0.3334  0.4300 -0.0488
  139MOL    O4619642   6.598   2.417   0.361 -0.1429  0.4814 -0.3154
  139MOL    H4719643   6.579   2.233   0.447  1.9160  0.9110 -0.2336
  139MOL    H4819644   6.766   2.253   0.311  0.6427 -0.5407 -1.3909
  139MOL    H4919645   6.672   2.285   0.161 -1.7997  0.9858  0.2414
  139MOL    H5019646   6.672   2.126   0.249  0.0217  0.4449 -0.2473
  139MOL    C5119647   6.546   2.472   0.483  0.5406 -0.0473  0.1046
  139MOL    C5219648   6.666   2.503   0.578  0.0641  0.2231  0.5364
  139MOL    O5319649   6.480   2.590   0.464  0.1280  0.0103  0.5626
  139MOL    H5419650   6.481   2.408   0.543 -1.7132  1.3209 -0.8260
  139MOL    H5519651   6.732   2.576   0.531 -0.0487  1.5526  2.3619
  139MOL    H5619652   6.713   2.409   0.607  0.4551 -0.2292 -1.4850
  139MOL    H5719653   6.626   2.544   0.671 -1.0046  0.6801 -0.1209
  139MOL    C5819654   6.340   2.591   0.464  0.3043  0.4509  0.0179
  139MOL    C5919655   6.287   2.655   0.595 -0.1122  0.8583 -0.1037
  139MOL    O6019656   6.291   2.676   0.364 -0.6455  0.2092  0.0469
  139MOL    H6119657   6.290   2.495   0.451  3.3090 -1.0823 -0.6848
  139MOL    H6219658   6.179   2.663   0.603 -0.2044  1.3821 -1.6792
  139MOL    H6319659   6.339   2.749   0.617  2.1358 -0.5946  0.9578
  139MOL    H6419660   6.319   2.587   0.675  1.4989  0.2722 -1.2230
  139MOL    C6519661   6.295   2.613   0.237 -1.0856  0.2117  0.4008
  139MOL    C6619662   6.154   2.563   0.212 -0.4871 -0.1159  0.0587
  139MOL    O6719663   6.327   2.717   0.150  0.2281  0.2282  0.8465
  139MOL    H6819664   6.368   2.533   0.229 -0.4333  0.6951  1.4713
  139MOL    H6919665   6.125   2.482   0.279 -1.7768 -0.1809 -0.5625
  139MOL    H7019666   6.159   2.535   0.107  1.1412 -0.4114  0.2046
  139MOL    H7119667   6.088   2.647   0.233 -0.2253 -0.2865  1.6625
  139MOL    C7219668   6.462   2.753   0.147  0.5198 -0.6710 -0.1026
  139MOL    C7319669   6.514   2.695   0.019  0.0981 -0.5905  1.0821
  139MOL    O7419670   6.478   2.896   0.144  0.2939  0.0930  0.2979
  139MOL    H7519671   6.508   2.706   0.234 -2.2658 -0.7901  1.3350
  139MOL    H7619672   6.468   2.744   7.847  2.0796  2.8280  1.8623
  139MOL    H7719673   6.493   2.588   0.022  1.1424 -0.8506 -0.5255
  139MOL    H7819674   6.621   2.706   0.004  0.1762 -1.6021  0.8422
  139MOL    C7919675   6.481   2.951   0.274  0.8836  0.3231  0.3677
  139MOL    C8019676   6.622   3.002   0.290  0.0307 -0.3363  0.2842
  139MOL    O8119677   6.393   3.058   0.287  0.0729 -0.0229 -0.6735
  139MOL    H8219678   6.468   2.872   0.347  1.1389  1.2121  1.3810
  139MOL    H8319679   6.696   2.923   0.277  1.0996  0.7873 -0.4930
  139MOL    H8419680   6.636   3.057   0.383 -0.8990 -1.8190  1.3194
  139MOL    H8519681   6.649   3.071   0.211  2.1188 -1.3280  0.1041
  139MOL    C8619682   6.257   3.020   0.271  0.6852  0.0841  0.7444
  139MOL    C8719683   6.189   3.043   0.406  0.5039 -0.0449  0.1343
  139MOL    O8819684   6.188   3.095   0.178  0.1583 -0.6662 -0.0820
  139MOL    H8919685   6.239   2.914   0.254 -0.1860  0.4474 -0.7149
  139MOL    H9019686   6.235   2.974   0.477  0.3142 -1.1191 -0.7744
  139MOL    H9119687   6.080   3.034   0.399  0.7986 -2.6905 -1.4895
  139MOL    H9219688   6.211   3.144   0.441 -0.2216  0.3719 -0.5945
  139MOL    C9319689   6.190   3.041   0.049 -0.1651  0.0351 -0.6314
  139MOL    C9419690   6.049   3.000   0.011  0.1580  0.1626  0.2109
  139MOL    O9519691   6.227   3.148   7.879  0.0811 -0.0144  0.0652
  139MOL    H9619692   6.259   2.958   0.034  1.0892  0.4408  2.5645
  139MOL    H9719693   5.979   3.074   0.047 -1.6002 -1.6370  0.5667
  139MOL    H9819694   6.027   2.902   0.054  1.9820 -0.7975 -0.9398
  139MOL    H9919695   6.049   2.994   7.816  2.1135 -2.0010  0.2768
  139MOL   C10019696   6.359   3.173   7.873  0.5072 -0.0304  0.0106
  139MOL   C10119697   6.422   3.116   7.744  0.6053 -0.4079 -0.0634
  139MOL   O10219698   6.377   3.314   7.867  0.2618 -0.2295  0.3684
  139MOL   H10319699   6.406   3.134   0.049  1.7992 -0.1744 -0.7277
  139MOL   H10419700   6.406   3.010   7.724  3.7624 -1.0750  0.7669
  139MOL   H10519701   6.522   3.158   7.736  0.9967 -1.3545 -0.1472
  139MOL   H10619702   6.373   3.171   7.664  0.1040 -1.2099 -0.3183
  139MOL   C10719703   6.369   3.379   0.079  0.6215  0.2822  0.4479
  139MOL   C10819704   6.511   3.396   0.132  0.2309 -0.3118  0.1615
  139MOL   O10919705   6.307   3.507   0.063 -0.0506  0.0706  0.4838
  139MOL   H11019706   6.309   3.327   0.153  1.9015 -1.9647 -0.0243
  139MOL   H11119707   6.548   3.299   0.164 -3.0518 -1.7419 -0.2060
  139MOL   H11219708   6.498   3.470   0.211 -1.2913 -1.0866  0.6385
  139MOL   H11319709   6.576   3.440   0.056 -2.8719  0.6225 -2.0399
  139MOL   C11419710   6.171   3.502   0.045 -0.7054  0.3664  0.5993
  139MOL   C11519711   6.122   3.572   0.170 -0.2309  0.3163  0.1066
  139MOL   O11619712   6.130   3.577   7.851  0.2305  0.4260  0.4831
  139MOL   H11719713   6.132   3.400   0.045 -3.0027  1.2116  1.6622
  139MOL   H11819714   6.013   3.568   0.166 -0.1590 -0.7119 -1.4992
  139MOL   H11919715   6.153   3.675   0.181  2.5304 -0.4031 -0.4672
  139MOL   H12019716   6.153   3.522   0.262 -0.6145 -2.2327 -1.1052
  139MOL   C12119717   6.170   3.516   7.727  0.6066  0.0602  0.0853
  139MOL   C12219718   6.049   3.444   7.658 -0.4842  0.1724 -0.4378
  139MOL   O12319719   6.203   3.626   7.647  0.3482  0.4455  0.4319
  139MOL   H12419720   6.259   3.454   7.729  0.0240 -0.8138 -0.8146
  139MOL   H12519721   6.005   3.364   7.717  2.3637 -0.8284  0.3835
  139MOL   H12619722   6.066   3.390   7.565 -2.6756 -0.1591 -0.6640
  139MOL   H12719723   5.971   3.520   7.650 -2.3565 -1.5745  0.8408
  139MOL   C12819724   6.341   3.667   7.660  0.6295  0.5097 -1.1304
  139MOL   C12919725   6.403   3.649   7.519 -0.3529 -0.5518  0.4613
  139MOL   O13019726   6.363   3.796   7.705 -0.6499  0.3594 -0.4046
  139MOL   H13119727   6.394   3.603   7.731  0.0695  2.3891  1.0528
  139MOL   H13219728   6.365   3.560   7.468 -0.0151 -1.3223  1.5293
  139MOL   H13319729   6.511   3.637   7.526 -0.1972 -0.5502 -1.5220
  139MOL   H13419730   6.386   3.745   7.471  0.5240 -0.1409  0.9730
  139MOL   C13519731   6.326   3.816   7.834  0.4409  0.1524  0.5884
  139MOL   C13619732   6.394   3.944   7.878  0.0482  0.2687 -0.0964
  139MOL   O13719733   6.190   3.830   7.847  0.2650 -0.0728  0.2209
  139MOL   H13819734   6.364   3.737   7.898  0.2697 -0.0206  0.4755
  139MOL   H13919735   6.368   3.953   0.070 -0.2391 -1.5495  0.0122
  139MOL   H14019736   6.359   4.024   7.813  3.0595 -0.0704 -2.2147
  139MOL   H14119737   6.502   3.933   7.866  0.5015  1.8728  2.2028
  139MOL   H14219738   6.154   3.743   7.838 -2.1487  1.2123 -3.1813
  140MOL     C119739   4.642   4.122   5.651 -0.4135  0.3734  0.0829
  140MOL     C219740   4.704   4.002   5.584  0.6961  0.7341  0.3858
  140MOL     O319741   4.608   4.219   5.554 -0.3383  0.1327 -0.4873
  140MOL     H419742   4.722   4.160   5.714  0.4899 -0.3991 -0.5986
  140MOL     H519743   4.636   3.926   5.545 -2.1481  2.6745  1.4075
  140MOL     H619744   4.773   3.954   5.653  1.0602  1.2460  0.3781
  140MOL     H719745   4.766   4.026   5.497  0.4878  0.2803  0.1077
  140MOL     H819746   4.564   4.088   5.720 -0.6257  0.4359 -0.1246
  140MOL     C919747   4.492   4.196   5.486  0.6189  0.8733  0.2926
  140MOL    C1019748   4.370   4.236   5.571  0.2962 -0.0225 -0.4354
  140MOL    O1119749   4.492   4.285   5.373 -0.1019  0.1040  0.2248
  140MOL    H1219750   4.487   4.092   5.453  0.3209  1.4458 -1.4899
  140MOL    H1319751   4.370   4.204   5.675 -0.8403 -1.0915 -0.7601
  140MOL    H1419752   4.276   4.195   5.534  0.3329 -1.5646  1.1338
  140MOL    H1519753   4.367   4.345   5.568 -0.0610 -0.0047  0.3394
  140MOL    C1619754   4.581   4.253   5.273  0.0243  0.5714 -0.0021
  140MOL    C1719755   4.514   4.155   5.172 -0.8311  0.0034 -0.4806
  140MOL    O1819756   4.628   4.362   5.207 -0.0356 -0.4786 -0.2132
  140MOL    H1919757   4.668   4.199   5.310  0.0713 -1.4381 -2.8358
  140MOL    H2019758   4.592   4.139   5.098 -0.1176  0.4983  0.1579
  140MOL    H2119759   4.420   4.187   5.127  0.0087 -0.1194 -2.3789
  140MOL    H2219760   4.487   4.062   5.222 -0.4092  0.3219  0.3377
  140MOL    C2319761   4.695   4.447   5.299 -0.2820  0.2380  0.1389
  140MOL    C2419762   4.846   4.440   5.260  0.2188 -0.1973  0.3829
  140MOL    O2519763   4.653   4.577   5.277  0.2214 -0.6556  0.4486
  140MOL    H2619764   4.695   4.418   5.404  1.9428 -1.3580 -0.2656
  140MOL    H2719765   4.862   4.480   5.160 -1.5051 -0.0641  0.1573
  140MOL    H2819766   4.872   4.334   5.260 -2.1516 -0.8228 -0.9133
  140MOL    H2919767   4.912   4.498   5.324 -1.4074  1.7505  0.3128
  140MOL    C3019768   4.526   4.610   5.330 -0.2968  0.3530  0.0851
  140MOL    C3119769   4.546   4.690   5.462 -0.3445 -0.4865 -0.0411
  140MOL    O3219770   4.462   4.694   5.240  0.0178  0.4922 -0.6021
  140MOL    H3319771   4.461   4.527   5.356 -1.0089  0.7394 -0.4506
  140MOL    H3419772   4.607   4.624   5.524 -0.9577 -0.9606  0.0598
  140MOL    H3519773   4.450   4.710   5.510 -0.2403  1.1174 -0.4738
  140MOL    H3619774   4.594   4.784   5.436 -2.5537 -0.0781 -2.8750
  140MOL    C3719775   4.411   4.618   5.128  0.0602  0.2298  0.3913
  140MOL    C3819776   4.257   4.629   5.146 -0.2636 -0.2274  0.5150
  140MOL    O3919777   4.445   4.681   5.005 -0.4327 -0.0458  0.1921
  140MOL    H4019778   4.430   4.510   5.134 -1.0777  0.0797  1.6841
  140MOL    H4119779   4.212   4.550   5.085  0.0630  0.2955 -0.4034
  140MOL    H4219780   4.222   4.729   5.121  0.3243 -0.3397 -0.8009
  140MOL    H4319781   4.220   4.601   5.244 -0.2619 -0.3109  0.4917
  140MOL    C4419782   4.584   4.663   4.968  0.2899  0.9329  0.2027
  140MOL    C4519783   4.570   4.580   4.835  0.1585  0.5832  0.9064
  140MOL    O4619784   4.638   4.788   4.938 -0.0987 -0.4625  0.0008
  140MOL    H4719785   4.639   4.606   5.044 -1.8403  0.4577  1.4451
  140MOL    H4819786   4.563   4.474   4.862 -0.9411  0.4075  0.0028
  140MOL    H4919787   4.655   4.588   4.767  0.5023  3.9353  1.6605
  140MOL    H5019788   4.487   4.608   4.769  0.5422 -2.7113 -1.1099
  140MOL    C5119789   4.639   4.885   5.040 -0.4137  0.3281 -0.2247
  140MOL    C5219790   4.775   4.962   5.023  0.0786  0.0453 -0.6221
  140MOL    O5319791   4.555   4.988   5.003  0.2356  0.7221 -0.0434
  140MOL    H5419792   4.619   4.844   5.139  0.1189 -0.5243 -0.4618
  140MOL    H5519793   4.763   5.027   4.936  1.2913  0.5144 -0.4576
  140MOL    H5619794   4.862   4.897   5.016  1.1122  1.3613 -0.2237
  140MOL    H5719795   4.783   5.030   5.108  0.1713 -2.8079  1.7402
  140MOL    C5819796   4.433   4.993   5.073  0.6252 -0.1958  0.4243
  140MOL    C5919797   4.449   5.100   5.186 -0.0546 -0.4525  1.1447
  140MOL    O6019798   4.335   5.034   4.989  0.3361 -0.2107 -0.6811
  140MOL    H6119799   4.409   4.892   5.105 -1.3599  0.7797  2.1069
  140MOL    H6219800   4.457   5.198   5.139 -0.2759 -0.7303  0.5234
  140MOL    H6319801   4.536   5.077   5.248  0.3739 -0.5139  0.5318
  140MOL    H6419802   4.359   5.113   5.245 -0.3711  2.3168  0.1174
  140MOL    C6519803   4.317   4.961   4.874 -0.0629  0.0603  0.1584
  140MOL    C6619804   4.164   4.939   4.861 -0.5016  0.2806  0.6186
  140MOL    O6719805   4.356   5.045   4.764 -0.1950 -0.8347  0.3675
  140MOL    H6819806   4.366   4.865   4.863 -0.3962  0.2919 -4.4487
  140MOL    H6919807   4.153   4.883   4.768 -0.5933  0.1778  0.6920
  140MOL    H7019808   4.115   5.034   4.838 -0.3254  0.3206  0.4105
  140MOL    H7119809   4.131   4.899   4.956 -0.5173  0.9987  0.9164
  140MOL    C7219810   4.467   4.992   4.697  0.1488  0.0911  0.1968
  140MOL    C7319811   4.421   4.882   4.606 -0.2503  0.8232 -0.1170
  140MOL    O7419812   4.534   5.094   4.618  0.0403  0.0840 -0.0480
  140MOL    H7519813   4.543   4.963   4.770  1.1214  1.7185 -0.1377
  140MOL    H7619814   4.332   4.909   4.549 -1.5106  3.7974  3.1004
  140MOL    H7719815   4.395   4.789   4.657  3.8756 -1.1288 -1.3459
  140MOL    H7819816   4.499   4.847   4.538 -0.3971 -0.0485  0.1610
  140MOL    C7919817   4.636   5.165   4.682  1.1356  0.3636  0.0034
  140MOL    C8019818   4.759   5.163   4.587 -0.5498  0.1986 -0.4796
  140MOL    O8119819   4.608   5.300   4.704  0.0354 -0.2660 -0.3473
  140MOL    H8219820   4.668   5.125   4.779 -0.7022  0.0104  0.4766
  140MOL    H8319821   4.831   5.241   4.613 -0.9130  1.0487 -1.9480
  140MOL    H8419822   4.736   5.171   4.481  0.5486  2.1596 -0.5912
  140MOL    H8519823   4.808   5.067   4.605  0.7881  0.9613  0.0414
  140MOL    C8619824   4.534   5.315   4.823  0.1957 -0.3719  0.0096
  140MOL    C8719825   4.630   5.372   4.933  0.4284 -0.1075  0.4984
  140MOL    O8819826   4.441   5.421   4.808 -0.1939 -0.2138  0.0752
  140MOL    H8919827   4.470   5.238   4.866  0.6009 -0.4078  0.5442
  140MOL    H9019828   4.578   5.409   5.021 -0.6939 -0.4199 -0.0239
  140MOL    H9119829   4.692   5.453   4.894  2.7661 -0.5757  3.1510
  140MOL    H9219830   4.701   5.301   4.973 -1.6104 -0.7566  3.1220
  140MOL    C9319831   4.335   5.383   4.735  0.1756 -0.0597 -0.1948
  140MOL    C9419832   4.222   5.347   4.835 -0.0041  0.0725  0.1442
  140MOL    O9519833   4.295   5.503   4.677 -0.0526  0.6260 -0.1094
  140MOL    H9619834   4.352   5.309   4.656  0.0147  0.2784 -0.5486
  140MOL    H9719835   4.204   5.436   4.896  2.3896 -0.0219  1.0702
  140MOL    H9819836   4.239   5.258   4.896  0.4474 -1.4668 -2.1618
  140MOL    H9919837   4.137   5.325   4.771  1.9381 -0.1615 -2.4438
  140MOL   C10019838   4.359   5.533   4.555  0.6436 -0.9141 -0.5719
  140MOL   C10119839   4.252   5.522   4.443  0.3523  0.0100 -0.4385
  140MOL   O10219840   4.403   5.669   4.554 -0.0411 -1.1260  0.0985
  140MOL   H10319841   4.442   5.464   4.536  0.5619 -0.5922 -2.1572
  140MOL   H10419842   4.183   5.606   4.450 -3.0800 -2.8214  0.6489
  140MOL   H10519843   4.193   5.434   4.467 -0.1316  0.5943  0.5093
  140MOL   H10619844   4.293   5.520   4.341 -0.8509  0.8403 -0.9521
  140MOL   C10719845   4.523   5.682   4.617 -0.0016  0.1686 -0.0956
  140MOL   C10819846   4.627   5.697   4.511 -0.1224  0.7876  0.1133
  140MOL   O10919847   4.523   5.801   4.692  0.0104  0.6898  0.3121
  140MOL   H11019848   4.549   5.604   4.689 -0.3812  1.1760  1.1371
  140MOL   H11119849   4.602   5.778   4.443  1.2956  1.3416  0.2283
  140MOL   H11219850   4.621   5.608   4.448 -0.1171  0.2261  0.8891
  140MOL   H11319851   4.723   5.723   4.556  1.0300  0.9477 -2.3750
  140MOL   C11419852   4.446   5.796   4.809 -0.7741 -0.2549  0.0300
  140MOL   C11519853   4.535   5.838   4.927  0.6013 -0.4110 -0.0098
  140MOL   O11619854   4.345   5.891   4.790  0.0084  0.3463 -1.1005
  140MOL   H11719855   4.407   5.696   4.831 -0.7311  0.1068  1.8117
  140MOL   H11819856   4.594   5.925   4.898  1.3216 -0.8761  0.0494
  140MOL   H11919857   4.601   5.751   4.922 -0.1480 -0.9028 -1.7284
  140MOL   H12019858   4.482   5.858   5.020  0.1812 -1.1670 -0.0856
  140MOL   C12119859   4.223   5.838   4.745  0.8431 -0.2605  0.0940
  140MOL   C12219860   4.134   5.811   4.873 -0.1436  1.2311 -0.1026
  140MOL   O12319861   4.155   5.934   4.672 -0.4648 -0.0440 -0.3816
  140MOL   H12419862   4.222   5.744   4.690 -2.3883 -0.6324  0.6969
  140MOL   H12519863   4.038   5.773   4.840  0.0380  0.5606  0.1370
  140MOL   H12619864   4.115   5.906   4.924 -2.4190  0.3509  0.7164
  140MOL   H12719865   4.173   5.736   4.942 -0.5926  0.8222 -0.2945
  140MOL   C12819866   4.216   5.975   4.558  0.0372 -0.0751 -0.2624
  140MOL   C12919867   4.137   5.920   4.442  0.6513 -0.0082 -0.3314
  140MOL   O13019868   4.216   6.115   4.549 -0.4382  0.2683  0.1204
  140MOL   H13119869   4.322   5.952   4.546  0.1893  0.2955  0.3723
  140MOL   H13219870   4.099   5.822   4.473 -0.4738  1.0552  1.7471
  140MOL   H13319871   4.200   5.897   4.356  0.1261 -1.2779 -0.3982
  140MOL   H13419872   4.050   5.981   4.414  0.3997  0.0574  0.5783
  140MOL   C13519873   4.311   6.168   4.636  0.8406 -0.2801 -0.2145
  140MOL   C13619874   4.320   6.316   4.603  0.2538  0.2759 -0.7285
  140MOL   O13719875   4.276   6.148   4.771 -0.8274 -0.4422 -0.0681
  140MOL   H13819876   4.413   6.132   4.624  0.7333 -0.7329  0.2021
  140MOL   H13919877   4.248   6.369   4.665  0.1424  0.4729 -1.0252
  140MOL   H14019878   4.307   6.324   4.495 -2.5065  0.9999 -0.3707
  140MOL   H14119879   4.420   6.359   4.614 -0.9068  2.5625  1.3268
  140MOL   H14219880   4.286   6.055   4.784 -2.7024 -0.5980  0.5066
  141MOL     C119881   3.432   0.057   3.497 -0.1888 -0.3558  0.3799
  141MOL     C219882   3.473   0.156   3.597  0.7229  0.9479  0.3277
  141MOL     O319883   3.484   0.076   3.371 -0.1345 -0.6220 -0.1710
  141MOL     H419884   3.325   0.075   3.481 -0.0495  1.7371  1.5982
  141MOL     H519885   3.405   0.143   3.681 -0.2981 -0.3999 -0.6943
  141MOL     H619886   3.469   0.260   3.563  0.3856  0.8640  0.1126
  141MOL     H719887   3.579   0.142   3.618  0.5071 -1.6344 -0.1541
  141MOL     H819888   3.443   7.867   3.530  0.9079 -0.8845 -1.5903
  141MOL     C919889   3.441   7.909   3.271  0.2736  0.3095 -0.5113
  141MOL    C1019890   3.529   0.012   3.146 -0.3456  0.5308 -0.2723
  141MOL    O1119891   3.449   7.769   3.298  0.4972  0.4150 -0.4325
  141MOL    H1219892   3.337   0.017   3.246 -0.2764 -2.8655 -1.3290
  141MOL    H1319893   3.533   0.118   3.120 -1.3000  0.8822  0.9641
  141MOL    H1419894   3.479   7.865   3.070 -0.2694 -1.6521  1.3830
  141MOL    H1519895   3.621   7.872   3.169  0.0581  0.6152 -1.6231
  141MOL    C1619896   3.332   7.693   3.306  0.0391  0.4099  0.1414
  141MOL    C1719897   3.384   7.554   3.322  0.2189 -1.0784  0.4866
  141MOL    O1819898   3.242   7.718   3.413  0.2584 -0.2874  0.0501
  141MOL    H1919899   3.278   7.706   3.212 -2.6211 -1.3335  1.3807
  141MOL    H2019900   3.431   7.546   3.420 -0.4903  1.6942  1.0859
  141MOL    H2119901   3.456   7.531   3.243  1.1785  2.3582  0.2840
  141MOL    H2219902   3.307   7.477   3.316 -0.5231 -0.4860  2.1445
  141MOL    C2319903   3.105   7.703   3.382  0.1957 -0.2690  0.7721
  141MOL    C2419904   3.025   7.674   3.505  0.3410  0.1820  0.8174
  141MOL    O2519905   3.062   7.818   3.325 -0.1983 -0.2301 -0.0526
  141MOL    H2619906   3.104   7.626   3.305  0.6582  1.2742 -0.8145
  141MOL    H2719907   3.012   7.773   3.550 -0.1373  0.9559 -0.9781
  141MOL    H2819908   3.076   7.603   3.569  0.5234  1.1799  1.8017
  141MOL    H2919909   2.921   7.643   3.491 -0.1012  1.7998  0.3734
  141MOL    C3019910   2.950   7.800   3.246  0.1638  0.4506  0.6186
  141MOL    C3119911   2.910   0.017   3.189 -0.2878 -0.7686 -0.7539
  141MOL    O3219912   2.969   7.709   3.137  0.2259  0.3910 -0.5040
  141MOL    H3319913   2.865   7.768   3.307 -0.3495  2.7300  1.1428
  141MOL    H3419914   2.805   0.011   3.163 -0.2774 -3.7450 -0.1992
  141MOL    H3519915   2.970   0.038   3.100  0.2741 -0.4179 -0.2969
  141MOL    H3619916   2.925   0.093   3.266  1.0180 -0.6585 -1.0971
  141MOL    C3719917   2.863   7.628   3.104  0.0563 -0.1063 -0.2463
  141MOL    C3819918   2.894   7.537   2.981 -0.4153  0.1061 -0.3375
  141MOL    O3919919   2.821   7.544   3.212 -0.0933  0.2450  0.2649
  141MOL    H4019920   2.778   7.693   3.080 -1.6434 -1.5896  1.5895
  141MOL    H4119921   2.887   7.605   2.896 -1.8628 -0.4511 -0.6680
  141MOL    H4219922   2.824   7.455   2.968  0.2905 -0.3699 -1.1876
  141MOL    H4319923   2.998   7.510   3.001 -0.6506 -1.4516 -1.1799
  141MOL    C4419924   2.681   7.538   3.224  0.0470 -0.4911 -0.3136
  141MOL    C4519925   2.644   7.410   3.303  0.0093 -0.1327  0.0404
  141MOL    O4619926   2.633   7.645   3.294  0.4735 -0.2048 -0.3603
  141MOL    H4719927   2.646   7.541   3.121  0.1933  3.1599 -0.3427
  141MOL    H4819928   2.536   7.410   3.314  0.1585  1.3553  1.8100
  141MOL    H4919929   2.706   7.414   3.393  1.2083  3.4748 -0.8570
  141MOL    H5019930   2.669   7.322   3.243  1.9301  0.2348  0.2814
  141MOL    C5119931   2.505   7.680   3.255  0.1655  0.3959  1.0225
  141MOL    C5219932   2.466   7.800   3.343  1.2803 -0.2508  0.2118
  141MOL    O5319933   2.495   7.720   3.121  0.2180  0.0398  0.4180
  141MOL    H5419934   2.433   7.602   3.278  0.3840  0.4522  1.9054
  141MOL    H5519935   2.517   7.896   3.330 -0.7622  0.7033 -0.9254
  141MOL    H5619936   2.472   7.768   3.447 -2.8468 -1.7065  0.0881
  141MOL    H5719937   2.359   7.813   3.329  1.0716 -1.0009  1.0387
  141MOL    C5819938   2.360   7.717   3.072  0.2093  0.6812 -0.8060
  141MOL    C5919939   2.363   7.762   2.926 -0.1805 -0.4544  0.7619
  141MOL    O6019940   2.319   7.591   3.066 -0.6683 -0.0099  0.6103
  141MOL    H6119941   2.299   7.785   3.131  0.0633  0.8650 -1.1712
  141MOL    H6219942   2.434   7.699   2.873 -1.3281 -1.8998  0.9030
  141MOL    H6319943   2.400   7.864   2.916 -1.0850 -0.1456  0.5646
  141MOL    H6419944   2.277   7.741   2.863 -0.1076 -0.8828  0.8032
  141MOL    C6519945   2.189   7.561   3.105  0.1430  0.1620  0.2024
  141MOL    C6619946   2.161   7.415   3.054  0.6456  0.6274 -0.6092
  141MOL    O6719947   2.178   7.566   3.244  0.3691 -0.0832  0.0651
  141MOL    H6819948   2.125   7.629   3.050  0.5804  1.3105  1.0790
  141MOL    H6919949   2.235   7.356   3.110 -0.7122  1.1105  1.7837
  141MOL    H7019950   2.179   7.397   2.948 -2.2597  1.1682 -1.2395
  141MOL    H7119951   2.073   7.366   3.098  0.9877  1.2827  0.8509
  141MOL    C7219952   2.048   7.596   3.280  0.1162 -0.0098 -0.7005
  141MOL    C7319953   2.041   7.546   3.430  0.7716  0.3217 -0.2053
  141MOL    O7419954   2.032   7.736   3.290 -0.2078  0.4301 -0.0329
  141MOL    H7519955   1.975   7.549   3.214  0.3568  0.7962 -1.5605
  141MOL    H7619956   2.136   7.568   3.480  1.1577 -0.8874 -0.3951
  141MOL    H7719957   2.035   7.438   3.447  0.6444  0.4412  0.5298
  141MOL    H7819958   1.965   7.594   3.492  2.7956  0.9694  1.8578
  141MOL    C7919959   1.929   7.791   3.211  0.5932 -0.8025 -0.3643
  141MOL    C8019960   1.924   0.031   3.252 -0.0395  0.3725  0.6734
  141MOL    O8119961   1.976   7.794   3.078 -0.2479  0.4982 -0.4460
  141MOL    H8219962   1.834   7.739   3.226  0.1482  0.4289  1.2556
  141MOL    H8319963   1.864   0.086   3.179  0.3923  0.1060  0.1091
  141MOL    H8419964   2.030   0.056   3.250 -0.5734  2.7361  0.7195
  141MOL    H8519965   1.892   0.033   3.356 -0.4735  1.0345  0.5301
  141MOL    C8619966   1.876   7.756   2.986  0.5455  0.4064  0.0310
  141MOL    C8719967   1.937   7.778   2.845 -0.6546  0.3445  0.0737
  141MOL    O8819968   1.847   7.621   3.005 -0.1495  0.0670  0.2548
  141MOL    H8919969   1.785   7.815   2.993  0.2650 -0.0605  0.3907
  141MOL    H9019970   1.854   7.778   2.774  1.7653  1.2563 -2.8773
  141MOL    H9119971   2.002   7.694   2.820  1.3032  2.0868 -0.8028
  141MOL    H9219972   2.000   7.867   2.850  1.0904 -1.0105  4.6736
  141MOL    C9319973   1.713   7.592   2.987  0.2983  0.2614  0.2171
  141MOL    C9419974   1.690   7.445   2.988  0.1941  0.1370  0.0279
  141MOL    O9519975   1.645   7.634   3.101 -0.4352  0.5210  0.5085
  141MOL    H9619976   1.672   7.625   2.892 -0.9750 -1.6734  0.0629
  141MOL    H9719977   1.723   7.410   3.085  1.0282 -0.5211 -0.4904
  141MOL    H9819978   1.731   7.406   2.895  0.7167  0.8172 -0.0280
  141MOL    H9919979   1.582   7.430   2.983  0.0092  1.8171 -2.0792
  141MOL   C10019980   1.539   7.715   3.074  0.0717 -0.3366 -0.2478
  141MOL   C10119981   1.488   7.757   3.217 -0.0868 -0.2711  0.2979
  141MOL   O10219982   1.570   7.837   3.015  0.1605  0.2821 -0.1970
  141MOL   H10319983   1.468   7.658   3.015 -0.7785  0.5255 -0.0751
  141MOL   H10419984   1.388   7.800   3.227 -0.7015 -1.3651 -0.9912
  141MOL   H10519985   1.566   7.825   3.253 -0.3994  1.1961 -1.6763
  141MOL   H10619986   1.487   7.666   3.276  1.7955  0.2933  1.2541
  141MOL   C10719987   1.481   7.869   2.917  0.6072 -0.5282  0.1899
  141MOL   C10819988   1.515   0.089   2.865  0.3878  0.3792  0.6248
  141MOL   O10919989   1.489   7.780   2.809  0.3658 -0.2815  0.0354
  141MOL   H11019990   1.388   7.878   2.974  1.0757  0.5305  0.8003
  141MOL   H11119991   1.501   0.167   2.939  0.4984 -1.1361  2.2712
  141MOL   H11219992   1.456   0.126   2.781 -1.4058  1.7102  2.4100
  141MOL   H11319993   1.620   0.098   2.841  0.0889  1.0913 -0.4495
  141MOL   C11419994   1.369   7.753   2.742  0.1117 -0.1423 -1.3859
  141MOL   C11519995   1.404   7.654   2.638 -0.1844 -0.0423  0.3293
  141MOL   O11619996   1.274   7.694   2.828 -0.1780  0.2709 -0.0385
  141MOL   H11719997   1.328   7.841   2.693 -0.5842 -1.0628 -2.4736
  141MOL   H11819998   1.497   7.672   2.586 -0.2176  0.4004  0.4198
  141MOL   H11919999   1.326   7.670   2.563  0.5341 -0.6094 -0.5549
  141MOL   H12020000   1.401   7.549   2.667  1.1510  0.0940  1.0001
  141MOL   C12120001   1.141   7.711   2.799 -0.4321  0.1953 -0.4444
  141MOL   C12220002   1.053   7.651   2.909 -0.4156  0.0462  0.1406
  141MOL   O12320003   1.117   7.848   2.795 -0.0267  0.1371 -0.3748
  141MOL   H12420004   1.126   7.669   2.700  0.7920 -0.8452 -0.1834
  141MOL   H12520005   0.952   7.671   2.871 -0.6727 -1.7127 -0.1171
  141MOL   H12620006   1.066   7.687   3.011 -1.7851  1.1599 -0.0536
  141MOL   H12720007   1.061   7.543   2.908 -0.8246  0.0164 -0.4348
  141MOL   C12820008   1.044   7.888   2.676  0.4340 -0.2552  0.2838
  141MOL   C12920009   1.005   0.116   2.687 -0.2631  0.2877  1.1593
  141MOL   O13020010   1.125   7.877   2.562 -0.4245  0.3615 -0.2042
  141MOL   H13120011   0.953   7.829   2.677 -0.3190  0.8648 -1.4311
  141MOL   H13220012   0.929   0.122   2.765 -1.4090  1.0716  0.0264
  141MOL   H13320013   0.979   0.162   2.591  0.8508 -3.6298 -1.1187
  141MOL   H13420014   1.090   0.170   2.727  1.5273 -1.3601 -0.3393
  141MOL   C13520015   1.060   7.825   2.455  0.7474 -0.1783  0.6049
  141MOL   C13620016   1.142   7.852   2.320 -0.0319 -0.0066  0.2504
  141MOL   O13720017   1.037   7.688   2.461 -0.2623  0.2386  0.2060
  141MOL   H13820018   0.965   7.878   2.449  0.8895 -0.1024 -1.0988
  141MOL   H13920019   1.249   7.858   2.337 -0.2763  0.9252  1.5585
  141MOL   H14020020   1.106   0.030   2.274 -2.2663 -0.2248  1.4929
  141MOL   H14120021   1.116   7.776   2.247 -0.3356  0.5089 -0.1885
  141MOL   H14220022   0.946   7.672   2.478 -0.3219 -0.1057 -0.4172
  142MOL     C120023   6.551   1.999   5.430  0.2553 -0.0476 -0.3378
  142MOL     C220024   6.683   1.924   5.422  0.0147  0.5459 -1.0406
  142MOL     O320025   6.481   1.956   5.313  0.5830  0.0122 -0.0749
  142MOL     H420026   6.568   2.107   5.432 -0.6365  0.1852 -2.9570
  142MOL     H520027   6.758   1.966   5.489 -2.4563  1.1056  1.4497
  142MOL     H620028   6.714   1.938   5.318 -0.9470  0.0293 -1.3998
  142MOL     H720029   6.657   1.822   5.450 -0.6991  1.4374  1.6634
  142MOL     H820030   6.499   1.963   5.518  1.0942  0.7878  0.5103
  142MOL     C920031   6.362   2.032   5.290 -0.6332 -0.3616  0.3407
  142MOL    C1020032   6.402   2.168   5.225 -0.3072 -0.5891 -0.4471
  142MOL    O1120033   6.290   1.959   5.198 -0.2748  0.0715 -0.2109
  142MOL    H1220034   6.311   2.061   5.382 -2.5058 -1.6162 -0.2761
  142MOL    H1320035   6.453   2.228   5.300 -0.9688  0.6978 -0.9926
  142MOL    H1420036   6.309   2.219   5.197 -0.6214 -1.6197 -1.2890
  142MOL    H1520037   6.462   2.148   5.136 -2.0128 -2.2808 -1.2500
  142MOL    C1620038   6.213   1.862   5.256  0.4666 -0.0442  0.5767
  142MOL    C1720039   6.072   1.918   5.274 -0.0251 -0.0677 -0.0487
  142MOL    O1820040   6.188   1.758   5.168 -0.5236  0.9166  0.8072
  142MOL    H1920041   6.267   1.832   5.346  0.3135  3.2357  1.8091
  142MOL    H2020042   6.031   1.948   5.178  0.2468 -0.0877 -0.1729
  142MOL    H2120043   6.075   1.996   5.350 -1.1114  0.8234 -0.9130
  142MOL    H2220044   5.997   1.847   5.308  1.4674 -1.5278  0.2218
  142MOL    C2320045   6.284   1.657   5.163 -0.0760  0.3023  0.2959
  142MOL    C2420046   6.194   1.539   5.171  0.9481  0.8429 -0.1014
  142MOL    O2520047   6.348   1.645   5.044 -0.8891 -0.4253 -0.5800
  142MOL    H2620048   6.348   1.663   5.251  1.1770  1.0431 -0.6577
  142MOL    H2720049   6.261   1.453   5.168 -0.3903 -0.1921 -1.6283
  142MOL    H2820050   6.124   1.528   5.088  0.1048  3.3613  0.2333
  142MOL    H2920051   6.132   1.536   5.261  1.2905  0.0545  0.1116
  142MOL    C3020052   6.452   1.739   5.028  0.9353 -0.2223  0.4736
  142MOL    C3120053   6.584   1.659   5.051  0.2916  0.3130  0.0738
  142MOL    O3220054   6.455   1.789   4.900  0.3881  0.1242 -0.0094
  142MOL    H3320055   6.458   1.827   5.093  0.9595  0.3237 -0.2639
  142MOL    H3420056   6.581   1.609   5.148 -1.0890 -0.2423 -0.2478
  142MOL    H3520057   6.674   1.719   5.033 -0.7733  1.7036 -0.6878
  142MOL    H3620058   6.600   1.578   4.981 -1.7853 -1.6821  1.8250
  142MOL    C3720059   6.360   1.886   4.875 -0.3500 -0.5952 -0.0204
  142MOL    C3820060   6.426   2.025   4.848  0.2044  0.5883 -0.1975
  142MOL    O3920061   6.284   1.861   4.761  0.2440 -0.0805  0.2885
  142MOL    H4020062   6.298   1.883   4.964  1.4917 -3.5760  1.2309
  142MOL    H4120063   6.501   2.055   4.922 -0.1072 -0.6913  0.6558
  142MOL    H4220064   6.364   2.114   4.856  0.0314  0.4591 -0.0937
  142MOL    H4320065   6.488   2.039   4.760  1.1670 -1.2617  0.1718
  142MOL    C4420066   6.177   1.779   4.774 -0.4841  0.2055 -0.6809
  142MOL    C4520067   6.057   1.862   4.759  0.2904  0.2661 -0.1703
  142MOL    O4620068   6.179   1.688   4.669 -0.3594  0.2809 -0.0485
  142MOL    H4720069   6.173   1.726   4.869 -1.6462  1.9311  0.2608
  142MOL    H4820070   6.068   1.957   4.812 -0.1848  0.4730 -0.4491
  142MOL    H4920071   5.978   1.807   4.808  0.3493  0.8193  0.5568
  142MOL    H5020072   6.038   1.870   4.652  0.1767 -0.9568 -0.2474
  142MOL    C5120073   6.279   1.588   4.678 -0.0664  0.4655 -0.2042
  142MOL    C5220074   6.225   1.462   4.760  0.2575 -0.2882  0.4155
  142MOL    O5320075   6.296   1.549   4.542 -0.1756  0.2395 -0.3930
  142MOL    H5420076   6.378   1.620   4.711  0.2753 -1.5067  0.7581
  142MOL    H5520077   6.137   1.417   4.714 -0.9235 -0.4445  2.7591
  142MOL    H5620078   6.207   1.484   4.865 -2.4145  0.2180 -0.1232
  142MOL    H5720079   6.305   1.388   4.759  0.9725  0.4928  0.1426
  142MOL    C5820080   6.370   1.646   4.462 -0.2373  0.0782 -0.1208
  142MOL    C5920081   6.507   1.594   4.446  0.3493 -0.0036  0.3929
  142MOL    O6020082   6.304   1.657   4.334 -0.4531  0.0049 -0.0280
  142MOL    H6120083   6.365   1.742   4.513  0.7918 -0.0357  0.2168
  142MOL    H6220084   6.511   1.508   4.379 -1.9805 -0.0635  0.3083
  142MOL    H6320085   6.545   1.574   4.546 -0.8947 -1.5707  0.5600
  142MOL    H6420086   6.568   1.676   4.407  1.3268 -1.6653 -1.6961
  142MOL    C6520087   6.203   1.751   4.325 -0.4494 -0.1367 -0.1626
  142MOL    C6620088   6.254   1.861   4.227 -0.4982  0.0821 -0.5617
  142MOL    O6720089   6.089   1.692   4.267 -0.4503 -0.6455 -0.0940
  142MOL    H6820090   6.176   1.795   4.420 -0.8238  0.8142 -0.7056
  142MOL    H6920091   6.185   1.946   4.228  0.0141  0.4935 -0.2841
  142MOL    H7020092   6.264   1.820   4.126 -2.4027 -1.3378 -0.2189
  142MOL    H7120093   6.355   1.887   4.256 -0.5638  0.7088 -0.9031
  142MOL    C7220094   6.009   1.621   4.353  0.1600  0.5402  0.0595
  142MOL    C7320095   5.891   1.709   4.354 -0.1512 -0.5025  0.2586
  142MOL    O7420096   5.983   1.498   4.286 -0.1057  0.5230  0.6619
  142MOL    H7520097   6.057   1.598   4.448  2.9759 -0.7463 -1.5829
  142MOL    H7620098   5.848   1.718   4.254  0.1232 -3.3055 -0.1592
  142MOL    H7720099   5.931   1.807   4.380 -0.6980 -0.2442  0.1415
  142MOL    H7820100   5.811   1.687   4.425  1.1832 -1.3454  1.5274
  142MOL    C7920101   6.083   1.408   4.299 -0.3184 -0.0636  0.1052
  142MOL    C8020102   6.025   1.294   4.382  0.2242 -0.0005  0.5647
  142MOL    O8120103   6.109   1.357   4.171 -0.3138  0.1399  0.4153
  142MOL    H8220104   6.177   1.451   4.334 -1.3901  0.5956  2.2509
  142MOL    H8320105   6.099   1.214   4.373  0.3770  0.2091 -0.0236
  142MOL    H8420106   5.939   1.246   4.335 -0.8394 -0.1326  2.5960
  142MOL    H8520107   6.023   1.324   4.487  2.3247 -0.6381  0.8121
  142MOL    C8620108   6.190   1.438   4.096 -0.2216  0.3383  0.5121
  142MOL    C8720109   6.326   1.364   4.099  0.1795  0.5038 -0.3792
  142MOL    O8820110   6.144   1.434   3.963 -0.4171 -0.2215 -0.5626
  142MOL    H8920111   6.203   1.537   4.142 -1.5242  1.0485 -0.6139
  142MOL    H9020112   6.307   1.274   4.041 -1.4514  0.0426  0.8488
  142MOL    H9120113   6.366   1.329   4.194 -0.4620  0.3749 -0.1586
  142MOL    H9220114   6.402   1.412   4.036 -0.5989 -2.0782 -3.4125
  142MOL    C9320115   6.035   1.512   3.950 -0.5640  0.0690  0.0672
  142MOL    C9420116   6.093   1.638   3.894 -0.0476  0.0041  0.3498
  142MOL    O9520117   5.947   1.463   3.853 -0.1245  0.0670  0.1508
  142MOL    H9620118   5.992   1.525   4.050 -0.4860  1.3271 -0.0543
  142MOL    H9720119   6.167   1.688   3.957 -0.1320  1.2957 -0.5553
  142MOL    H9820120   6.009   1.707   3.881  0.2561  0.3626  0.2647
  142MOL    H9920121   6.136   1.618   3.796 -1.4131 -1.4348  0.0262
  142MOL   C10020122   5.876   1.348   3.898 -0.3594  0.1149 -0.0690
  142MOL   C10120123   5.766   1.379   4.003 -0.0770 -0.4844 -0.0452
  142MOL   O10220124   5.814   1.279   3.792  0.4140 -0.2277  0.1846
  142MOL   H10320125   5.954   1.282   3.937  0.0046 -0.4623 -1.7543
  142MOL   H10420126   5.814   1.370   4.101  1.4298 -1.2271 -0.8428
  142MOL   H10520127   5.685   1.306   3.995  0.5239 -1.1645  0.0870
  142MOL   H10620128   5.725   1.479   3.987  3.9264  1.8916  3.2751
  142MOL   C10720129   5.900   1.251   3.688  0.1458  0.0939  0.5439
  142MOL   C10820130   5.919   1.102   3.694  0.1550 -0.0478  0.8517
  142MOL   O10920131   5.845   1.280   3.552  0.5148 -0.2992 -0.4103
  142MOL   H11020132   5.996   1.303   3.692  0.7150 -0.8632 -0.2483
  142MOL   H11120133   6.000   1.080   3.625  1.3548  0.4594  2.0848
  142MOL   H11220134   5.826   1.056   3.657  2.4833 -1.3750 -3.7460
  142MOL   H11320135   5.951   1.064   3.791  2.1214 -0.8492 -0.0926
  142MOL   C11420136   5.789   1.406   3.542 -0.1119  0.1152  0.2384
  142MOL   C11520137   5.864   1.480   3.424 -0.8162 -0.2145  0.2512
  142MOL   O11620138   5.652   1.390   3.488  0.0483  0.3745  0.0769
  142MOL   H11720139   5.781   1.467   3.632 -1.2475 -1.1826  1.0369
  142MOL   H11820140   5.835   1.585   3.423  5.5485  1.7529 -2.3335
  142MOL   H11920141   5.849   1.430   3.329 -3.0261  0.8688  0.0149
  142MOL   H12020142   5.972   1.472   3.442 -0.4909 -2.1305 -2.2458
  142MOL   C12120143   5.557   1.341   3.580  0.6627 -0.3706 -0.6158
  142MOL   C12220144   5.468   1.457   3.640 -0.3945  0.4193  0.3969
  142MOL   O12320145   5.474   1.261   3.512 -0.1801  0.1814 -0.1673
  142MOL   H12420146   5.602   1.281   3.659 -0.1978 -1.1438 -0.6988
  142MOL   H12520147   5.447   1.522   3.555  3.3128 -0.2445 -1.1292
  142MOL   H12620148   5.525   1.520   3.708  1.6362  0.1445 -1.0366
  142MOL   H12720149   5.381   1.411   3.688  0.3290  0.8662  2.1804
  142MOL   C12820150   5.541   1.148   3.472 -0.4749  0.0523  0.1127
  142MOL   C12920151   5.461   1.024   3.514  0.0058 -0.1426  0.0081
  142MOL   O13020152   5.539   1.145   3.329 -0.2482  1.0594 -0.4346
  142MOL   H13120153   5.641   1.152   3.514 -0.2687  0.7437 -0.4253
  142MOL   H13220154   5.526   0.937   3.508  0.3927 -0.0301  2.2553
  142MOL   H13320155   5.369   1.014   3.456 -1.0913  0.2289  1.6740
  142MOL   H13420156   5.425   1.041   3.615  0.9638 -0.1821  0.3589
  142MOL   C13520157   5.639   1.215   3.271 -0.4570 -1.1746  0.9020
  142MOL   C13620158   5.674   1.134   3.145  0.3372 -0.2770 -0.4380
  142MOL   O13720159   5.599   1.346   3.241  0.3253 -0.3529  0.1277
  142MOL   H13820160   5.731   1.228   3.328  0.3081 -0.0477 -0.5602
  142MOL   H13920161   5.756   1.177   3.088 -0.9668  0.7042 -1.6112
  142MOL   H14020162   5.588   1.111   3.082  1.2439 -1.3952 -1.2816
  142MOL   H14120163   5.717   1.038   3.176 -0.5237 -0.8712 -1.0799
  142MOL   H14220164   5.621   1.392   3.321 -2.6100  1.0566  0.2259
  143MOL     C120165   1.696   0.600   1.485  0.2749 -0.0358 -0.0514
  143MOL     C220166   1.743   0.456   1.472 -0.0758  0.4959 -0.3332
  143MOL     O320167   1.553   0.601   1.496  0.3151  0.1413  0.7315
  143MOL     H420168   1.731   0.650   1.394  0.3312  0.2861  0.1461
  143MOL     H520169   1.846   0.438   1.501 -0.4566 -1.8206 -0.3247
  143MOL     H620170   1.709   0.424   1.374 -0.8173 -1.6147  0.5873
  143MOL     H720171   1.691   0.392   1.544 -1.5961  0.4761 -1.4230
  143MOL     H820172   1.743   0.645   1.572  0.2891  0.6403 -0.4032
  143MOL     C920173   1.494   0.724   1.509  0.4761 -0.6671  0.3437
  143MOL    C1020174   1.499   0.800   1.376 -0.3185 -0.3545  0.5780
  143MOL    O1120175   1.362   0.723   1.544 -0.3720 -0.2211 -0.3717
  143MOL    H1220176   1.535   0.794   1.583  0.6693  0.8359 -1.1521
  143MOL    H1320177   1.438   0.890   1.383  0.5970  0.2063  1.6546
  143MOL    H1420178   1.448   0.730   1.310  1.2715 -2.0273  1.0659
  143MOL    H1520179   1.598   0.821   1.335  0.0191 -1.3511  0.8683
  143MOL    C1620180   1.339   0.682   1.680  0.6210 -0.2878 -0.0786
  143MOL    C1720181   1.271   0.805   1.731 -0.6602 -0.1277 -0.5493
  143MOL    O1820182   1.251   0.575   1.690  0.2780 -0.1976 -0.2249
  143MOL    H1920183   1.429   0.655   1.735 -1.1261 -1.5287  2.2548
  143MOL    H2020184   1.331   0.896   1.717 -1.3445  0.2213 -1.2322
  143MOL    H2120185   1.251   0.789   1.837 -1.0856 -2.6259 -0.9693
  143MOL    H2220186   1.169   0.803   1.693 -0.8407  0.8624 -0.1390
  143MOL    C2320187   1.306   0.450   1.715  0.5986 -0.1294  0.1480
  143MOL    C2420188   1.263   0.395   1.857  0.2575 -0.1396  0.3092
  143MOL    O2520189   1.251   0.359   1.622  0.6152  0.7699  0.1516
  143MOL    H2620190   1.414   0.455   1.714  0.6349 -0.4023  2.0553
  143MOL    H2720191   1.263   0.478   1.927  1.5994  0.0143  0.1401
  143MOL    H2820192   1.328   0.316   1.896 -1.0891 -0.3816  2.1185
  143MOL    H2920193   1.160   0.360   1.852  0.7694 -1.5241 -1.4303
  143MOL    C3020194   1.304   0.380   1.495  0.0176 -0.0117 -0.4006
  143MOL    C3120195   1.395   0.255   1.478 -0.5473  1.2175  0.0370
  143MOL    O3220196   1.200   0.361   1.401 -0.2977 -0.0756 -0.3044
  143MOL    H3320197   1.353   0.476   1.481 -0.6460  0.3094 -0.5247
  143MOL    H3420198   1.452   0.230   1.567  1.5329 -2.4074 -2.1830
  143MOL    H3520199   1.467   0.281   1.400  1.4801 -0.8675  1.1529
  143MOL    H3620200   1.328   0.171   1.459  0.7416 -0.2213  1.8403
  143MOL    C3720201   1.116   0.480   1.386  0.7391 -0.1141 -0.2467
  143MOL    C3820202   1.139   0.542   1.250  0.2628 -0.1415  0.6899
  143MOL    O3920203   0.985   0.437   1.393  0.1509 -0.5155 -0.7657
  143MOL    H4020204   1.136   0.550   1.467  0.9450 -1.3187  0.7501
  143MOL    H4120205   1.061   0.614   1.226  1.8818  1.4924  0.2230
  143MOL    H4220206   1.133   0.464   1.174 -1.1496  1.2486 -0.6552
  143MOL    H4320207   1.237   0.589   1.243 -0.3869  1.1571  0.1371
  143MOL    C4420208   0.929   0.429   1.525  0.7704  0.3210 -0.0845
  143MOL    C4520209   0.818   0.522   1.536 -0.5879  0.1522 -0.1269
  143MOL    O4620210   0.867   0.308   1.538  0.0753 -0.3188  0.3703
  143MOL    H4720211   1.001   0.428   1.608  0.6333 -0.3196  0.0285
  143MOL    H4820212   0.861   0.619   1.509 -0.8318 -0.3041 -2.2390
  143MOL    H4920213   0.780   0.519   1.638  0.6658 -1.0404  0.3283
  143MOL    H5020214   0.742   0.489   1.466 -0.9281  0.5869  0.0379
  143MOL    C5120215   0.945   0.195   1.550  0.7053 -0.4705  0.1575
  143MOL    C5220216   0.941   0.156   1.692  0.2702  0.5963  0.1421
  143MOL    O5320217   0.891   0.083   1.480  0.0501  0.1825 -0.5972
  143MOL    H5420218   1.043   0.207   1.503  1.6116 -1.9758  1.6176
  143MOL    H5520219   0.995   0.062   1.707 -1.0952 -0.1994  0.2138
  143MOL    H5620220   0.838   0.140   1.724  1.1014 -0.9584  2.2068
  143MOL    H5720221   0.985   0.230   1.759  2.0954  0.1497 -0.5437
  143MOL    C5820222   0.859   0.109   1.345  0.2398  0.6090 -0.7176
  143MOL    C5920223   0.949   0.020   1.270 -0.4058  0.1633 -0.0714
  143MOL    O6020224   0.730   0.075   1.307 -0.2183 -0.3047  0.0102
  143MOL    H6120225   0.885   0.212   1.322 -0.5411  0.8473 -0.5516
  143MOL    H6220226   0.936   0.027   1.162 -0.9392 -0.3332 -0.0417
  143MOL    H6320227   0.910   7.832   1.269 -0.9011  0.3511 -0.9664
  143MOL    H6420228   1.053   0.022   1.303 -0.1675 -2.2719 -0.5705
  143MOL    C6520229   0.633   0.136   1.373  0.2035  0.0168  0.2587
  143MOL    C6620230   0.547   0.218   1.277  0.0957 -0.0036  0.0508
  143MOL    O6720231   0.546   0.047   1.437 -0.3394 -0.2431 -0.9462
  143MOL    H6820232   0.669   0.216   1.438 -0.7403  1.5767 -1.1001
  143MOL    H6920233   0.484   0.285   1.335 -0.3225 -0.0875 -0.3115
  143MOL    H7020234   0.484   0.159   1.211 -0.4450  1.5835 -0.8682
  143MOL    H7120235   0.605   0.289   1.219  0.5402 -0.4134 -0.0126
  143MOL    C7220236   0.604   7.868   1.531 -1.3190 -0.1415 -0.1509
  143MOL    C7320237   0.554   0.003   1.665 -0.8049  0.7030  0.1199
  143MOL    O7420238   0.556   7.742   1.505 -0.3070  0.3734 -0.2683
  143MOL    H7520239   0.712   7.859   1.538 -1.3986 -1.2768 -0.3409
  143MOL    H7620240   0.621   7.876   1.740  0.4808  0.6474 -1.0432
  143MOL    H7720241   0.451   7.885   1.680 -1.5788  3.1348  0.3319
  143MOL    H7820242   0.562   0.112   1.675 -1.1695  0.9036 -1.6982
  143MOL    C7920243   0.619   7.666   1.404  0.1240  0.5126 -0.7794
  143MOL    C8020244   0.682   7.542   1.468 -0.1827 -0.3963  0.3284
  143MOL    O8120245   0.526   7.631   1.301 -0.9146  0.1581 -0.2603
  143MOL    H8220246   0.699   7.721   1.355  0.5486  2.0913  1.5786
  143MOL    H8320247   0.721   7.471   1.395 -0.2810  0.1304 -0.2423
  143MOL    H8420248   0.607   7.492   1.530 -0.7770 -0.0528 -0.1191
  143MOL    H8520249   0.760   7.577   1.536 -2.5431  3.3843  1.2604
  143MOL    C8620250   0.487   7.741   1.216 -0.1071 -0.1101  0.2385
  143MOL    C8720251   0.537   7.705   1.083 -0.9062 -0.4081  0.2183
  143MOL    O8820252   0.346   7.759   1.197  0.0061  0.1041  0.1907
  143MOL    H8920253   0.520   7.840   1.249 -0.1758 -0.7653  2.3259
  143MOL    H9020254   0.521   7.774   1.000 -0.7775  0.5941  1.0148
  143MOL    H9120255   0.509   7.603   1.056 -0.6984 -0.7130  1.1252
  143MOL    H9220256   0.646   7.704   1.086 -0.8636 -1.6123 -0.9793
  143MOL    C9320257   0.276   7.799   1.314  0.3892 -0.1774 -0.2181
  143MOL    C9420258   0.197   0.004   1.276 -0.7297  0.1073  0.2002
  143MOL    O9520259   0.178   7.705   1.361  0.2431  0.1695  0.2768
  143MOL    H9620260   0.345   7.796   1.399  0.7887 -0.5722 -0.5498
  143MOL    H9720261   0.264   0.083   1.243  0.9641 -1.2790  0.2575
  143MOL    H9820262   0.144   0.044   1.362  0.6983  0.6710  0.8262
  143MOL    H9920263   0.134   7.910   1.187  1.0973  1.4937 -1.2519
  143MOL   C10020264   0.229   7.577   1.399 -0.0565 -0.8372  0.4092
  143MOL   C10120265   0.192   7.556   1.547  0.3977  0.3744  0.1932
  143MOL   O10220266   0.170   7.467   1.335  0.1425 -0.2460 -0.3064
  143MOL   H10320267   0.334   7.551   1.383 -0.3745 -2.2752  0.6256
  143MOL   H10420268   0.221   7.457   1.585 -1.6964  0.2640  1.5956
  143MOL   H10520269   0.084   7.567   1.555  0.4710  1.3267 -0.0722
  143MOL   H10620270   0.242   7.637   1.599  0.8813  0.2259 -0.0314
  143MOL   C10720271   0.165   7.483   1.195 -0.1871  0.2621 -0.6737
  143MOL   C10820272   0.217   7.346   1.139  0.3861 -0.6433  0.3380
  143MOL   O10920273   0.032   7.489   1.144  1.0116 -0.2551  0.0605
  143MOL   H11020274   0.227   7.568   1.165  2.5060 -0.4638  2.5598
  143MOL   H11120275   0.162   7.265   1.186 -0.7465  0.3399  0.7468
  143MOL   H11220276   0.315   7.323   1.180  0.0925  0.1997  1.5401
  143MOL   H11320277   0.211   7.345   1.030  0.3672  1.5257  0.2977
  143MOL   C11420278   7.888   7.611   1.136 -0.4915 -0.5841  0.6042
  143MOL   C11520279   7.840   7.617   0.989 -0.0828  0.3161  0.1137
  143MOL   O11620280   7.766   7.614   1.199 -0.0597 -0.0737  0.6745
  143MOL   H11720281   0.039   7.693   1.166 -1.0384  0.1664 -0.2594
  143MOL   H11820282   7.789   7.712   0.971  1.8430  1.5260  0.8924
  143MOL   H11920283   7.770   7.537   0.965 -2.9376  2.0201  2.3500
  143MOL   H12020284   0.020   7.617   0.934  0.3649 -2.7674  0.7803
  143MOL   C12120285   7.770   7.640   1.334  0.8069  0.3237 -0.6596
  143MOL   C12220286   7.718   7.780   1.360  0.4626 -0.1451 -1.2166
  143MOL   O12320287   7.686   7.549   1.404  0.1336  0.0550  0.3578
  143MOL   H12420288   7.870   7.623   1.373  0.8939  0.8261 -0.6561
  143MOL   H12520289   7.631   7.790   1.295 -0.6948  0.5017  0.4026
  143MOL   H12620290   7.794   7.855   1.335  1.0683  0.4165  2.0789
  143MOL   H12720291   7.691   7.798   1.464  0.3322  0.7306 -1.3969
  143MOL   C12820292   7.745   7.418   1.419 -0.5613  0.5943 -0.4478
  143MOL   C12920293   7.739   7.386   1.571  0.9923  0.0959 -0.3309
  143MOL   O13020294   7.659   7.318   1.359 -0.2286  0.1495 -0.2329
  143MOL   H13120295   7.848   7.417   1.384 -0.1572  1.2083  0.6804
  143MOL   H13220296   7.752   7.280   1.593  0.6831  0.0791 -0.2289
  143MOL   H13320297   7.642   7.417   1.611  0.1961  1.8657 -3.4265
  143MOL   H13420298   7.818   7.442   1.621  0.0011 -0.1193  1.5074
  143MOL   C13520299   7.682   7.314   1.217  0.4205  0.2624  0.6465
  143MOL   C13620300   7.630   7.183   1.174  0.7584  0.2620 -0.6408
  143MOL   O13720301   7.602   7.416   1.149  0.4938 -0.3206  0.2807
  143MOL   H13820302   7.785   7.326   1.186 -0.1080  4.5042  0.1778
  143MOL   H13920303   7.524   7.193   1.149  0.1174 -2.6391  0.7315
  143MOL   H14020304   7.648   7.114   1.256  1.2994  1.4641  0.2570
  143MOL   H14120305   7.693   7.147   1.093  1.7014  0.6435 -0.0862
  143MOL   H14220306   7.652   7.494   1.165  2.4049 -1.3407 -0.4497
  144MOL     C120307   5.362   3.306   4.089  0.0013  0.1897 -0.2004
  144MOL     C220308   5.425   3.168   4.060  0.3042  0.4114 -0.5846
  144MOL     O320309   5.233   3.285   4.155  0.0253 -0.5555 -0.3741
  144MOL     H420310   5.354   3.360   3.995  0.8492 -0.4519 -0.6464
  144MOL     H520311   5.529   3.182   4.029 -0.0741  2.6084 -0.9309
  144MOL     H620312   5.389   3.128   3.965  0.6214 -0.1871 -0.4545
  144MOL     H720313   5.412   3.102   4.146  2.0534  0.4759 -0.2373
  144MOL     H820314   5.419   3.354   4.169  0.6867 -2.1886  0.7808
  144MOL     C920315   5.169   3.405   4.189  0.5379 -0.4375 -0.8653
  144MOL    C1020316   5.013   3.370   4.194  0.1366  0.5672 -0.3965
  144MOL    O1120317   5.200   3.435   4.326  0.1404  0.0557  0.1197
  144MOL    H1220318   5.194   3.486   4.120 -1.5956  0.9650 -0.0023
  144MOL    H1320319   4.946   3.454   4.212 -0.6948  0.0794 -1.1906
  144MOL    H1420320   4.986   3.288   4.261 -0.7526  0.8030 -0.4690
  144MOL    H1520321   4.990   3.326   4.097  3.0514 -1.5585 -0.1977
  144MOL    C1620322   5.196   3.573   4.350  0.7059 -0.2447 -0.6269
  144MOL    C1720323   5.160   3.585   4.497  0.6081  0.3865  0.4610
  144MOL    O1820324   5.319   3.648   4.341  0.2381  0.1633  0.1340
  144MOL    H1920325   5.121   3.613   4.281 -0.9802 -1.5243  0.4118
  144MOL    H2020326   5.241   3.566   4.567  1.5748  0.0291 -0.7398
  144MOL    H2120327   5.069   3.532   4.525  0.3562  0.1459 -0.7761
  144MOL    H2220328   5.138   3.692   4.505 -0.6518  0.1478  0.3613
  144MOL    C2320329   5.338   3.743   4.237  0.1638 -0.4585 -0.3131
  144MOL    C2420330   5.468   3.816   4.276 -0.4876 -0.3060  0.3996
  144MOL    O2520331   5.359   3.681   4.118 -0.6176 -0.4538 -0.1544
  144MOL    H2620332   5.253   3.812   4.238  0.8271  0.3603  0.5720
  144MOL    H2720333   5.463   3.854   4.379 -2.2834 -0.1628  0.2627
  144MOL    H2820334   5.489   3.894   4.203 -1.7799 -0.3277 -0.0034
  144MOL    H2920335   5.544   3.738   4.284 -0.8392 -0.9533 -2.3540
  144MOL    C3020336   5.281   3.727   4.007 -0.6722 -0.5691 -0.4585
  144MOL    C3120337   5.313   3.637   3.889  0.1832 -0.1617 -0.2424
  144MOL    O3220338   5.140   3.716   4.034  0.2753 -0.2593 -0.6671
  144MOL    H3320339   5.309   3.824   3.966 -0.7611 -1.1984 -2.0151
  144MOL    H3420340   5.277   3.672   3.793  0.1982 -0.2327 -0.2739
  144MOL    H3520341   5.277   3.537   3.912 -1.1718  0.6639  1.4308
  144MOL    H3620342   5.422   3.633   3.882  0.4237 -1.1055  2.9225
  144MOL    C3720343   5.067   3.823   3.988  0.1090 -0.0018 -0.4619
  144MOL    C3820344   4.913   3.797   4.020  0.4424 -0.8598  0.4233
  144MOL    O3920345   5.098   3.938   4.057  0.2431 -0.2971  0.4595
  144MOL    H4020346   5.076   3.815   3.880 -1.1219  1.2832 -0.6782
  144MOL    H4120347   4.888   3.802   4.126  0.5107  1.2871  0.3550
  144MOL    H4220348   4.871   3.700   3.993  1.6218 -1.1681 -0.3553
  144MOL    H4320349   4.856   3.875   3.970  1.4526  0.6074  1.5344
  144MOL    C4420350   5.122   4.052   3.977 -0.5839  0.3364 -0.0176
  144MOL    C4520351   5.141   4.175   4.064 -0.3926  0.5613 -0.5988
  144MOL    O4620352   5.234   4.030   3.899 -0.3008 -0.0331  0.0516
  144MOL    H4720353   5.028   4.068   3.924 -0.3036  2.2193  0.0012
  144MOL    H4820354   5.164   4.266   4.009  0.3218  2.1403  2.2340
  144MOL    H4920355   5.228   4.160   4.128  0.6972  0.3060 -2.1148
  144MOL    H5020356   5.053   4.203   4.122  0.5605  2.4943 -0.0707
  144MOL    C5120357   5.216   4.065   3.764 -0.3567  0.6933 -0.2940
  144MOL    C5220358   5.353   4.097   3.686 -0.5488  0.3627  0.2141
  144MOL    O5320359   5.157   3.957   3.698  0.2776 -0.2616 -0.1685
  144MOL    H5420360   5.153   4.154   3.764  0.5665  1.3538 -0.8690
  144MOL    H5520361   5.399   4.188   3.725 -0.6412  0.3475  0.3602
  144MOL    H5620362   5.335   4.104   3.579  1.6773 -0.3283 -0.2481
  144MOL    H5720363   5.418   4.013   3.714  0.0673  1.1574  1.2023
  144MOL    C5820364   5.034   3.982   3.632  0.6911 -0.0449  0.3361
  144MOL    C5920365   5.003   3.858   3.546  0.6188  0.3065 -0.1695
  144MOL    O6020366   4.933   4.002   3.729  0.0250 -0.0872  0.2333
  144MOL    H6120367   5.048   4.069   3.568  0.2891  0.3602  0.7956
  144MOL    H6220368   5.000   3.771   3.611 -1.7723 -0.4482 -1.2144
  144MOL    H6320369   5.080   3.853   3.469  1.2770 -2.1036  0.6107
  144MOL    H6420370   4.906   3.871   3.496  0.1558  2.0850  1.1386
  144MOL    C6520371   4.840   4.104   3.701 -0.0373 -0.4879  0.7940
  144MOL    C6620372   4.725   4.087   3.804  0.0950  0.5277 -0.2479
  144MOL    O6720373   4.905   4.230   3.723  0.3583 -0.1507  0.4587
  144MOL    H6820374   4.796   4.100   3.601 -0.6758  1.6619  0.9735
  144MOL    H6920375   4.698   3.983   3.823 -1.0455  1.3639  3.0397
  144MOL    H7020376   4.640   4.139   3.762 -0.1469 -0.1195 -0.5701
  144MOL    H7120377   4.770   4.123   3.897 -0.4662  2.0203 -0.5482
  144MOL    C7220378   4.905   4.320   3.608 -0.1432 -0.1279 -0.0079
  144MOL    C7320379   4.906   4.456   3.667  0.0908  0.7452  0.6814
  144MOL    O7420380   5.022   4.299   3.535 -0.0787  0.2574  0.1691
  144MOL    H7520381   4.818   4.304   3.544 -0.0873 -1.4546  0.2393
  144MOL    H7620382   4.919   4.531   3.589  0.0806  1.1810  1.0997
  144MOL    H7720383   4.986   4.465   3.740  0.3597 -0.7462  0.5857
  144MOL    H7820384   4.808   4.460   3.715 -1.4352 -1.4597 -2.0901
  144MOL    C7920385   5.008   4.302   3.396  0.0642 -0.5291  0.1521
  144MOL    C8020386   5.144   4.284   3.333  0.7330 -0.2963 -0.0000
  144MOL    O8120387   4.935   4.195   3.363 -0.1491 -0.5286 -0.4350
  144MOL    H8220388   4.964   4.398   3.370  0.2897 -0.0695  1.4338
  144MOL    H8320389   5.203   4.372   3.356 -0.4951  0.8675 -1.2306
  144MOL    H8420390   5.145   4.271   3.225  0.2310 -0.9780  0.0730
  144MOL    H8520391   5.193   4.194   3.371  2.4832  0.7498  0.2613
  144MOL    C8620392   4.860   4.209   3.247 -0.4399  0.5647 -0.0876
  144MOL    C8720393   4.762   4.090   3.263 -0.6894  0.4449  0.2367
  144MOL    O8820394   4.779   4.324   3.250  0.0475 -0.1318  0.1834
  144MOL    H8920395   4.925   4.192   3.161 -0.3265 -0.6547  0.2316
  144MOL    H9020396   4.829   4.005   3.271 -0.2765  0.8954  1.6486
  144MOL    H9120397   4.720   4.073   3.164 -2.1066 -0.7031  1.0302
  144MOL    H9220398   4.691   4.104   3.344 -0.8451  0.8623  0.0297
  144MOL    C9320399   4.794   4.401   3.133 -0.2861 -0.1952 -0.4334
  144MOL    C9420400   4.721   4.530   3.169  0.0530  0.0274  0.0195
  144MOL    O9520401   4.924   4.432   3.114 -0.3977  0.3116 -0.7088
  144MOL    H9620402   4.743   4.345   3.054 -0.0023  1.5158 -1.8568
  144MOL    H9720403   4.619   4.492   3.183  0.7100 -1.1122  1.9806
  144MOL    H9820404   4.709   4.593   3.081 -0.1843 -0.3763 -0.2402
  144MOL    H9920405   4.759   4.587   3.254  0.0905  0.8054 -0.5187
  144MOL   C10020406   4.969   4.416   2.983 -0.2597  0.7110  0.0167
  144MOL   C10120407   5.093   4.507   2.968  0.1340  0.0345 -0.0469
  144MOL   O10220408   5.018   4.283   2.965 -0.0810 -0.3015  0.6226
  144MOL   H10320409   4.896   4.436   2.905  2.0856  0.1836 -2.3981
  144MOL   H10420410   5.155   4.487   3.055 -1.5136 -0.2002  1.0967
  144MOL   H10520411   5.072   4.613   2.952  0.5937  0.0231 -0.7360
  144MOL   H10620412   5.154   4.471   2.885  1.2509 -2.0895  1.6638
  144MOL   C10720413   4.966   4.216   2.853  0.1490 -0.5441 -0.3091
  144MOL   C10820414   5.052   4.092   2.830 -0.1088 -0.1025 -0.7186
  144MOL   O10920415   4.838   4.174   2.885 -0.6774  0.1502  0.5062
  144MOL   H11020416   4.963   4.267   2.757 -0.4248 -0.3647 -0.1971
  144MOL   H11120417   5.058   4.033   2.921 -2.1434 -0.2720 -0.6805
  144MOL   H11220418   5.148   4.126   2.791 -0.1036 -1.1146 -1.6344
  144MOL   H11320419   5.008   4.035   2.748 -0.7995  0.9265 -1.0758
  144MOL   C11420420   4.750   4.181   2.782 -0.3489 -0.0755 -0.7074
  144MOL   C11520421   4.617   4.131   2.848 -0.0121 -0.7053 -0.1856
  144MOL   O11620422   4.723   4.311   2.740 -0.4768 -0.3125  0.3681
  144MOL   H11720423   4.777   4.120   2.697 -2.4360 -0.5692 -1.0528
  144MOL   H11820424   4.631   4.030   2.886  2.2914  0.0905  1.1871
  144MOL   H11920425   4.537   4.141   2.774 -1.5835 -2.7479  1.1885
  144MOL   H12020426   4.582   4.199   2.925 -0.7014 -2.1145  0.7742
  144MOL   C12120427   4.729   4.338   2.608 -1.2005  0.7827 -0.5261
  144MOL   C12220428   4.720   4.491   2.590 -0.2887  0.5931  0.7815
  144MOL   O12320429   4.853   4.292   2.560  0.5839  0.3311  0.1075
  144MOL   H12420430   4.640   4.297   2.561 -1.1495  0.3199 -0.2164
  144MOL   H12520431   4.726   4.496   2.482  0.8848 -0.9246  0.7558
  144MOL   H12620432   4.806   4.543   2.633  1.6840  0.1491 -2.4533
  144MOL   H12720433   4.625   4.521   2.634 -0.1797 -0.2715  1.6352
  144MOL   C12820434   4.839   4.232   2.437 -0.7754 -0.1519  0.4000
  144MOL   C12920435   4.978   4.241   2.367 -0.7385 -0.7575  0.5726
  144MOL   O13020436   4.806   4.090   2.452 -0.3855 -0.0532  0.0838
  144MOL   H13120437   4.761   4.274   2.373  0.8961 -0.8860 -2.2123
  144MOL   H13220438   5.001   4.346   2.355 -2.2433 -0.5488 -0.6983
  144MOL   H13320439   4.985   4.207   2.264  1.6572  1.8760 -0.1738
  144MOL   H13420440   5.052   4.190   2.429 -0.2938 -0.4206  0.3171
  144MOL   C13520441   4.715   4.024   2.370  0.3158 -0.1594 -0.5055
  144MOL   C13620442   4.724   3.880   2.418  0.7715 -0.0183  0.2495
  144MOL   O13720443   4.580   4.071   2.390 -0.2420  0.1476 -0.0057
  144MOL   H13820444   4.738   4.026   2.264  0.3747  1.1459 -0.4729
  144MOL   H13920445   4.678   3.868   2.516 -1.2647  1.6101 -0.4947
  144MOL   H14020446   4.828   3.854   2.439  0.4754 -0.1155  1.6428
  144MOL   H14120447   4.679   3.820   2.339  0.0966  1.1750 -0.2711
  144MOL   H14220448   4.529   4.080   2.310 -1.8098 -1.6034  0.7635
  145MOL     C120449   4.838   7.233   3.403  0.1183  0.3588  0.2396
  145MOL     C220450   4.817   7.350   3.497  0.4233 -0.1032 -0.8238
  145MOL     O320451   4.742   7.123   3.435 -0.2822  0.5680 -0.2482
  145MOL     H420452   4.944   7.208   3.409  0.5542  2.1638  0.3828
  145MOL     H520453   4.838   7.324   3.601 -0.7404  0.4253 -0.4424
  145MOL     H620454   4.710   7.372   3.497  0.8482  2.2046  0.7310
  145MOL     H720455   4.884   7.434   3.479 -1.4120  1.4413 -0.6487
  145MOL     H820456   4.824   7.265   3.300  2.4848  2.0825  0.4041
  145MOL     C920457   4.726   7.028   3.336  0.8059 -0.2659  0.2324
  145MOL    C1020458   4.854   6.938   3.333 -0.2655 -0.2562  0.0663
  145MOL    O1120459   4.625   6.935   3.359  0.0728 -0.2670 -0.1829
  145MOL    H1220460   4.706   7.072   3.239 -0.9737 -0.2690  0.5752
  145MOL    H1320461   4.843   6.858   3.260  1.7944 -0.4651 -0.0410
  145MOL    H1420462   4.881   6.898   3.430  3.7576  0.4053 -0.6988
  145MOL    H1520463   4.933   7.005   3.299  0.0229  0.7294  2.6227
  145MOL    C1620464   4.497   6.989   3.335 -0.0163  0.0460 -0.0054
  145MOL    C1720465   4.451   6.965   3.189 -0.3056 -0.1646  0.7095
  145MOL    O1820466   4.398   6.935   3.422  0.7547 -0.1784 -0.1222
  145MOL    H1920467   4.489   7.097   3.350  0.5167  0.3628 -1.9291
  145MOL    H2020468   4.470   6.861   3.165 -1.1417 -0.3868  1.0108
  145MOL    H2120469   4.505   7.030   3.120 -1.9281  0.7062  0.2252
  145MOL    H2220470   4.346   6.987   3.166  0.2657  0.6286 -1.3328
  145MOL    C2320471   4.406   6.990   3.552  0.0644 -0.1838  0.2860
  145MOL    C2420472   4.293   7.099   3.574  0.0713 -0.1118 -0.3122
  145MOL    O2520473   4.390   6.889   3.646  0.5475  0.7259  0.2198
  145MOL    H2620474   4.502   7.036   3.575 -0.1737 -0.4379  1.8149
  145MOL    H2720475   4.199   7.064   3.533  0.5951  0.0469 -1.6609
  145MOL    H2820476   4.326   7.185   3.517  0.7870 -0.3782 -0.3060
  145MOL    H2920477   4.277   7.115   3.681 -1.8878 -1.3172 -0.4015
  145MOL    C3020478   4.484   6.783   3.648  0.1162 -1.2293 -0.2116
  145MOL    C3120479   4.563   6.792   3.775  0.8942  0.0285  0.7429
  145MOL    O3220480   4.411   6.667   3.661 -0.3455 -0.2421 -0.7375
  145MOL    H3320481   4.559   6.782   3.569 -0.4273  2.0133 -0.8311
  145MOL    H3420482   4.645   6.721   3.773  1.4288  0.6755 -0.9331
  145MOL    H3520483   4.500   6.781   3.864 -0.2543  1.4147  0.1274
  145MOL    H3620484   4.603   6.893   3.787 -0.6899  0.6533  0.8273
  145MOL    C3720485   4.348   6.618   3.546  0.5006 -0.5369 -0.4231
  145MOL    C3820486   4.412   6.485   3.509  0.5436  0.0806 -0.1131
  145MOL    O3920487   4.209   6.588   3.568 -0.1239  0.4307 -0.5468
  145MOL    H4020488   4.348   6.689   3.463 -1.7671  1.0758  0.8867
  145MOL    H4120489   4.394   6.420   3.594  0.7724 -0.7823 -0.7177
  145MOL    H4220490   4.521   6.489   3.509  0.5554  0.0613 -1.8420
  145MOL    H4320491   4.370   6.445   3.416 -2.4188 -0.7272  1.5133
  145MOL    C4420492   4.128   6.690   3.591 -0.0478 -0.2647 -0.2409
  145MOL    C4520493   4.050   6.728   3.466  0.0733  0.4290  0.3689
  145MOL    O4620494   4.038   6.661   3.696  0.3203  0.3936  0.0185
  145MOL    H4720495   4.186   6.780   3.611  2.1111 -1.3564 -1.4019
  145MOL    H4820496   3.969   6.791   3.503 -0.3647  0.6899 -1.0005
  145MOL    H4920497   4.009   6.636   3.425 -0.1008  0.5496  0.2724
  145MOL    H5020498   4.118   6.780   3.398  2.2538 -1.9525  0.6465
  145MOL    C5120499   4.087   6.663   3.826 -0.5151  0.0525  0.3443
  145MOL    C5220500   4.005   6.768   3.898 -0.1658 -0.1652 -0.0400
  145MOL    O5320501   4.066   6.534   3.888  0.0122  0.2076  0.0992
  145MOL    H5420502   4.193   6.681   3.841 -1.2047  1.9428  3.3089
  145MOL    H5520503   4.048   6.862   3.863 -1.4530  0.8013  0.9171
  145MOL    H5620504   4.024   6.769   4.006  0.5515 -2.1564 -0.1403
  145MOL    H5720505   3.898   6.754   3.880 -0.4306 -1.7186  2.4619
  145MOL    C5820506   4.154   6.431   3.845  0.0897 -1.1135 -0.0480
  145MOL    C5920507   4.249   6.393   3.955  0.1959  0.2685 -0.7654
  145MOL    O6020508   4.086   6.315   3.817 -0.1383  0.2240 -0.2506
  145MOL    H6120509   4.215   6.462   3.760  0.5365  0.2417  0.7522
  145MOL    H6220510   4.327   6.468   3.973 -0.0042 -0.2484  2.5157
  145MOL    H6320511   4.315   6.313   3.921 -0.5187 -0.8719  0.5116
  145MOL    H6420512   4.201   6.368   4.049  0.6154  1.9861 -0.0786
  145MOL    C6520513   4.033   6.307   3.689 -0.2638  0.0669  0.0011
  145MOL    C6620514   4.120   6.204   3.616 -0.4073 -0.1704  0.5238
  145MOL    O6720515   3.910   6.259   3.686  0.2633 -0.6094 -0.6959
  145MOL    H6820516   4.031   6.399   3.631  0.7027 -0.5981 -1.0858
  145MOL    H6920517   4.222   6.236   3.640 -0.9930  3.9395 -1.9276
  145MOL    H7020518   4.106   6.211   3.508 -1.2250 -1.1920  0.5620
  145MOL    H7120519   4.100   6.109   3.665 -2.4314  0.7016  1.4081
  145MOL    C7220520   3.817   6.361   3.711 -0.1618 -0.0992  0.1585
  145MOL    C7320521   3.748   6.379   3.578  0.2219 -0.1331  0.3074
  145MOL    O7420522   3.720   6.316   3.804 -0.3460 -0.1452 -0.1641
  145MOL    H7520523   3.865   6.451   3.749  0.8979 -0.5219 -0.1649
  145MOL    H7620524   3.704   6.283   3.551 -0.2133  0.7067 -2.1157
  145MOL    H7720525   3.818   6.420   3.506  0.2788 -2.0870 -0.7872
  145MOL    H7820526   3.669   6.448   3.606  0.6863  1.5022 -2.2658
  145MOL    C7920527   3.773   6.292   3.934  0.0504 -0.0048  0.8560
  145MOL    C8020528   3.697   6.381   4.031  0.0744 -0.0400 -0.3045
  145MOL    O8120529   3.742   6.162   3.975  0.1674  0.4374 -0.4332
  145MOL    H8220530   3.880   6.314   3.938  0.2797 -1.0457  0.4570
  145MOL    H8320531   3.749   6.477   4.023 -2.3632  1.4526  1.1929
  145MOL    H8420532   3.709   6.346   4.133  1.4476 -1.7196 -1.0114
  145MOL    H8520533   3.595   6.384   3.994 -0.3405 -2.8699  0.5061
  145MOL    C8620534   3.833   6.059   3.933  0.3200  0.6048  0.6284
  145MOL    C8720535   3.928   6.023   4.054  0.5607 -0.5720  0.4591
  145MOL    O8820536   3.762   5.939   3.899 -0.3527 -0.0264  0.4098
  145MOL    H8920537   3.884   6.088   3.842 -0.8981 -1.1154 -0.6186
  145MOL    H9020538   3.973   5.924   4.042  2.0257  0.2772 -1.2943
  145MOL    H9120539   3.878   6.028   4.151  1.2804 -0.5130  0.8322
  145MOL    H9220540   4.002   6.102   4.063  1.5392 -1.2713 -1.2407
  145MOL    C9320541   3.678   5.949   3.787  0.0198 -0.7869  0.4345
  145MOL    C9420542   3.752   5.903   3.664  0.2249  0.5186 -0.3651
  145MOL    O9520543   3.570   5.867   3.797 -0.1394  0.1926 -0.6841
  145MOL    H9620544   3.636   6.050   3.784  0.0220 -0.7829  0.5345
  145MOL    H9720545   3.762   5.795   3.652 -0.5060  0.2620  1.2177
  145MOL    H9820546   3.853   5.944   3.661  0.1774  0.5633 -3.2681
  145MOL    H9920547   3.702   5.927   3.570  1.4379 -0.2179 -1.2163
  145MOL   C10020548   3.469   5.915   3.884 -0.6988 -0.7396  0.0200
  145MOL   C10120549   3.358   5.962   3.789  0.3284 -0.0027  0.3312
  145MOL   O10220550   3.416   5.809   3.957 -0.0226 -0.0633  0.5176
  145MOL   H10320551   3.496   6.002   3.944  0.6033  0.0159 -1.6341
  145MOL   H10420552   3.375   6.066   3.759  0.8913 -0.0037  0.6339
  145MOL   H10520553   3.265   5.958   3.845  0.7580  1.0468  1.1436
  145MOL   H10620554   3.346   5.903   3.698  0.7557 -0.8145  0.7951
  145MOL   C10720555   3.490   5.780   4.068 -0.1274 -0.3239 -0.6106
  145MOL   C10820556   3.384   5.809   4.180 -0.2970 -0.0295 -0.0036
  145MOL   O10920557   3.510   5.642   4.071  0.7729 -0.4797  0.2903
  145MOL   H11020558   3.577   5.839   4.098 -1.0257  0.9822 -0.4989
  145MOL   H11120559   3.298   5.744   4.162 -0.0365  0.3787 -2.9620
  145MOL   H11220560   3.351   5.912   4.164 -1.3074 -0.6754 -2.3837
  145MOL   H11320561   3.416   5.793   4.282 -0.5981  0.1252  0.1165
  145MOL   C11420562   3.614   5.600   3.986 -0.2783  0.1923 -0.2276
  145MOL   C11520563   3.738   5.584   4.066  0.9095  0.3332 -0.4878
  145MOL   O11620564   3.581   5.481   3.925 -0.0008 -0.6850 -0.5722
  145MOL   H11720565   3.651   5.673   3.914  0.0782 -0.1274 -0.3690
  145MOL   H11820566   3.728   5.510   4.146  0.7407  0.7311 -0.1381
  145MOL   H11920567   3.756   5.674   4.125 -1.6707  0.4698  0.1644
  145MOL   H12020568   3.824   5.557   4.005  1.8037 -0.1095  0.9438
  145MOL   C12120569   3.520   5.496   3.805 -0.5912 -0.5702 -0.2807
  145MOL   C12220570   3.615   5.434   3.693 -0.3039 -0.4018 -0.4278
  145MOL   O12320571   3.402   5.429   3.797  0.4446 -0.1753 -0.4899
  145MOL   H12420572   3.502   5.597   3.769  4.5634  0.1409 -1.3083
  145MOL   H12520573   3.716   5.474   3.687 -0.5699  0.5220  0.8498
  145MOL   H12620574   3.564   5.461   3.601 -0.5927  1.2957  0.2049
  145MOL   H12720575   3.619   5.326   3.705  1.7165 -0.0709  2.3996
  145MOL   C12820576   3.297   5.483   3.874 -0.5787  0.2474 -0.3373
  145MOL   C12920577   3.175   5.522   3.792  0.1976 -0.2463  0.0259
  145MOL   O13020578   3.247   5.393   3.970  0.4571  0.7357 -0.7167
  145MOL   H13120579   3.328   5.574   3.927 -0.5586  1.5085 -2.4337
  145MOL   H13220580   3.101   5.566   3.858  2.0868  0.5167  1.6869
  145MOL   H13320581   3.127   5.439   3.739  0.7140 -0.8707  0.5177
  145MOL   H13420582   3.198   5.594   3.714 -1.7971 -0.4162 -0.7485
  145MOL   C13520583   3.305   5.391   4.100  0.4061  0.5751 -0.4959
  145MOL   C13620584   3.206   5.335   4.200 -0.3224  0.1403  0.6824
  145MOL   O13720585   3.428   5.320   4.095  0.6957  0.2942  0.7491
  145MOL   H13820586   3.333   5.492   4.130  0.1084  1.1131 -1.9723
  145MOL   H13920587   3.262   5.322   4.292  1.1572  0.8446 -0.1066
  145MOL   H14020588   3.174   5.232   4.181 -0.8190  0.2529  0.8922
  145MOL   H14120589   3.124   5.404   4.220 -2.2153 -1.6968 -0.5724
  145MOL   H14220590   3.505   5.374   4.083  1.8137 -1.6384 -1.0677
  146MOL     C120591   5.538   0.616   4.697  0.3545 -0.8193 -0.8119
  146MOL     C220592   5.456   0.665   4.584  0.2817 -0.1830 -0.1416
  146MOL     O320593   5.554   0.478   4.677  0.2610  0.3523 -0.0329
  146MOL     H420594   5.509   0.655   4.794  2.0387  1.6541 -1.2502
  146MOL     H520595   5.498   0.627   4.490  3.0961 -0.9285  1.3669
  146MOL     H620596   5.457   0.774   4.578  0.0870 -0.2044 -0.6069
  146MOL     H720597   5.352   0.632   4.591 -0.1964  1.5354  1.0115
  146MOL     H820598   5.632   0.669   4.678 -0.2841  0.3309 -0.8219
  146MOL     C920599   5.646   0.425   4.770  0.5534  0.5981  0.4093
  146MOL    C1020600   5.599   0.287   4.807  0.2093  0.3745 -0.5563
  146MOL    O1120601   5.773   0.414   4.716  0.3197  0.6442  0.1233
  146MOL    H1220602   5.641   0.485   4.861  1.1493  1.2050  0.0482
  146MOL    H1320603   5.492   0.295   4.830  0.7082 -0.8402  2.3164
  146MOL    H1420604   5.654   0.256   4.896 -1.0757  3.2429  1.3325
  146MOL    H1520605   5.601   0.223   4.719 -0.5873 -0.9559  0.3835
  146MOL    C1620606   5.875   0.476   4.784  0.2026  0.2125 -0.3259
  146MOL    C1720607   6.004   0.416   4.728  0.7863 -0.6071 -0.3072
  146MOL    O1820608   5.880   0.610   4.751  0.0472  0.2903 -0.1466
  146MOL    H1920609   5.881   0.452   4.891  2.6855  0.8500 -0.2753
  146MOL    H2020610   6.010   0.460   4.628  2.7574  1.8643  0.8432
  146MOL    H2120611   6.005   0.308   4.717  2.2531 -1.2228  4.7095
  146MOL    H2220612   6.095   0.457   4.771  1.2839 -0.6184 -1.3237
  146MOL    C2320613   5.868   0.684   4.871  0.1742 -0.0118 -0.0913
  146MOL    C2420614   5.896   0.827   4.832  0.3181  0.6985  0.1140
  146MOL    O2520615   5.737   0.686   4.925  0.1640  0.2686 -0.3245
  146MOL    H2620616   5.944   0.659   4.946  1.3898  1.3876 -0.8113
  146MOL    H2720617   5.982   0.830   4.764  1.1431 -2.2099  0.9539
  146MOL    H2820618   5.912   0.886   4.922  3.2496  0.9216 -0.4871
  146MOL    H2920619   5.807   0.854   4.774 -1.6249 -2.7638  1.3786
  146MOL    C3020620   5.734   0.673   5.061  0.5804 -0.0907  0.3036
  146MOL    C3120621   5.590   0.720   5.097 -0.9092 -0.0716  0.7762
  146MOL    O3220622   5.739   0.538   5.106  0.2182 -0.2430 -0.1538
  146MOL    H3320623   5.806   0.741   5.107 -1.6583  1.1715  2.0478
  146MOL    H3420624   5.560   0.701   5.200 -0.6709  1.4656  1.1360
  146MOL    H3520625   5.524   0.675   5.023  1.6893 -0.6691 -1.2435
  146MOL    H3620626   5.587   0.829   5.090 -3.4402 -0.1185  0.7472
  146MOL    C3720627   5.831   0.515   5.201 -0.2551 -0.0019  0.4319
  146MOL    C3820628   5.808   0.370   5.256 -0.0415 -0.1392  0.0214
  146MOL    O3920629   5.955   0.522   5.140  0.2367 -0.0851  0.3363
  146MOL    H4020630   5.809   0.594   5.271 -2.1237  1.0126 -1.2377
  146MOL    H4120631   5.783   0.298   5.178  0.1218  0.8690 -0.9722
  146MOL    H4220632   5.721   0.389   5.319  0.0626  4.2511 -0.9415
  146MOL    H4320633   5.887   0.329   5.318 -1.0875 -0.5790  1.0909
  146MOL    C4420634   6.048   0.582   5.227 -0.0131  0.1734 -0.3074
  146MOL    C4520635   6.189   0.541   5.164  1.1127  0.2034  0.1417
  146MOL    O4620636   6.029   0.722   5.217  0.3211 -0.2494  0.4756
  146MOL    H4720637   6.034   0.552   5.331  1.0175  1.1212  0.1243
  146MOL    H4820638   6.201   0.433   5.173 -1.5122 -0.0859  0.7160
  146MOL    H4920639   6.263   0.600   5.218  0.4768  1.6646 -0.5679
  146MOL    H5020640   6.195   0.562   5.058  1.9243  1.3668  0.4039
  146MOL    C5120641   6.002   0.785   5.337  0.6138 -0.0521  0.1796
  146MOL    C5220642   6.043   0.930   5.317 -0.0388  0.0641  0.6643
  146MOL    O5320643   5.867   0.793   5.370  0.1015  0.2547 -0.0573
  146MOL    H5420644   6.062   0.734   5.413  1.3077  2.0442  1.0822
  146MOL    H5520645   5.994   0.978   5.233 -0.0790  0.3762  0.8667
  146MOL    H5620646   6.150   0.919   5.300 -0.3023  0.4340 -1.3535
  146MOL    H5720647   6.031   0.985   5.410 -0.0035  0.0864  0.6547
  146MOL    C5820648   5.842   0.796   5.509 -0.4451 -0.4508  0.2937
  146MOL    C5920649   5.704   0.868   5.520 -1.3376 -0.1857  0.0533
  146MOL    O6020650   5.817   0.667   5.556  0.3957  0.6127 -0.6538
  146MOL    H6120651   5.917   0.848   5.569 -0.8664 -0.7851  1.1093
  146MOL    H6220652   5.677   0.893   5.623  0.7327 -2.4963  1.1932
  146MOL    H6320653   5.633   0.797   5.478 -1.5011 -1.0342  1.7150
  146MOL    H6420654   5.699   0.950   5.448  0.8579  0.4119  0.5580
  146MOL    C6520655   5.909   0.612   5.644 -0.1883 -0.1882  0.5583
  146MOL    C6620656   5.858   0.484   5.688 -0.5507 -0.2526  0.1418
  146MOL    O6720657   6.035   0.592   5.581  0.2532  0.0095  0.3979
  146MOL    H6820658   5.903   0.684   5.725  0.3709 -0.1878  0.6004
  146MOL    H6920659   5.937   0.442   5.751  1.0966  3.3682  0.5959
  146MOL    H7020660   5.831   0.422   5.602  0.2174 -1.0953  0.4931
  146MOL    H7120661   5.769   0.510   5.744  0.7705  0.1395  2.0884
  146MOL    C7220662   6.134   0.630   5.669  1.0015 -0.3968 -0.3195
  146MOL    C7320663   6.274   0.566   5.626  0.1063 -0.7038 -0.2094
  146MOL    O7420664   6.148   0.765   5.677 -0.6288 -0.2104  0.0228
  146MOL    H7520665   6.105   0.589   5.766 -1.0252 -0.5638 -0.9631
  146MOL    H7620666   6.348   0.611   5.691 -1.8209  0.5636  1.1544
  146MOL    H7720667   6.295   0.585   5.520 -0.0393 -1.3017 -0.3494
  146MOL    H7820668   6.266   0.458   5.642  0.1995 -0.4258  1.7885
  146MOL    C7920669   6.145   0.818   5.806  0.0946 -0.4085 -0.3041
  146MOL    C8020670   6.204   0.961   5.807 -0.3097  0.3513  0.1806
  146MOL    O8120671   6.016   0.847   5.865 -0.2357  0.4689 -0.3185
  146MOL    H8220672   6.212   0.765   5.872 -0.3533 -0.4176  0.1463
  146MOL    H8320673   6.195   0.994   5.911  0.7889  1.3149 -0.0186
  146MOL    H8420674   6.142   1.024   5.744 -1.1912 -1.4908 -0.8349
  146MOL    H8520675   6.309   0.950   5.777  0.1054  1.3765  1.2145
  146MOL    C8620676   5.997   0.790   5.989 -0.0327 -0.8182  0.5694
  146MOL    C8720677   5.864   0.848   6.026 -0.4879  0.1405 -0.2149
  146MOL    O8820678   5.975   0.655   5.981  0.3379  0.0696  0.0184
  146MOL    H8920679   6.075   0.815   6.061 -1.3180  1.5756  1.1490
  146MOL    H9020680   5.822   0.799   6.114 -1.4418 -0.4136 -0.9659
  146MOL    H9120681   5.791   0.858   5.945 -0.0592  2.1600 -0.3763
  146MOL    H9220682   5.884   0.949   6.062  1.6030 -1.1079  2.2646
  146MOL    C9320683   6.052   0.583   6.063 -1.0168  0.7338  0.1545
  146MOL    C9420684   5.989   0.440   6.069 -0.1427  0.4504 -0.0352
  146MOL    O9520685   6.179   0.568   6.011  0.1551 -0.1895  0.2017
  146MOL    H9620686   6.049   0.622   6.165  1.5950  0.6317  0.3077
  146MOL    H9720687   5.992   0.402   5.967 -1.3762  3.3654 -1.1992
  146MOL    H9820688   5.893   0.439   6.121 -0.8389 -0.3695 -1.3218
  146MOL    H9920689   6.049   0.366   6.122 -1.1255 -1.6121 -1.7532
  146MOL   C10020690   6.283   0.602   6.105  0.2848  0.9468  0.4382
  146MOL   C10120691   6.412   0.554   6.051  0.2302  0.0568 -0.3831
  146MOL   O10220692   6.292   0.745   6.121  0.1249  0.4459  0.1215
  146MOL   H10320693   6.267   0.568   6.208 -0.9925 -0.0302 -0.0669
  146MOL   H10420694   6.485   0.602   6.117 -1.2918  0.1345  1.3099
  146MOL   H10520695   6.426   0.580   5.947  1.5826 -2.0615 -0.7565
  146MOL   H10620696   6.416   0.445   6.055  1.7312  0.1242  0.0506
  146MOL   C10720697   6.285   0.793   6.254 -0.1347  0.0370 -0.7434
  146MOL   C10820698   6.332   0.936   6.245 -0.0253  0.6143 -0.2929
  146MOL   O10920699   6.152   0.789   6.299  0.0772 -0.1608  0.2005
  146MOL   H11020700   6.351   0.736   6.319  1.8084  2.3256 -0.6314
  146MOL   H11120701   6.270   0.994   6.176 -0.0365 -0.7067 -1.3961
  146MOL   H11220702   6.434   0.931   6.209 -0.0536 -0.4789 -0.2129
  146MOL   H11320703   6.330   0.995   6.337  0.2084  0.5936 -0.2748
  146MOL   C11420704   6.127   0.746   6.433  0.5744  0.7438  0.4032
  146MOL   C11520705   5.978   0.780   6.458  1.5888 -0.5040  0.2246
  146MOL   O11620706   6.138   0.609   6.442 -0.3172 -0.1890  0.4355
  146MOL   H11720707   6.196   0.799   6.497 -0.5951  0.9491  1.5255
  146MOL   H11820708   5.919   0.746   6.373  1.4922  1.0878 -0.3617
  146MOL   H11920709   5.955   0.885   6.474  0.9098 -0.6120 -0.0116
  146MOL   H12020710   5.939   0.735   6.549  0.2515  0.8196  0.3205
  146MOL   C12120711   6.236   0.566   6.534  0.1337 -0.1954  0.2411
  146MOL   C12220712   6.205   0.424   6.574 -0.4209 -0.1673  0.3122
  146MOL   O12320713   6.359   0.550   6.475 -0.1305 -0.0376  0.3543
  146MOL   H12420714   6.232   0.622   6.627  1.5133  0.1646  0.0983
  146MOL   H12520715   6.111   0.426   6.629 -0.2410 -0.9287  0.6542
  146MOL   H12620716   6.283   0.384   6.638  1.3631  1.5898 -0.7089
  146MOL   H12720717   6.191   0.362   6.485 -0.6566 -2.8419  2.1470
  146MOL   C12820718   6.460   0.622   6.549  0.6320 -1.0693  0.3591
  146MOL   C12920719   6.593   0.609   6.486 -0.8696 -0.1634 -0.6966
  146MOL   O13020720   6.436   0.760   6.536 -0.4839 -0.1914  0.0801
  146MOL   H13120721   6.463   0.593   6.654 -1.0239  1.0793  1.0343
  146MOL   H13220722   6.628   0.506   6.497 -1.9224 -0.2296  2.6071
  146MOL   H13320723   6.668   0.676   6.529  0.5927 -1.6224 -0.9172
  146MOL   H13420724   6.595   0.633   6.380 -1.2807 -0.1977 -0.7125
  146MOL   C13520725   6.490   0.830   6.643  0.0310 -0.0136  0.0004
  146MOL   C13620726   6.553   0.958   6.586  0.3682 -0.7500 -0.3560
  146MOL   O13720727   6.380   0.869   6.726  0.1618  0.1365  0.3302
  146MOL   H13820728   6.564   0.777   6.704 -1.6714 -0.4619  1.7477
  146MOL   H13920729   6.469   1.014   6.544  0.8084  0.6801  0.6282
  146MOL   H14020730   6.615   0.932   6.501 -0.7572 -1.8240 -0.8682
  146MOL   H14120731   6.609   1.019   6.657 -0.9516 -1.1925  1.1157
  146MOL   H14220732   6.377   0.813   6.803  1.4177 -0.8368 -0.3073
  147MOL     C120733   2.702   3.258   6.840 -0.5554  0.6406 -0.0976
  147MOL     C220734   2.698   3.306   6.985 -0.0251  0.8781  0.1150
  147MOL     O320735   2.638   3.129   6.826  0.1059 -0.3753 -0.0959
  147MOL     H420736   2.806   3.234   6.819 -1.1511 -1.3608 -0.8912
  147MOL     H520737   2.595   3.322   7.019  0.8102  1.2740  2.5424
  147MOL     H620738   2.760   3.394   6.998  2.4885 -0.9176  0.5474
  147MOL     H720739   2.741   3.230   7.051 -1.0068  0.4501  0.2792
  147MOL     H820740   2.671   3.344   6.781 -1.5006  0.4956  0.1769
  147MOL     C920741   2.635   3.084   6.701  0.3283  0.0661  0.1954
  147MOL    C1020742   2.569   2.948   6.720 -0.3981  0.5741  0.2838
  147MOL    O1120743   2.553   3.160   6.612 -0.3419  0.1478 -0.0337
  147MOL    H1220744   2.741   3.079   6.674  0.4501 -0.4687  0.7562
  147MOL    H1320745   2.627   2.896   6.797 -0.7216  1.0814  0.8721
  147MOL    H1420746   2.575   2.884   6.632 -0.7262  1.5669 -0.4550
  147MOL    H1520747   2.465   2.958   6.748 -0.3975 -1.6221  1.1980
  147MOL    C1620748   2.611   3.183   6.490 -0.1471 -0.9835  0.1901
  147MOL    C1720749   2.499   3.193   6.386  0.6833 -0.3168  0.9375
  147MOL    O1820750   2.679   3.303   6.481 -0.0112 -0.1105  0.0259
  147MOL    H1920751   2.675   3.101   6.458 -0.6387 -1.5351  0.6049
  147MOL    H2020752   2.452   3.100   6.355  1.2996  0.0534 -1.2099
  147MOL    H2120753   2.533   3.243   6.295 -0.8109  1.4382  1.3077
  147MOL    H2220754   2.425   3.254   6.439  2.0510  1.8848  0.3803
  147MOL    C2320755   2.818   3.289   6.452 -0.0188 -0.1264 -0.1307
  147MOL    C2420756   2.864   3.433   6.427 -0.3229 -0.2026 -0.4425
  147MOL    O2520757   2.880   3.243   6.567 -0.7537  0.3722  0.0914
  147MOL    H2620758   2.843   3.230   6.364  1.0368  0.9629 -0.5844
  147MOL    H2720759   2.972   3.439   6.440 -0.3183 -0.2630 -0.4509
  147MOL    H2820760   2.811   3.490   6.503  1.4307  0.0569  0.6130
  147MOL    H2920761   2.823   3.462   6.330 -3.2169  1.8376  1.3288
  147MOL    C3020762   2.995   3.160   6.544 -0.1723 -0.4359 -0.3105
  147MOL    C3120763   3.056   3.126   6.676  0.6832  0.3209  0.2045
  147MOL    O3220764   2.961   3.037   6.495 -0.3328  0.5147  0.4466
  147MOL    H3320765   3.065   3.213   6.479 -0.2694  0.2240  0.1169
  147MOL    H3420766   2.985   3.077   6.742  0.3486 -0.6272 -0.8375
  147MOL    H3520767   3.094   3.215   6.724  1.1005 -0.3869  1.1994
  147MOL    H3620768   3.130   3.053   6.645 -0.4037 -1.4555  1.6727
  147MOL    C3720769   3.013   2.997   6.368 -0.7052  0.7624 -0.0460
  147MOL    C3820770   3.014   2.841   6.362 -0.1615 -0.7757 -0.0988
  147MOL    O3920771   2.933   3.028   6.259  0.7943  0.2443 -0.1001
  147MOL    H4020772   3.116   3.027   6.352 -0.5503  0.5818  0.6219
  147MOL    H4120773   3.043   2.811   6.262  2.6039 -0.6276  0.6121
  147MOL    H4220774   2.913   2.805   6.385  0.0874 -1.2915  0.1976
  147MOL    H4320775   3.079   2.793   6.436 -0.8787  0.1689  1.1611
  147MOL    C4420776   3.005   3.075   6.151 -0.0098 -0.1146 -0.1173
  147MOL    C4520777   2.901   3.102   6.048  0.3617  0.2092 -0.4773
  147MOL    O4620778   3.066   3.198   6.184  0.7401 -0.1243 -0.1606
  147MOL    H4720779   3.082   3.005   6.119  1.4623 -0.2457  3.5115
  147MOL    H4820780   2.846   3.009   6.035 -0.6322  1.0222 -2.2282
  147MOL    H4920781   2.932   3.141   5.951 -0.5200  2.5050  0.1268
  147MOL    H5020782   2.826   3.176   6.077  1.7653  1.7529 -0.6731
  147MOL    C5120783   3.171   3.247   6.104 -0.8459  0.5695 -0.6814
  147MOL    C5220784   3.174   3.400   6.127  0.4926 -0.2710  0.3311
  147MOL    O5320785   3.296   3.198   6.165 -0.1994  0.2329  0.7020
  147MOL    H5420786   3.156   3.237   5.997 -1.0653  0.4876 -0.6436
  147MOL    H5520787   3.112   3.450   6.052 -0.7912  0.8959  2.1036
  147MOL    H5620788   3.276   3.426   6.098  0.5334 -3.1186 -2.2598
  147MOL    H5720789   3.147   3.432   6.228  0.5685  0.7750  0.0249
  147MOL    C5820790   3.372   3.128   6.074  0.4959 -0.0147 -0.1055
  147MOL    C5920791   3.507   3.110   6.129  0.2556 -0.5652 -0.4476
  147MOL    O6020792   3.322   3.005   6.044  0.1951 -0.0407 -0.1389
  147MOL    H6120793   3.380   3.186   5.983  0.1664  1.8052  1.0063
  147MOL    H6220794   3.507   3.030   6.204 -0.0065  0.3316  0.5208
  147MOL    H6320795   3.549   3.201   6.172  0.2851 -0.4681 -0.6796
  147MOL    H6420796   3.574   3.079   6.049 -0.3850 -1.1787 -0.7575
  147MOL    C6520797   3.355   2.956   5.919  0.0817 -0.0252 -0.8790
  147MOL    C6620798   3.320   2.807   5.907 -0.5091 -0.3769 -0.5349
  147MOL    O6720799   3.288   3.022   5.819  0.1446 -0.2360  0.1336
  147MOL    H6820800   3.464   2.958   5.925 -0.0319  0.2086  2.0593
  147MOL    H6920801   3.211   2.804   5.904 -0.4487 -3.2081 -1.6802
  147MOL    H7020802   3.371   2.761   5.992 -0.6199  2.3421  1.0633
  147MOL    H7120803   3.354   2.771   5.810  1.3612  1.4493 -0.5790
  147MOL    C7220804   3.375   3.076   5.723 -0.0736  0.1665 -0.0839
  147MOL    C7320805   3.288   3.102   5.596 -0.5463  0.2105  0.3727
  147MOL    O7420806   3.442   3.190   5.766  0.5085 -0.2845  0.3224
  147MOL    H7520807   3.435   2.992   5.690  0.7249  1.3221 -1.6073
  147MOL    H7620808   3.222   3.187   5.613  0.2948  1.1908 -1.2492
  147MOL    H7720809   3.228   3.013   5.576  0.1201 -0.3184  0.6788
  147MOL    H7820810   3.362   3.113   5.517 -1.0447  0.5775 -0.0398
  147MOL    C7920811   3.574   3.195   5.713  0.1012  0.4915 -1.2409
  147MOL    C8020812   3.605   3.334   5.746 -0.5054 -0.1986 -0.1557
  147MOL    O8120813   3.653   3.112   5.786  0.5385 -0.2950  0.1708
  147MOL    H8220814   3.575   3.181   5.605 -0.3605  1.2253 -1.3408
  147MOL    H8320815   3.611   3.338   5.855 -1.1575 -1.7441 -0.0515
  147MOL    H8420816   3.535   3.413   5.717  0.8980  0.8833 -0.6860
  147MOL    H8520817   3.700   3.355   5.697  0.2418  0.3080  1.4666
  147MOL    C8620818   3.767   3.062   5.724  0.1735  0.5161  0.1416
  147MOL    C8720819   3.839   2.969   5.820  0.0581  0.7862  0.4984
  147MOL    O8820820   3.723   2.977   5.615  0.3736 -0.2406  0.4951
  147MOL    H8920821   3.832   3.144   5.695  0.9377 -1.2040 -3.3399
  147MOL    H9020822   3.931   2.918   5.790  1.7160  2.7500  2.0972
  147MOL    H9120823   3.779   2.881   5.843  1.7509 -0.0481  1.9105
  147MOL    H9220824   3.859   3.019   5.915  0.0059 -2.3407  2.2278
  147MOL    C9320825   3.784   3.005   5.496  1.1459  0.0486 -0.3352
  147MOL    C9420826   3.764   2.882   5.394 -0.4504 -0.3629  0.5028
  147MOL    O9520827   3.733   3.118   5.439 -0.4032 -0.1705  0.8886
  147MOL    H9620828   3.891   3.010   5.518  1.1143  1.7752 -0.4922
  147MOL    H9720829   3.826   2.799   5.429  1.0404  0.2240 -0.6709
  147MOL    H9820830   3.791   2.926   5.298  1.8555 -0.4238  1.1016
  147MOL    H9920831   3.664   2.842   5.379 -0.0286 -0.3303 -2.9449
  147MOL   C10020832   3.820   3.203   5.374  0.1859 -0.3612  0.4577
  147MOL   C10120833   3.750   3.329   5.321 -0.9995 -0.4693 -0.1899
  147MOL   O10220834   3.915   3.254   5.469  0.0047  0.1513  0.7590
  147MOL   H10320835   3.872   3.144   5.298 -1.7567 -2.6145  0.8308
  147MOL   H10420836   3.707   3.383   5.405  0.1622 -1.8553  1.3234
  147MOL   H10520837   3.669   3.300   5.255 -2.1071  0.5130  0.7152
  147MOL   H10620838   3.827   3.386   5.268 -0.5128  1.0406  2.0355
  147MOL   C10720839   4.043   3.254   5.417 -0.3576 -0.7055  0.0478
  147MOL   C10820840   4.137   3.338   5.515 -0.3625 -0.0480 -0.5916
  147MOL   O10920841   4.084   3.119   5.416 -0.2877  0.3109  0.8012
  147MOL   H11020842   4.052   3.290   5.314 -0.0461  0.2340  0.3955
  147MOL   H11120843   4.165   3.269   5.595  1.2169  0.0121 -1.0793
  147MOL   H11220844   4.099   3.428   5.561  0.8431  0.8233 -1.2753
  147MOL   H11320845   4.224   3.360   5.453  1.6571 -2.5529  1.2227
  147MOL   C11420846   4.195   3.092   5.344 -0.3508  0.6793 -0.1960
  147MOL   C11520847   4.230   2.948   5.372  0.5025 -0.6672 -0.0595
  147MOL   O11620848   4.186   3.101   5.203  0.5369 -0.1386 -0.1992
  147MOL   H11720849   4.281   3.147   5.384  1.7479 -2.2242 -0.5459
  147MOL   H11820850   4.315   2.923   5.309 -0.3319 -0.8205 -1.1440
  147MOL   H11920851   4.137   2.894   5.354  0.1107  0.2935 -0.9553
  147MOL   H12020852   4.261   2.929   5.474  1.1035  2.2608  0.3653
  147MOL   C12120853   4.289   3.178   5.150  0.0424  0.3182 -0.1478
  147MOL   C12220854   4.289   3.166   5.002  0.0706 -0.0487 -0.6834
  147MOL   O12320855   4.273   3.310   5.195  0.1632 -0.9564  0.3091
  147MOL   H12420856   4.384   3.139   5.188 -0.7323 -1.3943  0.0687
  147MOL   H12520857   4.198   3.200   4.953  0.7174  1.0743 -1.1278
  147MOL   H12620858   4.324   3.069   4.966  2.6617  0.3363  0.6553
  147MOL   H12720859   4.359   3.235   4.954 -0.6537  0.7836 -0.5501
  147MOL   C12820860   4.393   3.382   5.212 -0.0952 -0.0002 -0.4892
  147MOL   C12920861   4.367   3.530   5.213 -0.5323 -0.4499 -0.5340
  147MOL   O13020862   4.457   3.332   5.324 -0.0326 -0.9682 -0.2639
  147MOL   H13120863   4.449   3.352   5.124 -0.4776 -1.6198 -0.2011
  147MOL   H13220864   4.318   3.569   5.124 -0.9496  0.6373  0.1530
  147MOL   H13320865   4.452   3.587   5.251 -2.5988  2.3353  0.1172
  147MOL   H13420866   4.296   3.543   5.295  1.6819  0.0900  1.3442
  147MOL   C13520867   4.597   3.327   5.310  0.1053  0.0767  0.0762
  147MOL   C13620868   4.668   3.283   5.444  0.5796  0.3033  0.2466
  147MOL   O13720869   4.635   3.239   5.204  0.3195 -0.4199  0.1371
  147MOL   H13820870   4.632   3.427   5.284 -3.3311  1.6681  1.2874
  147MOL   H13920871   4.772   3.266   5.417 -0.1716  0.3154 -2.8083
  147MOL   H14020872   4.614   3.195   5.478 -0.2783  0.6865 -0.1017
  147MOL   H14120873   4.653   3.354   5.525 -3.2855  0.1725 -0.2263
  147MOL   H14220874   4.684   3.292   5.143 -0.4634  1.5082  1.1596
  148MOL     C120875   4.285   1.615   2.583 -0.0937  0.2416 -0.0368
  148MOL     C220876   4.324   1.660   2.448  0.7368 -0.2028  0.2786
  148MOL     O320877   4.149   1.624   2.600 -0.0373 -0.3580  0.9843
  148MOL     H420878   4.343   1.663   2.662 -0.1259 -0.0875  0.1904
  148MOL     H520879   4.313   1.578   2.377  3.3779 -0.6449  0.3326
  148MOL     H620880   4.430   1.687   2.446  0.7302 -0.1928 -0.0506
  148MOL     H720881   4.277   1.751   2.410  2.0886 -0.0578 -1.0889
  148MOL     H820882   4.314   1.510   2.589  1.0567  0.5423 -0.2868
  148MOL     C920883   4.110   1.590   2.732  0.5583 -0.7376  0.4655
  148MOL    C1020884   4.132   1.707   2.834  0.4801  0.2527 -0.2380
  148MOL    O1120885   3.967   1.560   2.738 -0.3164 -0.4207 -0.0351
  148MOL    H1220886   4.163   1.501   2.765 -1.0486 -1.4724  1.1427
  148MOL    H1320887   4.236   1.740   2.825  0.1211  1.1535 -1.1371
  148MOL    H1420888   4.096   1.687   2.934 -1.4863  3.6927 -0.1714
  148MOL    H1520889   4.085   1.799   2.800  0.3296  0.9174  1.7222
  148MOL    C1620890   3.935   1.442   2.671 -0.2094  0.6964 -0.0155
  148MOL    C1720891   3.971   1.314   2.752  0.7928 -0.2012  0.3413
  148MOL    O1820892   3.799   1.433   2.647 -0.2990 -0.0543 -0.5264
  148MOL    H1920893   3.992   1.436   2.578  0.8561  0.1854  0.6685
  148MOL    H2020894   4.079   1.297   2.753  0.7637 -0.5658 -1.2429
  148MOL    H2120895   3.925   1.224   2.712  1.0928 -1.1444  2.0583
  148MOL    H2220896   3.931   1.329   2.852  1.5105  2.9181  0.2044
  148MOL    C2320897   3.750   1.530   2.558  0.2370  0.6853  0.4595
  148MOL    C2420898   3.713   1.464   2.428 -0.3247  0.7461 -0.5934
  148MOL    O2520899   3.638   1.585   2.609  0.7841 -0.1547  0.6560
  148MOL    H2620900   3.833   1.596   2.537  0.8072 -0.6579 -1.5925
  148MOL    H2720901   3.668   1.539   2.363  1.1902  1.7806 -0.4842
  148MOL    H2820902   3.659   1.371   2.447  1.5254 -0.5408 -1.5234
  148MOL    H2920903   3.806   1.431   2.382 -0.1152 -0.6648  0.7997
  148MOL    C3020904   3.658   1.671   2.717 -0.1356  0.8694 -0.3125
  148MOL    C3120905   3.593   1.804   2.685 -0.5812 -0.2217  0.0103
  148MOL    O3220906   3.581   1.626   2.826 -0.0970 -0.7777  0.6512
  148MOL    H3320907   3.761   1.694   2.744 -0.1798  0.2266  0.3936
  148MOL    H3420908   3.602   1.867   2.774  3.2666 -1.6980  0.7698
  148MOL    H3520909   3.490   1.792   2.652 -0.8259 -0.4856  0.8623
  148MOL    H3620910   3.647   1.861   2.609 -0.9527  1.5387  1.0351
  148MOL    C3720911   3.633   1.525   2.905  0.3725 -0.2123  0.2939
  148MOL    C3820912   3.665   1.595   3.038  0.7173 -0.3705 -0.1109
  148MOL    O3920913   3.543   1.418   2.930  0.6599  0.7296  0.0773
  148MOL    H4020914   3.723   1.489   2.856 -0.1312  0.9685 -1.5388
  148MOL    H4120915   3.583   1.652   3.081  1.6392  1.2248 -0.4216
  148MOL    H4220916   3.762   1.645   3.027  1.1692 -1.2996 -0.3963
  148MOL    H4320917   3.672   1.517   3.114 -2.7378 -0.0223  0.6390
  148MOL    C4420918   3.530   1.329   2.823 -1.0024 -0.5647  0.3069
  148MOL    C4520919   3.589   1.202   2.875 -0.0839 -0.4790 -0.1416
  148MOL    O4620920   3.398   1.310   2.783 -0.0967  0.1613 -0.3535
  148MOL    H4720921   3.576   1.363   2.730 -2.2331 -2.4228 -1.0258
  148MOL    H4820922   3.516   1.161   2.944 -1.5224  1.6972 -0.3187
  148MOL    H4920923   3.679   1.232   2.928  0.2898  1.5227 -1.8358
  148MOL    H5020924   3.610   1.136   2.791  1.0481  0.6665 -0.7700
  148MOL    C5120925   3.331   1.428   2.733  0.0534  0.9305 -0.6189
  148MOL    C5220926   3.292   1.393   2.585 -0.9619  0.4270 -0.5915
  148MOL    O5320927   3.216   1.453   2.815  0.0123  0.1339 -0.0819
  148MOL    H5420928   3.396   1.514   2.742 -0.9983  1.5534  1.3374
  148MOL    H5520929   3.380   1.362   2.528 -0.3151  1.7385 -0.3192
  148MOL    H5620930   3.253   1.473   2.522  0.5845  0.9346 -0.9284
  148MOL    H5720931   3.216   1.315   2.579 -0.7504  0.2688 -1.1851
  148MOL    C5820932   3.229   1.541   2.926 -0.6044  0.4519  0.3337
  148MOL    C5920933   3.147   1.669   2.890  0.9291  0.2463 -0.7889
  148MOL    O6020934   3.171   1.487   3.042  0.4142  0.3456  0.5742
  148MOL    H6120935   3.330   1.576   2.947  0.6806 -2.4862 -0.7464
  148MOL    H6220936   3.133   1.744   2.968 -0.8797 -1.4065  0.5553
  148MOL    H6320937   3.052   1.627   2.855  0.0121  1.5266  0.1325
  148MOL    H6420938   3.201   1.720   2.810  2.9763 -1.8764 -0.8365
  148MOL    C6520939   3.254   1.415   3.121 -0.4873 -0.2601 -0.1431
  148MOL    C6620940   3.300   1.502   3.231  0.5057 -0.2146  0.2797
  148MOL    O6720941   3.196   1.302   3.177 -0.3370  0.5631  0.0644
  148MOL    H6820942   3.338   1.369   3.068  0.3154 -1.3175  1.9854
  148MOL    H6920943   3.359   1.438   3.297  1.5618  0.5647  0.1042
  148MOL    H7020944   3.209   1.543   3.276 -0.8482 -1.3184 -1.3607
  148MOL    H7120945   3.356   1.583   3.185 -2.2793  0.8649 -1.3720
  148MOL    C7220946   3.181   1.186   3.090  0.5673  0.2144 -0.3696
  148MOL    C7320947   3.244   1.068   3.159  0.1172  0.1632  0.8962
  148MOL    O7420948   3.048   1.155   3.064  0.7272  0.3276 -0.1249
  148MOL    H7520949   3.229   1.198   2.993 -0.1868 -1.1721 -0.9259
  148MOL    H7620950   3.353   1.079   3.166  0.4490 -3.1360  1.6134
  148MOL    H7720951   3.211   0.975   3.113  1.7171 -0.7320  1.4983
  148MOL    H7820952   3.213   1.061   3.263 -2.8900  0.2383  0.0556
  148MOL    C7920953   2.993   1.227   2.957  0.5614  0.2477  0.3999
  148MOL    C8020954   2.969   1.128   2.840 -1.0852 -0.8071 -0.8980
  148MOL    O8120955   2.865   1.279   2.989 -0.0518 -0.2307 -0.5249
  148MOL    H8220956   3.053   1.307   2.915 -0.6108  0.8194 -0.2316
  148MOL    H8320957   2.928   1.173   2.750 -0.8608 -1.4111 -1.3006
  148MOL    H8420958   2.905   1.047   2.876 -0.4360 -0.9028  0.0870
  148MOL    H8520959   3.064   1.087   2.807  1.2665  2.5064  1.3493
  148MOL    C8620960   2.868   1.377   3.095 -0.1899 -0.6286  0.1893
  148MOL    C8720961   2.815   1.511   3.042  0.0740  0.1550  0.0040
  148MOL    O8820962   2.796   1.333   3.204 -0.2725  0.8386  0.8050
  148MOL    H8920963   2.970   1.382   3.131 -0.7980  0.8712  1.7533
  148MOL    H9020964   2.863   1.589   3.101  0.6234  1.7917 -2.5162
  148MOL    H9120965   2.707   1.521   3.032  0.3085  1.7624 -1.0451
  148MOL    H9220966   2.854   1.523   2.941 -2.6329  0.6122 -1.0330
  148MOL    C9320967   2.866   1.260   3.301 -0.3391  0.0318  0.0133
  148MOL    C9420968   2.880   1.340   3.427 -0.5881 -0.1602  1.1217
  148MOL    O9520969   2.788   1.145   3.339  0.4643 -0.0207 -0.4899
  148MOL    H9620970   2.958   1.213   3.268 -0.5829 -0.6071  0.2404
  148MOL    H9720971   2.920   1.276   3.505 -1.1273 -2.7765 -0.6919
  148MOL    H9820972   2.783   1.376   3.460 -1.3179 -0.2100 -0.9185
  148MOL    H9920973   2.931   1.435   3.412 -2.1582  0.4134 -0.8089
  148MOL   C10020974   2.781   1.039   3.256  0.6406 -0.1250 -0.1858
  148MOL   C10120975   2.838   0.930   3.339 -0.2582  0.2080  0.3643
  148MOL   O10220976   2.645   1.003   3.226 -0.0360 -0.4429 -0.0214
  148MOL   H10320977   2.840   1.063   3.168 -0.2373 -1.5715 -1.1896
  148MOL   H10420978   2.938   0.960   3.372 -0.1339 -0.1206  0.2864
  148MOL   H10520979   2.843   0.838   3.281  0.5100  0.0019  0.7499
  148MOL   H10620980   2.777   0.913   3.428 -0.5881 -1.0108 -0.0765
  148MOL   C10720981   2.590   1.078   3.126  0.7539  0.0455  0.3432
  148MOL   C10820982   2.598   0.995   3.000 -0.0112 -0.4446 -0.4806
  148MOL   O10920983   2.448   1.092   3.155 -0.1157 -0.1616  0.0387
  148MOL   H11020984   2.639   1.173   3.104  0.8852  0.4683  2.3352
  148MOL   H11120985   2.512   0.929   3.002  0.7919 -1.5036 -0.1653
  148MOL   H11220986   2.685   0.929   2.988 -0.0691 -0.9243  1.4488
  148MOL   H11320987   2.595   1.061   2.914  2.2484  1.8638  1.1437
  148MOL   C11420988   2.417   1.177   3.263  0.0000 -0.0077 -0.5843
  148MOL   C11520989   2.358   1.310   3.205 -0.6502  0.5442 -0.7168
  148MOL   O11620990   2.315   1.115   3.338 -0.1291  0.4350 -0.3284
  148MOL   H11720991   2.504   1.190   3.328 -0.5492 -0.8710  0.3287
  148MOL   H11820992   2.432   1.362   3.145 -0.5065  0.0540 -0.9694
  148MOL   H11920993   2.337   1.377   3.288  0.8898  1.5398 -1.1195
  148MOL   H12020994   2.261   1.294   3.157  0.0656  2.2667 -2.8274
  148MOL   C12120995   2.360   1.003   3.405 -0.3796  0.4328  0.1898
  148MOL   C12220996   2.389   1.042   3.551 -0.1523  0.4060 -0.8218
  148MOL   O12320997   2.246   0.917   3.421  0.0422 -0.4709 -0.1552
  148MOL   H12420998   2.438   0.946   3.354 -1.7600 -0.1958 -1.2622
  148MOL   H12520999   2.410   0.950   3.606 -1.8143  0.3755 -0.2062
  148MOL   H12621000   2.306   1.090   3.602 -1.5841 -1.6264 -1.1607
  148MOL   H12721001   2.475   1.108   3.563 -0.6896  1.0848 -0.7178
  148MOL   C12821002   2.216   0.841   3.310  0.2575  0.6677 -0.0115
  148MOL   C12921003   2.231   0.691   3.339  0.0960 -0.5561  0.5784
  148MOL   O13021004   2.081   0.868   3.280 -0.5048 -0.6048  0.0537
  148MOL   H13121005   2.285   0.870   3.231  0.4238  0.1168 -0.0680
  148MOL   H13221006   2.170   0.658   3.423  0.8040  0.5186  1.5368
  148MOL   H13321007   2.338   0.679   3.360  1.1652  1.4980 -3.2035
  148MOL   H13421008   2.214   0.624   3.255  0.6769  0.6286 -0.4904
  148MOL   C13521009   2.050   0.989   3.217  0.6761 -0.2453 -0.0902
  148MOL   C13621010   2.085   0.985   3.066 -0.5647  0.6920  0.0245
  148MOL   O13721011   1.913   1.017   3.230  0.0159  0.4577 -0.4608
  148MOL   H13821012   2.100   1.075   3.260  0.0244  0.1026 -0.0120
  148MOL   H13921013   2.192   0.972   3.054 -0.3747  2.1755  0.0833
  148MOL   H14021014   2.067   1.071   3.002 -2.2183 -0.8883 -1.7109
  148MOL   H14121015   2.029   0.903   3.021  1.0875 -0.0869 -0.6416
  148MOL   H14221016   1.891   1.013   3.322 -0.6314 -1.0138 -0.6723
  149MOL     C121017   1.101   2.406   3.152  0.0774  0.4209 -0.4555
  149MOL     C221018   1.019   2.339   3.253  0.3354  0.4353  0.4617
  149MOL     O321019   1.168   2.514   3.215  0.0675 -0.1256 -0.5227
  149MOL     H421020   1.031   2.454   3.083 -0.4281 -0.6234 -0.6944
  149MOL     H521021   1.087   2.289   3.322 -0.4145  0.0465  0.9192
  149MOL     H621022   0.952   2.261   3.216  2.0231 -0.7990 -0.0919
  149MOL     H721023   0.976   2.407   3.325 -0.7157 -0.4622  0.6941
  149MOL     H821024   1.169   2.335   3.105  0.2716  1.7595 -2.2615
  149MOL     C921025   1.216   2.620   3.146  0.1498 -0.2710  0.1851
  149MOL    C1021026   1.173   2.740   3.230  0.8040 -0.0598  0.1139
  149MOL    O1121027   1.355   2.621   3.150 -0.0292 -0.0589 -0.3269
  149MOL    H1221028   1.190   2.624   3.041  0.4837  2.3859  0.1667
  149MOL    H1321029   1.071   2.737   3.269  0.4415  1.0438 -0.7273
  149MOL    H1421030   1.188   2.840   3.189 -0.7644  0.7634  1.4885
  149MOL    H1521031   1.228   2.723   3.323  2.0759 -0.5011 -0.7043
  149MOL    C1621032   1.412   2.531   3.059  0.9856  0.6735 -0.1362
  149MOL    C1721033   1.472   2.626   2.954  0.4872  0.1030 -0.5890
  149MOL    O1821034   1.513   2.454   3.122  0.2582  0.1522 -0.1241
  149MOL    H1921035   1.345   2.466   3.003  1.0231  0.5840 -0.0785
  149MOL    H2021036   1.469   2.569   2.861 -0.7020 -1.2578  0.2459
  149MOL    H2121037   1.569   2.668   2.976  1.3280  0.1457 -4.0939
  149MOL    H2221038   1.403   2.709   2.940  1.5022  1.2873  1.2547
  149MOL    C2321039   1.467   2.360   3.221  1.2079 -0.1170  0.1264
  149MOL    C2421040   1.492   2.226   3.150 -0.1096 -0.2652  0.6204
  149MOL    O2521041   1.554   2.362   3.333  0.5193 -0.0864 -1.0090
  149MOL    H2621042   1.362   2.373   3.246  0.4081 -2.9113 -1.5520
  149MOL    H2721043   1.467   2.147   3.220  0.0642  0.0904  1.0883
  149MOL    H2821044   1.599   2.212   3.136 -0.1746 -1.1326  0.9686
  149MOL    H2921045   1.438   2.217   3.056  1.2335 -0.2875 -0.1607
  149MOL    C3021046   1.548   2.474   3.410 -0.1656  0.0216  0.1720
  149MOL    C3121047   1.423   2.471   3.502  0.2090  0.2312 -0.0637
  149MOL    O3221048   1.654   2.470   3.499  0.0687 -0.3982 -0.2225
  149MOL    H3321049   1.549   2.563   3.347  1.2954  0.3635  0.6601
  149MOL    H3421050   1.412   2.380   3.560 -1.8099  0.0238 -0.7481
  149MOL    H3521051   1.335   2.482   3.440  0.4016 -2.2735 -0.8366
  149MOL    H3621052   1.434   2.554   3.572  0.1974  0.2157 -0.0436
  149MOL    C3721053   1.780   2.482   3.434  0.1883  0.1408 -0.2045
  149MOL    C3821054   1.824   2.629   3.446  0.4024  0.8167 -0.4993
  149MOL    O3921055   1.876   2.400   3.501 -0.2021 -0.3575  0.1044
  149MOL    H4021056   1.782   2.451   3.330  0.7318 -1.4438  0.2740
  149MOL    H4121057   1.926   2.643   3.412  0.6825  0.7265  0.2804
  149MOL    H4221058   1.827   2.655   3.552  0.1785  2.6001 -0.9190
  149MOL    H4321059   1.740   2.688   3.409 -1.2781  0.6673  2.8324
  149MOL    C4421060   1.881   2.273   3.453  0.1760  0.0466 -0.3010
  149MOL    C4521061   2.017   2.245   3.386  0.3684  0.1254  0.6185
  149MOL    O4621062   1.875   2.185   3.572  0.2274  0.0191  0.2146
  149MOL    H4721063   1.801   2.251   3.383 -1.2988 -1.0189  1.6574
  149MOL    H4821064   2.090   2.244   3.466  1.8338  2.3887 -0.6236
  149MOL    H4921065   2.037   2.324   3.313 -0.1015  0.3775  0.7574
  149MOL    H5021066   2.008   2.146   3.341  0.6645  0.9586 -1.3253
  149MOL    C5121067   1.742   2.182   3.622 -0.1702  0.8380 -0.7329
  149MOL    C5221068   1.685   2.036   3.614 -0.7147 -0.2442 -0.2568
  149MOL    O5321069   1.741   2.209   3.762 -0.1118  0.3756  0.4473
  149MOL    H5421070   1.680   2.247   3.561  0.2093  0.0197 -2.0059
  149MOL    H5521071   1.740   1.973   3.684  1.5889  0.6315 -1.2363
  149MOL    H5621072   1.707   2.006   3.511  1.0426 -1.4962  0.4501
  149MOL    H5721073   1.578   2.041   3.635 -0.4002  1.4921  1.0429
  149MOL    C5821074   1.745   2.346   3.787  0.6935  1.7590  0.3266
  149MOL    C5921075   1.607   2.376   3.849 -0.4180  0.1029  0.1090
  149MOL    O6021076   1.845   2.380   3.878 -0.0361  0.1942 -0.1487
  149MOL    H6121077   1.763   2.414   3.704  0.3921  2.6216  0.9624
  149MOL    H6221078   1.520   2.358   3.786 -0.6533  2.1146 -0.1917
  149MOL    H6321079   1.608   2.485   3.860 -1.3215  0.0593  0.6396
  149MOL    H6421080   1.601   2.329   3.947 -0.2750  1.2520  0.6753
  149MOL    C6521081   1.972   2.405   3.823  0.4619  0.5183 -0.4357
  149MOL    C6621082   2.002   2.550   3.848  0.5879 -0.3852  0.2783
  149MOL    O6721083   2.075   2.336   3.893 -0.5900  0.2646  0.6599
  149MOL    H6821084   1.972   2.385   3.716  0.2994  2.1311 -0.7496
  149MOL    H6921085   1.925   2.611   3.799  1.5639  1.9128  1.5444
  149MOL    H7021086   2.103   2.580   3.819  0.2669  1.2862  0.8209
  149MOL    H7121087   1.995   2.569   3.955 -0.4895  0.3940  0.0821
  149MOL    C7221088   2.121   2.216   3.836 -0.7617  0.3837  0.0472
  149MOL    C7321089   2.273   2.236   3.811  0.1141 -1.0177  0.0502
  149MOL    O7421090   2.113   2.108   3.923 -0.0617 -0.7776  0.6051
  149MOL    H7521091   2.062   2.183   3.750  1.6987 -1.6247 -0.9330
  149MOL    H7621092   2.303   2.143   3.762  0.2362 -0.9798  0.0555
  149MOL    H7721093   2.312   2.252   3.911 -2.6562 -0.5181  1.1120
  149MOL    H7821094   2.289   2.325   3.750 -0.3726 -1.1190 -0.2377
  149MOL    C7921095   1.988   2.072   3.956  0.5084  0.0462  0.0912
  149MOL    C8021096   1.964   1.951   3.869  0.4729 -0.1426 -0.1936
  149MOL    O8121097   1.969   2.033   4.086 -0.1044  0.2812 -0.2513
  149MOL    H8221098   1.905   2.139   3.936  0.6463  0.1299 -0.2092
  149MOL    H8321099   1.952   1.982   3.765  0.1400 -0.0040 -0.1165
  149MOL    H8421100   1.874   1.901   3.904 -1.2915  3.2822  0.4131
  149MOL    H8521101   2.048   1.882   3.882 -0.9653 -1.8302  0.2969
  149MOL    C8621102   1.949   2.142   4.173  0.4503 -1.1138 -0.9128
  149MOL    C8721103   1.807   2.122   4.229 -0.2274  0.0719 -0.7228
  149MOL    O8821104   2.041   2.122   4.278 -0.2988  0.7331 -0.3993
  149MOL    H8921105   1.954   2.243   4.131  2.6082 -0.2013  1.4293
  149MOL    H9021106   1.801   2.019   4.265 -0.3826  1.0144  2.0742
  149MOL    H9121107   1.726   2.135   4.157  0.1314 -0.6457 -1.2698
  149MOL    H9221108   1.795   2.186   4.316 -1.3530  0.0486 -0.8483
  149MOL    C9321109   2.172   2.160   4.257  0.0362  0.0737 -0.2812
  149MOL    C9421110   2.193   2.298   4.323  0.1946 -0.2940 -0.0460
  149MOL    O9521111   2.271   2.072   4.315  0.2032  0.4411  0.7005
  149MOL    H9621112   2.200   2.165   4.152 -0.4593  2.3446 -0.3283
  149MOL    H9721113   2.122   2.368   4.279  0.7547 -0.1575 -0.7502
  149MOL    H9821114   2.298   2.324   4.315 -0.3165  2.5503  2.0535
  149MOL    H9921115   2.172   2.277   4.428 -0.0227 -0.1282 -0.0567
  149MOL   C10021116   2.272   1.944   4.248  1.1342  0.5817  0.3978
  149MOL   C10121117   2.422   1.922   4.202 -0.6426 -0.2415 -0.1486
  149MOL   O10221118   2.242   1.837   4.333 -0.4596  0.0292 -0.1618
  149MOL   H10321119   2.203   1.941   4.164 -0.1620 -1.5864  1.5118
  149MOL   H10421120   2.488   1.899   4.286 -2.5331 -0.9206  1.1911
  149MOL   H10521121   2.458   2.011   4.150 -2.2726 -0.0389 -0.9553
  149MOL   H10621122   2.428   1.834   4.139  0.4034  0.4895 -1.0772
  149MOL   C10721123   2.113   1.787   4.306 -1.1811 -0.0259 -0.1960
  149MOL   C10821124   2.114   1.688   4.186  0.7982  0.0840  0.2309
  149MOL   O10921125   2.071   1.717   4.425  0.0171  0.1412 -0.7973
  149MOL   H11021126   2.052   1.875   4.288 -0.2875  0.7182  0.3410
  149MOL   H11121127   2.012   1.651   4.184  0.0892  1.9505  0.6280
  149MOL   H11221128   2.183   1.606   4.202 -0.4600 -0.7053  1.7593
  149MOL   H11321129   2.130   1.739   4.090 -0.0158  1.4107  0.7834
  149MOL   C11421130   2.059   1.789   4.548 -0.1785  0.9205 -0.0220
  149MOL   C11521131   1.913   1.770   4.592 -0.3363 -0.0127 -0.0799
  149MOL   O11621132   2.135   1.718   4.645 -0.6160 -0.4661  0.1150
  149MOL   H11721133   2.090   1.894   4.547  1.4277  0.4513 -0.0669
  149MOL   H11821134   1.845   1.811   4.517 -1.3066 -1.0865  0.2043
  149MOL   H11921135   1.884   1.821   4.684  4.0351  1.9427  0.3062
  149MOL   H12021136   1.894   1.663   4.599 -0.7197  0.1453  1.3524
  149MOL   C12121137   2.270   1.751   4.638 -0.2785  0.5056  0.7166
  149MOL   C12221138   2.309   1.839   4.752  0.6571  0.2889 -0.7399
  149MOL   O12321139   2.349   1.636   4.659 -0.2008  0.1662 -0.1240
  149MOL   H12421140   2.300   1.793   4.543  0.3499 -0.3817  0.5130
  149MOL   H12521141   2.415   1.861   4.747  0.3799  1.3610 -1.9815
  149MOL   H12621142   2.298   1.786   4.847  1.0933  1.6247  0.0752
  149MOL   H12721143   2.254   1.933   4.759  1.0848  0.3325  3.6394
  149MOL   C12821144   2.350   1.548   4.550  0.3376  0.2685 -0.4384
  149MOL   C12921145   2.479   1.567   4.475 -0.5877 -0.7052 -0.2211
  149MOL   O13021146   2.353   1.414   4.588 -0.1513 -0.0705  0.3064
  149MOL   H13121147   2.263   1.569   4.487 -0.9102 -2.6315  0.2525
  149MOL   H13221148   2.481   1.657   4.412 -2.8005 -1.0956 -0.8848
  149MOL   H13321149   2.506   1.485   4.408 -0.0127 -1.8013  1.3456
  149MOL   H13421150   2.560   1.585   4.545 -0.8043 -1.1369  0.1386
  149MOL   C13521151   2.255   1.375   4.675  0.7066  0.6609 -0.4292
  149MOL   C13621152   2.123   1.352   4.609  0.4884  0.7546  0.3130
  149MOL   O13721153   2.291   1.252   4.738 -0.1017 -0.2513  0.1034
  149MOL   H13821154   2.247   1.448   4.756 -0.1138  1.3281 -1.1087
  149MOL   H13921155   2.050   1.289   4.660 -0.6731  1.6065 -0.2738
  149MOL   H14021156   2.138   1.336   4.502  3.6872 -1.6340  1.0341
  149MOL   H14121157   2.059   1.441   4.612 -0.0610  0.3538  0.4332
  149MOL   H14221158   2.305   1.184   4.673 -0.3087  0.0809 -0.2877
  150MOL     C121159   0.279   3.596   7.839  0.5553  0.2502  0.7617
  150MOL     C221160   0.294   3.622   0.079 -0.1152 -0.0535 -0.1628
  150MOL     O321161   0.153   3.658   7.804 -0.1337  0.2187 -0.7703
  150MOL     H421162   0.284   3.488   7.823 -0.4185 -0.0269  2.2001
  150MOL     H521163   0.311   3.726   0.109 -1.7359  0.5573 -1.3010
  150MOL     H621164   0.370   3.555   0.119 -1.1755 -0.3866  1.3110
  150MOL     H721165   0.203   3.595   0.132 -1.8949  2.1564 -1.9590
  150MOL     H821166   0.369   3.638   7.795 -1.1880  0.1746 -3.0180
  150MOL     C921167   0.089   3.593   7.694 -0.0386  0.6218 -0.0243
  150MOL    C1021168   0.021   3.465   7.747 -0.1681 -0.1289 -0.2110
  150MOL    O1121169   7.903   3.668   7.622  0.1109  0.0403  0.0829
  150MOL    H1221170   0.157   3.565   7.613  2.0827  0.0787  1.8937
  150MOL    H1321171   7.846   3.502   7.798 -1.0155  0.5941 -2.1588
  150MOL    H1421172   0.076   3.398   7.813 -0.0943  1.0217  0.9087
  150MOL    H1521173   7.890   3.409   7.665 -2.3559 -2.9980  2.7737
  150MOL    C1621174   0.036   3.797   7.588 -0.1416 -0.0369 -0.8120
  150MOL    C1721175   0.109   3.779   7.453  0.0410  0.3645  0.3626
  150MOL    O1821176   7.839   3.877   7.564  0.6995  0.0362 -0.5122
  150MOL    H1921177   0.096   3.846   7.665  0.5480 -0.9862 -0.7366
  150MOL    H2021178   0.214   3.759   7.470  0.3249 -0.2539 -2.0099
  150MOL    H2121179   0.097   3.863   7.386 -0.8041 -0.3867 -0.4499
  150MOL    H2221180   0.080   3.687   7.402 -1.5214  1.6202 -1.0422
  150MOL    C2321181   7.773   3.905   7.686  0.3589 -0.6437 -0.0325
  150MOL    C2421182   7.827   4.039   7.740 -0.5340 -0.3724 -0.6181
  150MOL    O2521183   7.632   3.924   7.660  0.2713  0.0900 -1.1000
  150MOL    H2621184   7.779   3.825   7.761  3.1070 -0.0687  0.4196
  150MOL    H2721185   0.012   4.022   7.782 -0.0653  1.0492 -1.1063
  150MOL    H2821186   7.754   4.079   7.809 -1.1924 -1.3071 -0.7621
  150MOL    H2921187   7.840   4.113   7.660  0.6271  0.5422  0.3952
  150MOL    C3021188   7.560   3.815   7.620 -0.1723 -0.1428 -0.5331
  150MOL    C3121189   7.484   3.755   7.747  0.4735  0.2835 -0.2649
  150MOL    O3221190   7.459   3.851   7.531  0.1292  0.0356 -0.5879
  150MOL    H3321191   7.632   3.751   7.569 -0.7167 -0.5213 -0.8291
  150MOL    H3421192   7.554   3.734   7.827 -0.0647 -1.7565 -0.3200
  150MOL    H3521193   7.415   3.674   7.725 -0.4105  0.3814  2.0826
  150MOL    H3621194   7.425   3.844   7.773  0.2655  0.0702 -0.0087
  150MOL    C3721195   7.502   3.930   7.422  0.1674 -0.4363  0.2194
  150MOL    C3821196   7.567   3.838   7.319  0.2158 -0.1269 -0.1376
  150MOL    O3921197   7.389   3.992   7.367 -0.0453 -0.2624  0.3327
  150MOL    H4021198   7.576   4.008   7.437  0.8354 -0.8753 -0.7433
  150MOL    H4121199   7.599   3.905   7.239  1.1636  1.1894  1.3116
  150MOL    H4221200   7.486   3.776   7.282 -0.2937  1.0132 -0.9473
  150MOL    H4321201   7.655   3.787   7.360  0.0259 -0.2401  0.1270
  150MOL    C4421202   7.329   4.082   7.449  0.1128 -0.8459 -0.2000
  150MOL    C4521203   7.361   4.230   7.401 -0.1271  0.4829 -0.3636
  150MOL    O4621204   7.189   4.071   7.446  0.2237 -0.1804  0.0470
  150MOL    H4721205   7.359   4.067   7.553  0.7364 -1.6175 -0.4908
  150MOL    H4821206   7.463   4.257   7.428  0.0058 -1.9142  1.7278
  150MOL    H4921207   7.311   4.303   7.464  2.4838  0.4590  1.8355
  150MOL    H5021208   7.350   4.245   7.293 -2.0864  1.7263  0.0049
  150MOL    C5121209   7.141   3.953   7.497  0.3117  0.3194  0.5229
  150MOL    C5221210   7.106   3.973   7.640 -0.5074 -0.4149  0.6193
  150MOL    O5321211   7.026   3.906   7.433  0.5487  0.2224  0.3577
  150MOL    H5421212   7.207   3.866   7.489 -1.0992 -0.9107  1.7809
  150MOL    H5521213   7.198   3.966   7.700  1.4937 -0.3667 -2.3427
  150MOL    H5621214   7.037   3.896   7.674 -2.0942  1.4444  1.6842
  150MOL    H5721215   7.067   4.072   7.663 -2.1096 -1.8099  4.3882
  150MOL    C5821216   7.030   3.878   7.293 -0.0290 -0.2600 -0.6753
  150MOL    C5921217   7.025   3.729   7.280  0.1908 -0.2618  0.6758
  150MOL    O6021218   6.915   3.933   7.227  0.4069 -0.2638 -0.2542
  150MOL    H6121219   7.116   3.912   7.236 -1.5308  1.6115 -1.8590
  150MOL    H6221220   7.007   3.705   7.176 -0.8878  0.7711  0.6160
  150MOL    H6321221   6.934   3.685   7.323  0.2570  0.6749  1.8177
  150MOL    H6421222   7.113   3.682   7.323  0.2154  0.2314  1.1658
  150MOL    C6521223   6.932   4.070   7.222  0.2974  0.2773 -0.1481
  150MOL    C6621224   6.969   4.102   7.075  0.1001 -0.6266  0.0398
  150MOL    O6721225   6.810   4.132   7.245  0.2664  0.1536 -0.0098
  150MOL    H6821226   7.010   4.110   7.287  0.8788 -0.1642 -0.5791
  150MOL    H6921227   6.890   4.058   7.014  0.7182  0.1852 -1.3665
  150MOL    H7021228   7.073   4.071   7.063  0.5429  1.0225 -0.5883
  150MOL    H7121229   6.953   4.206   7.046  0.6018 -0.8395 -1.0567
  150MOL    C7221230   6.783   4.166   7.381  0.1212  0.4519  0.0553
  150MOL    C7321231   6.780   4.318   7.384 -0.4807 -0.4849 -0.1528
  150MOL    O7421232   6.655   4.126   7.419  0.3444  0.3887  0.0004
  150MOL    H7521233   6.860   4.127   7.447  0.0425 -2.0659 -1.2726
  150MOL    H7621234   6.697   4.370   7.336 -1.8809 -1.7555  0.8294
  150MOL    H7721235   6.875   4.361   7.354 -0.8369  0.9978  0.7508
  150MOL    H7821236   6.770   4.341   7.490 -2.6469 -0.6934 -0.2765
  150MOL    C7921237   6.639   3.989   7.440 -0.6714  0.3810 -0.6728
  150MOL    C8021238   6.614   3.978   7.591 -0.1890 -0.1577 -0.6340
  150MOL    O8121239   6.526   3.944   7.378  0.4094 -0.3206  0.0757
  150MOL    H8221240   6.725   3.927   7.417 -2.0416 -1.6168 -0.5246
  150MOL    H8321241   6.691   4.020   7.655 -1.2566  3.1987 -1.4484
  150MOL    H8421242   6.599   3.874   7.622  1.5139 -0.0997  0.4294
  150MOL    H8521243   6.522   4.036   7.601 -0.2298 -0.2789 -0.2989
  150MOL    C8621244   6.535   3.938   7.237  0.2899  0.0804 -0.0695
  150MOL    C8721245   6.575   3.796   7.203  0.5250  0.3928  0.0377
  150MOL    O8821246   6.412   3.964   7.168 -0.2630 -0.2557  0.5495
  150MOL    H8921247   6.613   4.004   7.200  1.5306 -1.0910  0.4245
  150MOL    H9021248   6.682   3.784   7.220  0.2498  0.4875  1.8559
  150MOL    H9121249   6.539   3.770   7.103  0.3610 -0.8982  0.4184
  150MOL    H9221250   6.522   3.724   7.265  0.4264 -1.5321 -2.1887
  150MOL    C9321251   6.372   4.099   7.187 -0.2696  0.0732 -0.3540
  150MOL    C9421252   6.370   4.174   7.056 -0.4388 -0.2507  0.8307
  150MOL    O9521253   6.242   4.096   7.244  0.5280 -0.0705  0.4949
  150MOL    H9621254   6.428   4.147   7.266  1.1480 -0.7699 -0.8283
  150MOL    H9721255   6.471   4.204   7.029 -0.6176 -0.0178  0.4012
  150MOL    H9821256   6.302   4.259   7.063  0.5219  0.4378  1.8108
  150MOL    H9921257   6.318   4.108   6.986 -0.9279  0.0517  0.9074
  150MOL   C10021258   6.227   4.036   7.368  0.3944 -1.0353 -0.3297
  150MOL   C10121259   6.264   4.132   7.487 -0.0409 -0.5453 -0.5492
  150MOL   O10221260   6.095   3.990   7.387 -0.2859  0.4527  0.6623
  150MOL   H10321261   6.289   3.946   7.370  1.2790 -0.4478 -1.0060
  150MOL   H10421262   6.193   4.213   7.494 -0.5955 -0.9596 -1.2838
  150MOL   H10521263   6.367   4.168   7.481 -0.3501  0.3936 -0.1861
  150MOL   H10621264   6.248   4.077   7.580  0.7845 -0.9458 -0.6350
  150MOL   C10721265   6.091   3.852   7.420 -0.0727 -0.4076 -0.4639
  150MOL   C10821266   5.990   3.840   7.536  0.4420  1.1312 -0.5488
  150MOL   O10921267   6.033   3.784   7.312  0.1285 -0.2628 -0.3821
  150MOL   H11021268   6.183   3.801   7.450 -0.2308  0.0318  0.7732
  150MOL   H11121269   6.039   3.876   7.626 -1.4436 -0.3896  1.1426
  150MOL   H11221270   5.970   3.736   7.562 -0.6958  1.9791  2.1272
  150MOL   H11321271   5.893   3.880   7.508  0.4737 -0.0879 -2.5440
  150MOL   C11421272   6.120   3.703   7.245 -0.0975 -0.2811  0.0792
  150MOL   C11521273   6.104   3.564   7.311 -0.1422  0.5002 -0.4779
  150MOL   O11621274   6.089   3.689   7.110 -0.5345 -0.3045 -0.1753
  150MOL   H11721275   6.223   3.735   7.255 -0.1330  0.5213 -1.9861
  150MOL   H11821276   6.108   3.576   7.419 -0.5273 -1.7863 -0.1879
  150MOL   H11921277   6.182   3.495   7.279  2.2253  1.7947  2.2097
  150MOL   H12021278   6.005   3.526   7.287 -1.6989  3.3194  1.1976
  150MOL   C12121279   6.118   3.814   7.052  0.1907  0.5303  0.2294
  150MOL   C12221280   6.245   3.789   6.965 -0.4511 -0.0158  0.0770
  150MOL   O12321281   6.020   3.857   6.968 -0.3448 -0.1455  0.6014
  150MOL   H12421282   6.138   3.889   7.128  0.6191 -0.2035  0.8488
  150MOL   H12521283   6.220   3.731   6.875  1.2412  0.4181 -0.7052
  150MOL   H12621284   6.321   3.732   7.019  1.5817  1.9367 -0.6306
  150MOL   H12721285   6.275   3.884   6.921 -2.9598  2.1247  2.8776
  150MOL   C12821286   5.898   3.861   7.025 -0.0319  0.8998  0.5030
  150MOL   C12921287   5.849   4.001   7.014 -0.4273  0.4252  0.1385
  150MOL   O13021288   5.819   3.786   6.930 -0.2762  0.1724  0.2672
  150MOL   H13121289   5.890   3.824   7.127 -1.9463 -2.0651 -0.6706
  150MOL   H13221290   5.748   4.000   7.055 -0.4007  0.3493  0.2009
  150MOL   H13321291   5.842   4.044   6.914 -0.4870  0.3381  0.1052
  150MOL   H13421292   5.917   4.062   7.073 -1.2032  0.1325  1.3620
  150MOL   C13521293   5.827   3.648   6.937 -0.8278  1.0965  0.1723
  150MOL   C13621294   5.720   3.592   6.847 -0.2394 -0.0904 -0.1690
  150MOL   O13721295   5.953   3.595   6.898  0.0614  0.1562  0.2953
  150MOL   H13821296   5.813   3.620   7.041  0.6092  1.5077  0.4915
  150MOL   H13921297   5.627   3.629   6.891 -0.0255 -0.8077  0.9296
  150MOL   H14021298   5.728   3.483   6.853 -2.4518 -0.1739  2.2570
  150MOL   H14121299   5.732   3.634   6.747  1.7081 -0.9511 -0.3243
  150MOL   H14221300   6.020   3.642   6.945 -0.8951  2.7027 -0.7854
  151MOL     C121301   5.687   2.182   0.930 -0.4044 -0.0521  0.3363
  151MOL     C221302   5.745   2.263   1.039 -0.9138 -0.0655 -0.5565
  151MOL     O321303   5.796   2.134   0.858  0.0823 -0.0200 -0.0979
  151MOL     H421304   5.610   2.238   0.878  0.5467  0.8073 -0.1700
  151MOL     H521305   5.803   2.350   1.010 -2.2757  1.7340  1.9791
  151MOL     H621306   5.807   2.201   1.103  3.2158  1.1934 -3.1563
  151MOL     H721307   5.670   2.295   1.111 -1.3551 -0.2998 -0.9052
  151MOL     H821308   5.628   2.100   0.972 -1.4445 -0.2421 -1.4877
  151MOL     C921309   5.767   2.058   0.743  0.0316 -0.5256  1.0626
  151MOL    C1021310   5.649   1.963   0.764 -0.2023  0.2791  0.1069
  151MOL    O1121311   5.743   2.145   0.642  0.1802 -0.5829  0.1449
  151MOL    H1221312   5.853   1.999   0.709  0.1533  0.4684 -0.4045
  151MOL    H1321313   5.564   2.024   0.794  0.2121 -0.3323  2.7130
  151MOL    H1421314   5.668   1.888   0.841 -1.5545 -0.2103 -0.0264
  151MOL    H1521315   5.607   1.912   0.678 -0.9213  0.3752  0.3968
  151MOL    C1621316   5.862   2.224   0.608 -0.0582 -0.0288 -0.0948
  151MOL    C1721317   5.922   2.184   0.470  0.4850  1.6640 -0.3945
  151MOL    O1821318   5.837   2.352   0.580  0.1841  0.4996  0.1062
  151MOL    H1921319   5.940   2.212   0.683 -0.9629 -0.8791  0.7281
  151MOL    H2021320   5.863   2.204   0.381  1.1598  1.7765 -0.8249
  151MOL    H2121321   5.915   2.076   0.473  0.6656  1.6666  0.4590
  151MOL    H2221322   6.026   2.210   0.450  0.8483  0.5501  0.0287
  151MOL    C2321323   5.855   2.434   0.690  0.0667 -0.0598 -0.2987
  151MOL    C2421324   5.996   2.497   0.676  0.7457  0.1965 -0.2426
  151MOL    O2521325   5.763   2.543   0.685 -0.0105  0.5850 -0.1469
  151MOL    H2621326   5.839   2.385   0.785 -0.2323 -1.0837 -0.8689
  151MOL    H2721327   6.011   2.520   0.571  0.2805  0.6490 -0.2098
  151MOL    H2821328   6.065   2.421   0.713  1.3510 -0.8016 -3.2596
  151MOL    H2921329   5.999   2.588   0.736  2.5639  0.6154 -0.9677
  151MOL    C3021330   5.635   2.507   0.732 -0.1444 -0.5883  0.3916
  151MOL    C3121331   5.604   2.582   0.864 -0.3500  0.0117  0.0926
  151MOL    O3221332   5.534   2.534   0.641 -0.4338 -0.3074 -0.1238
  151MOL    H3321333   5.633   2.400   0.749  1.0377 -0.8516 -1.0187
  151MOL    H3421334   5.658   2.556   0.955 -0.8414  0.2237  0.4476
  151MOL    H3521335   5.502   2.575   0.900  0.1713 -1.5454  1.3253
  151MOL    H3621336   5.624   2.687   0.842  1.0353 -0.5550 -1.4408
  151MOL    C3721337   5.544   2.461   0.521 -0.6406  0.4154  0.4351
  151MOL    C3821338   5.408   2.392   0.501  0.1322 -0.6336 -0.3981
  151MOL    O3921339   5.571   2.545   0.407 -0.2499 -0.0315  0.1219
  151MOL    H4021340   5.618   2.381   0.522 -1.1521 -0.0889 -1.4994
  151MOL    H4121341   5.380   2.332   0.587 -0.4802 -1.5566 -1.2200
  151MOL    H4221342   5.406   2.329   0.412  0.2189 -1.4621  0.1880
  151MOL    H4321343   5.330   2.467   0.489 -0.1091 -0.7919  0.1737
  151MOL    C4421344   5.704   2.562   0.380 -0.3641  0.4980  0.2316
  151MOL    C4521345   5.723   2.474   0.253  0.5475  0.4164 -0.0174
  151MOL    O4621346   5.724   2.698   0.341 -0.6360 -0.4256 -0.4147
  151MOL    H4721347   5.770   2.538   0.463  1.8092 -0.2581 -1.6403
  151MOL    H4821348   5.828   2.479   0.222  1.4038 -2.2161  2.2657
  151MOL    H4921349   5.657   2.497   0.169  0.3923  0.9511  0.2450
  151MOL    H5021350   5.693   2.375   0.287  1.5563 -0.5664 -1.9091
  151MOL    C5121351   5.728   2.788   0.446  0.2376  0.3073  0.3609
  151MOL    C5221352   5.865   2.850   0.444 -0.2462  0.8268  0.0410
  151MOL    O5321353   5.638   2.891   0.432  0.3970 -0.1211 -0.2932
  151MOL    H5421354   5.720   2.748   0.547 -0.7924  0.7013  0.4350
  151MOL    H5521355   5.943   2.785   0.482  0.1460  1.8763  1.0971
  151MOL    H5621356   5.872   2.938   0.508 -0.0848  0.5853  0.3553
  151MOL    H5721357   5.880   2.888   0.343 -0.3016 -2.7585 -1.3717
  151MOL    C5821358   5.502   2.850   0.457  0.3495  0.3150  0.3425
  151MOL    C5921359   5.441   2.941   0.564 -0.0821 -0.5465  0.2695
  151MOL    O6021360   5.416   2.870   0.343 -0.0088 -0.0576 -0.0620
  151MOL    H6121361   5.501   2.749   0.497 -2.0433  0.7021  1.3321
  151MOL    H6221362   5.357   2.887   0.606  0.0803  0.9938  2.6324
  151MOL    H6321363   5.409   3.031   0.511 -0.7154 -0.4369  0.8348
  151MOL    H6421364   5.511   2.969   0.642 -1.6938 -0.7305  1.7995
  151MOL    C6521365   5.432   2.786   0.232 -0.0114 -0.3627  0.4486
  151MOL    C6621366   5.309   2.700   0.217  0.2604  0.3719  0.2732
  151MOL    O6721367   5.444   2.862   0.113 -0.0584  0.0018  0.2329
  151MOL    H6821368   5.521   2.725   0.245  1.4694  1.1310 -2.3442
  151MOL    H6921369   5.328   2.654   0.120 -1.0752 -1.6998  0.9776
  151MOL    H7021370   5.216   2.756   0.214  0.5060  0.8800  1.7951
  151MOL    H7121371   5.303   2.623   0.294  1.7576  0.4607  0.4993
  151MOL    C7221372   5.580   2.906   0.099  0.5898  0.4246 -0.0303
  151MOL    C7321373   5.645   2.822   7.902  0.7963 -0.2109 -0.1169
  151MOL    O7421374   5.579   3.036   0.060 -0.1598 -0.3838 -0.0172
  151MOL    H7521375   5.637   2.897   0.191 -1.7467  2.1386  1.6731
  151MOL    H7621376   5.749   2.853   7.898  1.0828 -0.7348  2.3570
  151MOL    H7721377   5.595   2.848   7.809 -0.5129  1.3434  0.9854
  151MOL    H7821378   5.641   2.715   0.009 -0.2454  0.1108  1.4448
  151MOL    C7921379   5.534   3.123   0.159 -0.0140 -0.1747  0.4416
  151MOL    C8021380   5.647   3.189   0.235  0.1330 -0.3500 -0.1033
  151MOL    O8121381   5.460   3.228   0.095  0.1824  0.2644 -0.2361
  151MOL    H8221382   5.476   3.063   0.229 -0.6170 -1.5333 -1.1941
  151MOL    H8321383   5.691   3.111   0.297 -1.2489 -1.5371 -0.5946
  151MOL    H8421384   5.606   3.272   0.293 -0.4248  0.9247 -2.2562
  151MOL    H8521385   5.710   3.225   0.154 -1.5538  0.5031 -1.0571
  151MOL    C8621386   5.331   3.188   0.054 -0.3242  0.4671 -0.0737
  151MOL    C8721387   5.225   3.219   0.168 -0.0431 -0.5438 -0.0415
  151MOL    O8821388   5.290   3.257   7.857 -0.5166  0.0926 -0.5347
  151MOL    H8921389   5.328   3.082   0.031  0.3284  0.2469  0.8542
  151MOL    H9021390   5.239   3.321   0.204  0.4438 -0.5461 -0.2177
  151MOL    H9121391   5.240   3.141   0.242  0.6606  0.1920  0.6129
  151MOL    H9221392   5.126   3.205   0.126 -0.8170  2.0159  0.8077
  151MOL    C9321393   5.362   3.232   7.742 -0.1734  0.8544  0.4028
  151MOL    C9421394   5.268   3.166   7.641  0.0836 -0.6421 -0.6711
  151MOL    O9521395   5.408   3.345   7.677  0.1696  0.0302  0.1697
  151MOL    H9621396   5.439   3.158   7.766 -0.0663  1.0493  0.6637
  151MOL    H9721397   5.204   3.086   7.680  1.1110 -1.1469 -0.0083
  151MOL    H9821398   5.316   3.126   7.552 -4.4580 -2.5802 -2.3908
  151MOL    H9921399   5.205   3.249   7.610 -1.7314 -2.2273 -1.3579
  151MOL   C10021400   5.492   3.431   7.754 -0.5219  0.2592 -0.4658
  151MOL   C10121401   5.633   3.389   7.725  0.3222  0.3926  0.2445
  151MOL   O10221402   5.486   3.568   7.719  0.4722  0.2381  0.5631
  151MOL   H10321403   5.462   3.418   7.858  0.0063  0.7771 -0.2447
  151MOL   H10421404   5.697   3.445   7.793 -2.0578  2.5540  0.7895
  151MOL   H10521405   5.664   3.427   7.627 -0.1973  0.9415  0.2875
  151MOL   H10621406   5.644   3.281   7.731 -0.3597  0.3039 -0.0036
  151MOL   C10721407   5.372   3.638   7.752 -0.0932  0.0080 -0.0017
  151MOL   C10821408   5.425   3.766   7.816 -0.6603 -0.7579  0.8980
  151MOL   O10921409   5.297   3.686   7.645  0.3873  0.7136  0.4160
  151MOL   H11021410   5.311   3.591   7.830  0.7804  1.5058  1.6165
  151MOL   H11121411   5.494   3.813   7.746 -1.2577 -0.6135  0.4015
  151MOL   H11221412   5.484   3.744   7.905  3.7228  1.0867 -1.3938
  151MOL   H11321413   5.345   3.837   7.834  1.2272  1.6641 -0.0240
  151MOL   C11421414   5.216   3.591   7.574  0.1172 -0.1316  0.4799
  151MOL   C11521415   5.074   3.655   7.590  0.0617 -0.1365 -0.5985
  151MOL   O11621416   5.258   3.589   7.440 -0.0640 -0.1644 -0.3314
  151MOL   H11721417   5.221   3.498   7.631 -0.2529  0.5319  1.6264
  151MOL   H11821418   5.080   3.762   7.567  2.5130 -0.2154 -0.4044
  151MOL   H11921419   5.044   3.659   7.695  1.6976  1.3133 -0.1561
  151MOL   H12021420   5.009   3.603   7.520 -0.9916  0.2876  0.0331
  151MOL   C12121421   5.370   3.519   7.399  0.2696 -0.3267 -0.0025
  151MOL   C12221422   5.319   3.389   7.344  0.8828 -0.4310  0.0031
  151MOL   O12321423   5.435   3.581   7.296  0.3497  0.6178  0.3047
  151MOL   H12421424   5.437   3.494   7.482  1.7778 -1.4097 -1.5010
  151MOL   H12521425   5.405   3.325   7.325  1.2486 -0.2349  0.9812
  151MOL   H12621426   5.256   3.410   7.257  1.5262 -1.6874 -0.7783
  151MOL   H12721427   5.244   3.352   7.414 -0.1391  0.2481 -0.7173
  151MOL   C12821428   5.519   3.681   7.337 -0.2665  0.8840  0.4138
  151MOL   C12921429   5.654   3.655   7.269 -0.3992 -0.3368  0.2035
  151MOL   O13021430   5.481   3.806   7.293 -0.3527  0.1269 -0.1817
  151MOL   H13121431   5.538   3.680   7.444  0.2891  0.6614  0.3163
  151MOL   H13221432   5.715   3.743   7.286  0.2317 -0.6748 -0.2936
  151MOL   H13321433   5.648   3.650   7.160  0.1487  0.2799  0.1425
  151MOL   H13421434   5.714   3.576   7.315  1.9114  1.1739 -0.1648
  151MOL   C13521435   5.406   3.874   7.389 -0.3308  0.1059  0.8862
  151MOL   C13621436   5.444   4.023   7.365  0.9666  0.1253  0.5069
  151MOL   O13721437   5.267   3.859   7.363  0.3153 -0.0570  0.6483
  151MOL   H13821438   5.416   3.850   7.495 -1.1203 -1.6127  0.5961
  151MOL   H13921439   5.546   4.036   7.402  0.2522  0.8346  2.2399
  151MOL   H14021440   5.374   4.090   7.413  0.5327 -0.7504  1.1124
  151MOL   H14121441   5.458   4.038   7.258  2.7062  1.0011  0.8288
  151MOL   H14221442   5.248   3.777   7.406  0.5368 -0.8712 -0.7968
  152MOL     C121443   3.238   3.279   2.977  0.2852 -0.1746 -0.3477
  152MOL     C221444   3.272   3.240   2.831 -0.0542 -0.3869 -0.0122
  152MOL     O321445   3.356   3.312   3.058  0.6017 -0.7483 -0.2251
  152MOL     H421446   3.180   3.207   3.035  1.2386 -0.4215  0.3073
  152MOL     H521447   3.335   3.152   2.833 -1.7384 -1.5980  0.7393
  152MOL     H621448   3.324   3.311   2.766 -0.5860 -0.0966 -0.1275
  152MOL     H721449   3.177   3.211   2.786 -0.0683  0.6055 -0.6450
  152MOL     H821450   3.185   3.375   2.982  1.5595  0.4766  1.0153
  152MOL     C921451   3.321   3.328   3.195 -0.4779 -1.4056 -0.6193
  152MOL    C1021452   3.334   3.203   3.274 -0.8068 -0.2161  0.2750
  152MOL    O1121453   3.394   3.433   3.260 -0.0805  0.5538  0.0437
  152MOL    H1221454   3.213   3.342   3.199 -0.5256 -2.2526  2.4563
  152MOL    H1321455   3.439   3.178   3.263 -1.0658 -1.0352 -0.4417
  152MOL    H1421456   3.278   3.122   3.227  0.0687  0.9641 -2.9379
  152MOL    H1521457   3.313   3.227   3.378 -4.1407 -0.4910 -0.2757
  152MOL    C1621458   3.385   3.562   3.208 -0.0951 -0.4660 -0.4259
  152MOL    C1721459   3.281   3.644   3.291 -0.2665  0.0800 -0.3596
  152MOL    O1821460   3.505   3.633   3.211  0.4794  0.1122  0.4112
  152MOL    H1921461   3.355   3.563   3.103  1.7080 -1.0888 -0.9655
  152MOL    H2021462   3.189   3.587   3.278 -0.5317  0.3956  0.1121
  152MOL    H2121463   3.272   3.746   3.252  0.2125 -0.0227 -0.7480
  152MOL    H2221464   3.312   3.647   3.395  0.0061 -3.8156 -0.2752
  152MOL    C2321465   3.601   3.581   3.124  0.1105 -0.1761 -0.1654
  152MOL    C2421466   3.607   3.669   2.997  0.6315 -0.5159  0.1879
  152MOL    O2521467   3.737   3.581   3.160  0.1365 -0.0319 -0.1744
  152MOL    H2621468   3.573   3.480   3.093  0.4499  0.1176 -1.4792
  152MOL    H2721469   3.684   3.629   2.932 -0.8420 -0.5594 -1.5526
  152MOL    H2821470   3.627   3.775   3.013 -0.3143  0.2837 -3.4407
  152MOL    H2921471   3.513   3.674   2.943  0.8540  1.2212 -0.0637
  152MOL    C3021472   3.767   3.497   3.267 -0.4374  0.2715  0.9383
  152MOL    C3121473   3.919   3.453   3.258 -0.6176  0.6452 -0.0988
  152MOL    O3221474   3.768   3.567   3.387 -0.4298 -0.5551 -0.0898
  152MOL    H3321475   3.702   3.410   3.261 -1.4886  1.0485  1.0049
  152MOL    H3421476   3.939   3.404   3.163  1.5779  2.9538 -0.8504
  152MOL    H3521477   3.953   3.391   3.341  1.3833 -0.0735 -1.4241
  152MOL    H3621478   3.984   3.539   3.245 -1.9447  1.6542 -0.1777
  152MOL    C3721479   3.667   3.541   3.477 -0.3436 -0.2514 -0.7082
  152MOL    C3821480   3.704   3.419   3.551  0.5904 -0.1593  0.3275
  152MOL    O3921481   3.658   3.641   3.574  0.3817  0.1418  0.0869
  152MOL    H4021482   3.569   3.531   3.429  0.1342 -1.7820 -1.4081
  152MOL    H4121483   3.651   3.409   3.646 -0.4704 -1.6487 -0.3968
  152MOL    H4221484   3.811   3.399   3.548  0.1482 -2.5839 -1.0231
  152MOL    H4321485   3.670   3.342   3.482 -1.6624  1.3350 -0.2879
  152MOL    C4421486   3.608   3.764   3.535  0.7980  0.6808  0.3556
  152MOL    C4521487   3.471   3.772   3.586  0.4914 -0.1798 -0.6338
  152MOL    O4621488   3.683   3.873   3.578 -0.4405 -0.4058  0.5300
  152MOL    H4721489   3.600   3.771   3.426 -0.1736 -0.5481  0.3301
  152MOL    H4821490   3.400   3.825   3.523  0.1775  1.8286  1.3579
  152MOL    H4921491   3.476   3.834   3.676  2.2682  1.3835 -1.7637
  152MOL    H5021492   3.428   3.674   3.606  0.1392  0.2612  0.8199
  152MOL    C5121493   3.807   3.889   3.514 -0.4847 -0.3264 -0.1504
  152MOL    C5221494   3.795   4.016   3.428 -0.3650 -0.6694  0.0510
  152MOL    O5321495   3.908   3.912   3.611 -0.4696  0.0599 -0.6312
  152MOL    H5421496   3.838   3.803   3.454  2.5725  0.4110  0.2896
  152MOL    H5521497   3.738   4.008   3.336 -1.5189 -0.3574  0.7341
  152MOL    H5621498   3.897   4.043   3.400 -0.7588 -0.4998 -1.2559
  152MOL    H5721499   3.755   4.103   3.480 -0.4963 -0.8519  0.2546
  152MOL    C5821500   3.954   3.803   3.674  0.4970 -0.1725  0.4970
  152MOL    C5921501   4.099   3.786   3.652 -0.0624  0.0305 -0.1144
  152MOL    O6021502   3.947   3.814   3.810  0.2287 -0.5700 -0.4116
  152MOL    H6121503   3.910   3.710   3.639 -0.2519 -0.0442  1.0917
  152MOL    H6221504   4.161   3.854   3.710 -0.2243  0.4932 -0.4754
  152MOL    H6321505   4.125   3.787   3.546  0.0173 -2.1804 -0.1225
  152MOL    H6421506   4.136   3.695   3.698 -0.7803  0.0679  0.5476
  152MOL    C6521507   3.828   3.769   3.870 -0.7223  0.1194  0.0169
  152MOL    C6621508   3.864   3.631   3.940 -0.7044  0.0879 -0.0514
  152MOL    O6721509   3.795   3.858   3.970  0.8292 -0.1669 -0.2731
  152MOL    H6821510   3.753   3.745   3.795 -0.8156 -1.0180  0.4539
  152MOL    H6921511   3.773   3.570   3.939 -0.8259  0.2718 -0.8684
  152MOL    H7021512   3.905   3.633   4.041  1.7890  1.5719 -1.0571
  152MOL    H7121513   3.930   3.573   3.876 -1.5254 -0.4535 -0.4161
  152MOL    C7221514   3.722   3.978   3.924  0.5670 -0.1790 -0.5654
  152MOL    C7321515   3.584   3.955   3.974  0.6548 -0.8717 -0.0559
  152MOL    O7421516   3.768   4.101   3.984  0.0157  0.2134  0.3345
  152MOL    H7521517   3.722   3.990   3.816  1.6231 -1.5732 -0.7410
  152MOL    H7621518   3.545   3.865   3.927 -0.6973 -1.3090  1.8285
  152MOL    H7721519   3.513   4.030   3.938  1.2997 -1.4734 -2.6722
  152MOL    H7821520   3.576   3.937   4.081 -3.2157 -1.8160 -0.4300
  152MOL    C7921521   3.870   4.164   3.918 -0.1219  0.0983  0.4473
  152MOL    C8021522   3.823   4.294   3.856 -0.1561  0.1299 -0.5188
  152MOL    O8121523   3.971   4.193   4.012 -0.0977  0.7377  0.2753
  152MOL    H8221524   3.914   4.098   3.844  0.7421 -0.0935  1.1123
  152MOL    H8321525   3.739   4.286   3.786  0.2286 -0.9426 -0.8608
  152MOL    H8421526   3.891   4.328   3.777 -0.1660 -0.7828 -0.9265
  152MOL    H8521527   3.803   4.367   3.935  3.0108  0.8438 -0.3364
  152MOL    C8621528   4.049   4.084   4.057 -0.4909  0.1524  0.6610
  152MOL    C8721529   4.194   4.113   4.010  0.6949 -0.4239 -0.0627
  152MOL    O8821530   4.048   4.088   4.197 -0.3120 -0.2308 -0.0195
  152MOL    H8921531   4.015   3.988   4.018 -0.1672  0.9090 -1.5670
  152MOL    H9021532   4.217   4.209   4.056 -0.2362  0.2855 -1.0658
  152MOL    H9121533   4.185   4.108   3.901  1.1509 -0.9494 -0.0761
  152MOL    H9221534   4.257   4.038   4.058 -0.5437 -1.4598 -0.0332
  152MOL    C9321535   3.954   3.999   4.250 -0.1408 -0.3040  0.5437
  152MOL    C9421536   4.020   3.867   4.286 -0.2028 -0.3039  0.0580
  152MOL    O9521537   3.900   4.054   4.366 -0.6529 -0.0129 -0.0015
  152MOL    H9621538   3.869   3.975   4.186 -1.0040 -1.3772  2.0239
  152MOL    H9721539   3.956   3.790   4.329 -0.1577  0.7488  2.0774
  152MOL    H9821540   4.105   3.898   4.347  0.7975  0.8356 -1.8584
  152MOL    H9921541   4.062   3.823   4.196  0.7461 -0.2164  0.4516
  152MOL   C10021542   3.768   4.102   4.368  0.0903 -0.2500 -0.3201
  152MOL   C10121543   3.718   4.047   4.505  0.7362 -0.2334 -0.0204
  152MOL   O10221544   3.774   4.240   4.381  0.7099  0.0393  0.0910
  152MOL   H10321545   3.705   4.071   4.284  0.1299 -1.0940 -0.0406
  152MOL   H10421546   3.622   4.090   4.535  0.2981 -0.8510 -0.4992
  152MOL   H10521547   3.797   4.074   4.574  0.5270  2.0885 -0.6662
  152MOL   H10621548   3.712   3.938   4.494 -0.2237 -0.2704  0.7971
  152MOL   C10721549   3.786   4.300   4.260  0.5174  0.8931  0.3178
  152MOL   C10821550   3.647   4.315   4.204 -0.4890 -0.1911  0.1486
  152MOL   O10921551   3.838   4.434   4.269  0.0472 -0.1996 -0.0498
  152MOL   H11021552   3.856   4.240   4.202 -2.0487 -2.7559  0.8352
  152MOL   H11121553   3.665   4.391   4.128  4.1363 -0.3195  1.0003
  152MOL   H11221554   3.576   4.362   4.272  0.1347  2.6519 -1.0526
  152MOL   H11321555   3.608   4.224   4.159  2.2540  0.0521 -2.9072
  152MOL   C11421556   3.972   4.437   4.281  0.6323 -0.6776  1.4005
  152MOL   C11521557   4.019   4.525   4.158  0.2729  0.0989  0.2394
  152MOL   O11621558   4.003   4.513   4.392  0.5043  0.1285 -0.6345
  152MOL   H11721559   4.024   4.341   4.284  0.3452 -0.7860  3.2222
  152MOL   H11821560   3.989   4.629   4.163 -1.9448 -0.4342 -1.1546
  152MOL   H11921561   3.985   4.480   4.065  4.4075 -2.5280 -0.1541
  152MOL   H12021562   4.128   4.526   4.155  0.2402  0.7271 -0.5889
  152MOL   C12121563   4.004   4.441   4.516  0.2581  0.3141 -0.3235
  152MOL   C12221564   4.145   4.402   4.556 -1.7311 -0.3418 -0.4912
  152MOL   O12321565   3.955   4.509   4.620  0.0668 -0.6770 -0.1872
  152MOL   H12421566   3.941   4.352   4.516 -2.6064  2.2777  1.8996
  152MOL   H12521567   4.194   4.345   4.477  2.8664  0.1584  1.8116
  152MOL   H12621568   4.151   4.349   4.651  0.7381 -1.3889 -1.1731
  152MOL   H12721569   4.189   4.499   4.581 -2.0348 -0.5077  0.6844
  152MOL   C12821570   3.818   4.529   4.610 -0.0929  0.1286  0.0264
  152MOL   C12921571   3.750   4.455   4.730 -0.1355  0.0491  0.1857
  152MOL   O13021572   3.785   4.660   4.629 -0.1730  0.1546  0.3797
  152MOL   H13121573   3.778   4.498   4.514 -3.9571 -1.1473  1.9614
  152MOL   H13221574   3.795   4.513   4.811 -0.6635 -1.1156  1.3370
  152MOL   H13321575   3.779   4.351   4.742 -1.9021 -0.6802 -1.6602
  152MOL   H13421576   3.642   4.473   4.723 -0.2354 -1.3123 -2.0017
  152MOL   C13521577   3.823   4.748   4.521 -0.2601 -0.1590  0.3970
  152MOL   C13621578   3.728   4.870   4.531 -0.3240  0.1673 -0.0678
  152MOL   O13721579   3.950   4.796   4.546 -0.3823 -0.4145 -0.4084
  152MOL   H13821580   3.824   4.704   4.421 -1.0479 -1.4883  0.9596
  152MOL   H13921581   3.755   4.935   4.447 -1.0546 -1.3441 -1.5138
  152MOL   H14021582   3.741   4.923   4.625  0.1686  2.0999 -1.2007
  152MOL   H14121583   3.626   4.832   4.528  0.0105 -0.8564  0.9576
  152MOL   H14221584   3.989   4.722   4.590  1.1067  0.1221 -0.7998
  153MOL     C121585   5.193   2.650   0.636 -1.1448 -0.1521  0.0030
  153MOL     C221586   5.093   2.671   0.521  0.2210  0.3080 -0.0920
  153MOL     O321587   5.163   2.755   0.736 -0.3620 -0.3906  0.0835
  153MOL     H421588   5.290   2.666   0.590 -0.5547 -3.0269  0.2135
  153MOL     H521589   5.121   2.767   0.478  0.2359  0.0697 -0.6079
  153MOL     H621590   4.986   2.669   0.541  0.2244  2.3658  0.3070
  153MOL     H721591   5.113   2.598   0.443 -0.6734 -0.4108  0.3446
  153MOL     H821592   5.180   2.551   0.678  2.3655 -0.3210  0.8555
  153MOL     C921593   5.115   2.708   0.855  0.7089  0.4375 -0.5965
  153MOL    C1021594   5.229   2.645   0.941 -0.1590 -0.0637  0.0185
  153MOL    O1121595   5.063   2.817   0.924 -0.0382  0.5520 -0.1502
  153MOL    H1221596   5.032   2.637   0.861 -0.8087  2.2773  1.2192
  153MOL    H1321597   5.289   2.734   0.957 -1.3920  0.6865  0.4689
  153MOL    H1421598   5.283   2.575   0.877  1.6497 -0.1809  1.6421
  153MOL    H1521599   5.190   2.589   1.026 -1.4199  1.3253  0.3560
  153MOL    C1621600   4.943   2.861   0.875 -0.1503 -0.3241 -0.2493
  153MOL    C1721601   4.834   2.803   0.969  0.3232 -0.2330  0.0500
  153MOL    O1821602   4.926   2.996   0.885  0.2735  0.0924  0.1045
  153MOL    H1921603   4.924   2.840   0.769 -1.4491 -0.5630  0.0288
  153MOL    H2021604   4.832   2.848   1.069 -3.5000  1.3048 -0.5988
  153MOL    H2121605   4.842   2.695   0.984  1.5773 -0.0173  0.9895
  153MOL    H2221606   4.740   2.830   0.920  0.4941 -1.3942 -0.9485
  153MOL    C2321607   5.009   3.067   0.803  0.3532 -0.5415  0.2934
  153MOL    C2421608   4.923   3.117   0.691 -0.8600  0.4869 -0.2018
  153MOL    O2521609   5.056   3.172   0.875 -0.0217  0.0522  0.0257
  153MOL    H2621610   5.097   3.014   0.766  0.8871 -1.3740  2.6885
  153MOL    H2721611   4.830   3.160   0.727 -1.9829 -1.1248 -1.1140
  153MOL    H2821612   4.907   3.037   0.618 -1.5951  0.3963  0.0567
  153MOL    H2921613   4.977   3.187   0.628  1.5419 -1.1564 -0.0297
  153MOL    C3021614   5.160   3.139   0.972  0.1752 -0.0237  0.0003
  153MOL    C3121615   5.285   3.212   0.920 -0.6461  1.0305 -0.1618
  153MOL    O3221616   5.142   3.188   1.096 -0.0930 -0.3393  0.0831
  153MOL    H3321617   5.176   3.032   0.979 -1.7112 -0.3878 -1.0188
  153MOL    H3421618   5.267   3.319   0.930 -3.1918  0.5028  1.2827
  153MOL    H3521619   5.302   3.184   0.816 -1.2961 -2.2053  0.5499
  153MOL    H3621620   5.375   3.189   0.978 -2.3418 -1.3708  1.6168
  153MOL    C3721621   5.080   3.097   1.180  0.0408 -0.4784 -0.2109
  153MOL    C3821622   5.191   3.010   1.250  0.7082  0.3280 -0.2365
  153MOL    O3921623   5.006   3.159   1.284 -0.2989 -0.1644  0.2179
  153MOL    H4021624   5.009   3.038   1.122 -0.3864 -0.7803  0.6024
  153MOL    H4121625   5.159   2.952   1.336  1.4879  0.3735  0.0939
  153MOL    H4221626   5.279   3.068   1.277 -0.6315  2.6107 -0.6810
  153MOL    H4321627   5.231   2.931   1.186  2.6200  0.2933  0.9492
  153MOL    C4421628   4.908   3.248   1.230 -0.2876  0.4537 -0.6073
  153MOL    C4521629   4.772   3.186   1.259 -0.3792  0.1323 -0.4640
  153MOL    O4621630   4.917   3.375   1.276  0.1820 -0.0739  0.1696
  153MOL    H4721631   4.915   3.250   1.121 -0.5200  0.1002 -0.6281
  153MOL    H4821632   4.753   3.088   1.215  1.7749 -2.1606  3.4584
  153MOL    H4921633   4.695   3.253   1.220  0.5604  0.5861 -1.5482
  153MOL    H5021634   4.755   3.171   1.366 -0.0105  0.6002 -0.3399
  153MOL    C5121635   5.022   3.451   1.223  0.6751 -0.0110 -0.1763
  153MOL    C5221636   4.970   3.576   1.151 -0.2866 -0.9885  0.2750
  153MOL    O5321637   5.118   3.499   1.319  0.1502  0.4482 -0.1499
  153MOL    H5421638   5.072   3.386   1.152  0.2562  1.6143 -1.9870
  153MOL    H5521639   4.875   3.552   1.102 -0.4784  1.5632 -0.6726
  153MOL    H5621640   5.038   3.622   1.079 -0.4779 -1.2840 -0.1002
  153MOL    H5721641   4.939   3.653   1.221 -0.1424 -0.5425 -0.1513
  153MOL    C5821642   5.219   3.406   1.349 -0.3345 -0.0277  0.1126
  153MOL    C5921643   5.345   3.455   1.283 -0.3253 -0.0896 -0.0475
  153MOL    O6021644   5.240   3.399   1.487 -0.3132  0.0026 -0.0553
  153MOL    H6121645   5.196   3.306   1.314  2.4534 -0.7691  0.2990
  153MOL    H6221646   5.393   3.538   1.334 -0.9187 -0.4270  1.0728
  153MOL    H6321647   5.323   3.494   1.184 -0.6341  1.3634  0.5735
  153MOL    H6421648   5.411   3.369   1.288 -0.8252 -0.6348 -2.3870
  153MOL    C6521649   5.154   3.307   1.558  0.1578  0.1220 -0.3205
  153MOL    C6621650   5.235   3.191   1.616  0.0552 -0.1187  0.0569
  153MOL    O6721651   5.078   3.364   1.662  0.0698  0.1321  0.3524
  153MOL    H6821652   5.090   3.251   1.490  1.0764 -0.5972 -0.6082
  153MOL    H6921653   5.294   3.229   1.699  0.7911  0.5743 -0.7793
  153MOL    H7021654   5.295   3.145   1.538  2.7354  2.9527  0.1964
  153MOL    H7121655   5.168   3.111   1.649 -0.3875  0.6408  1.0194
  153MOL    C7221656   4.970   3.440   1.621 -0.2144  0.8595  0.1137
  153MOL    C7321657   4.846   3.372   1.674 -0.3495 -0.6215  0.1685
  153MOL    O7421658   4.969   3.556   1.695 -0.2624  0.4997 -0.1479
  153MOL    H7521659   4.968   3.457   1.514  1.6454 -0.4995 -0.1549
  153MOL    H7621660   4.848   3.265   1.653  0.7086 -0.5398 -0.2076
  153MOL    H7721661   4.760   3.417   1.625 -0.8262 -2.0759 -0.3647
  153MOL    H7821662   4.841   3.385   1.782  0.7468  1.9556 -0.0519
  153MOL    C7921663   5.087   3.637   1.668  0.2038  0.1025  0.0973
  153MOL    C8021664   5.033   3.766   1.610  0.2446 -0.4030  0.5638
  153MOL    O8121665   5.158   3.677   1.783  0.2795 -0.5007  0.5164
  153MOL    H8221666   5.157   3.586   1.602  0.2273  0.6518 -0.3068
  153MOL    H8321667   4.956   3.736   1.538 -1.6674 -0.6764  2.6504
  153MOL    H8421668   5.110   3.831   1.569 -0.3745 -0.1506 -0.2181
  153MOL    H8521669   4.970   3.817   1.682 -0.5040 -3.0174  1.8235
  153MOL    C8621670   5.249   3.587   1.839  0.1378  0.3202 -0.4729
  153MOL    C8721671   5.384   3.652   1.840  0.1459 -0.2200 -0.3521
  153MOL    O8821672   5.220   3.549   1.972 -0.0876  0.1497  0.3119
  153MOL    H8921673   5.247   3.499   1.775 -1.1947  0.3368 -0.4535
  153MOL    H9021674   5.383   3.737   1.907  0.1032 -1.2208  0.9428
  153MOL    H9121675   5.422   3.697   1.748  1.1783 -0.0704  0.1385
  153MOL    H9221676   5.449   3.579   1.888  0.2555  0.3662  0.3917
  153MOL    C9321677   5.105   3.474   1.990  0.6482 -0.0757 -0.1036
  153MOL    C9421678   5.142   3.328   2.014 -0.2189 -0.5946 -0.1154
  153MOL    O9521679   5.049   3.507   2.114  0.4207  0.9394 -0.6920
  153MOL    H9621680   5.043   3.480   1.901  0.5141  0.2364  0.0111
  153MOL    H9721681   5.195   3.315   2.108  0.6682  0.1079 -0.5145
  153MOL    H9821682   5.201   3.301   1.926  1.6996  0.0200  0.9579
  153MOL    H9921683   5.050   3.271   2.023  0.0917 -1.4396 -1.8282
  153MOL   C10021684   4.978   3.625   2.108  0.0783  0.0438 -0.5456
  153MOL   C10121685   4.829   3.594   2.128  0.3875 -0.0628 -0.3761
  153MOL   O10221686   5.023   3.703   2.210  0.5057 -0.1734 -0.1384
  153MOL   H10321687   4.990   3.671   2.010  3.2233 -0.6699 -0.5676
  153MOL   H10421688   4.809   3.497   2.175  0.0596 -0.2467 -0.8942
  153MOL   H10521689   4.783   3.569   2.033 -0.3936 -0.2087  0.0345
  153MOL   H10621690   4.778   3.670   2.188 -1.6751 -1.2852 -0.5335
  153MOL   C10721691   5.124   3.790   2.173 -0.0143 -0.1364 -0.0222
  153MOL   C10821692   5.066   3.932   2.182 -0.3212  0.5768 -0.2416
  153MOL   O10921693   5.226   3.790   2.265  0.4600  0.0339  0.6645
  153MOL   H11021694   5.168   3.770   2.075  1.3228  3.2198 -0.1715
  153MOL   H11121695   5.013   3.936   2.277  0.8954 -0.2012  0.4813
  153MOL   H11221696   4.984   3.957   2.115 -2.1664  0.8028  2.0464
  153MOL   H11321697   5.141   4.011   2.186 -0.9140  1.1788 -0.8930
  153MOL   C11421698   5.284   3.669   2.277  0.7454  0.4159 -0.5086
  153MOL   C11521699   5.425   3.686   2.231  0.6297  0.2584 -0.0121
  153MOL   O11621700   5.291   3.638   2.406 -0.5569  0.2530  0.1271
  153MOL   H11721701   5.236   3.585   2.227  1.1174 -1.9723  3.0069
  153MOL   H11821702   5.420   3.709   2.125 -0.8618 -0.4496 -0.1104
  153MOL   H11921703   5.488   3.597   2.242 -1.8130 -1.5244 -0.0082
  153MOL   H12021704   5.469   3.768   2.287 -1.5381  0.1632  1.9145
  153MOL   C12121705   5.172   3.580   2.463  0.6560  0.2975  0.4493
  153MOL   C12221706   5.182   3.428   2.431  0.3763 -0.0281 -0.8719
  153MOL   O12321707   5.178   3.599   2.603 -0.4272  0.0217 -0.1484
  153MOL   H12421708   5.081   3.626   2.425  0.9895 -0.6290 -1.5299
  153MOL   H12521709   5.110   3.385   2.501  3.6079 -2.3569  1.1783
  153MOL   H12621710   5.285   3.407   2.460 -0.1543 -1.1254  0.2724
  153MOL   H12721711   5.163   3.410   2.325  0.9575  0.7985 -1.1150
  153MOL   C12821712   5.161   3.733   2.640 -0.4843 -0.4249 -0.4213
  153MOL   C12921713   5.024   3.739   2.712  0.5717 -0.1065 -0.5306
  153MOL   O13021714   5.252   3.767   2.747  0.6753  1.1621  0.0967
  153MOL   H13121715   5.166   3.806   2.560  1.4245  0.2708  0.3012
  153MOL   H13221716   5.010   3.834   2.764 -0.4114 -0.3009 -0.4215
  153MOL   H13321717   5.021   3.671   2.798 -0.0235 -0.3286 -0.7248
  153MOL   H13421718   4.947   3.734   2.635 -0.3146  2.1659  0.1776
  153MOL   C13521719   5.387   3.754   2.710 -0.3568 -0.0041  0.1889
  153MOL   C13621720   5.440   3.891   2.655  0.3269 -0.2498  0.0726
  153MOL   O13721721   5.460   3.721   2.824 -0.6891 -0.1510  0.0692
  153MOL   H13821722   5.399   3.674   2.636 -1.7841  3.0033 -3.4161
  153MOL   H13921723   5.411   3.969   2.726  0.1636  0.9022 -1.2479
  153MOL   H14021724   5.390   3.922   2.563 -1.7516 -1.9090  0.6173
  153MOL   H14121725   5.545   3.892   2.625  0.1960  0.8019 -0.3773
  153MOL   H14221726   5.465   3.798   2.879 -0.8025  0.9041 -1.3820
  154MOL     C121727   2.806   4.601   2.829 -0.0068 -0.7991 -0.2029
  154MOL     C221728   2.851   4.712   2.727  0.4425 -0.6092  0.5818
  154MOL     O321729   2.685   4.545   2.787  0.1443 -0.2714  0.1140
  154MOL     H421730   2.801   4.645   2.928  0.8718  0.7122 -0.8191
  154MOL     H521731   2.790   4.798   2.753  0.5266 -0.1698 -0.6990
  154MOL     H621732   2.843   4.680   2.623 -2.6016  0.5541  0.4133
  154MOL     H721733   2.952   4.746   2.747 -0.3880  1.1806  1.8310
  154MOL     H821734   2.870   4.512   2.831  2.9271  1.2692  2.4897
  154MOL     C921735   2.628   4.447   2.858  0.5848  0.5964  0.2592
  154MOL    C1021736   2.543   4.510   2.970 -0.1947  0.1700  0.2567
  154MOL    O1121737   2.550   4.366   2.775 -0.1204 -0.1047  0.1827
  154MOL    H1221738   2.704   4.377   2.893 -0.3594 -1.0826 -0.9941
  154MOL    H1321739   2.488   4.432   3.023 -1.5402  1.1243  0.2852
  154MOL    H1421740   2.464   4.570   2.924  1.3276  0.6374 -1.7920
  154MOL    H1521741   2.605   4.573   3.033 -0.5647 -0.3181  1.1226
  154MOL    C1621742   2.622   4.312   2.670  0.1717 -0.8674 -0.2688
  154MOL    C1721743   2.666   4.169   2.697  0.5943 -0.0520 -0.1585
  154MOL    O1821744   2.547   4.309   2.550 -0.1514  0.0128  0.2825
  154MOL    H1921745   2.710   4.373   2.649 -1.4170  2.2857  1.8439
  154MOL    H2021746   2.578   4.104   2.699  0.5924 -0.0319  0.7430
  154MOL    H2121747   2.699   4.154   2.800 -1.3588 -1.3137  0.3182
  154MOL    H2221748   2.742   4.133   2.629  1.2819  1.5977 -0.2823
  154MOL    C2321749   2.511   4.436   2.499 -0.3641 -0.1406  0.5137
  154MOL    C2421750   2.579   4.457   2.363  0.3391 -0.1426  0.1692
  154MOL    O2521751   2.375   4.449   2.474 -0.8709  0.0141 -0.2708
  154MOL    H2621752   2.538   4.513   2.570 -1.3694  0.6330  0.0736
  154MOL    H2721753   2.569   4.560   2.329 -0.1623 -0.2172  0.0798
  154MOL    H2821754   2.542   4.390   2.285  0.2318  2.2473 -1.8995
  154MOL    H2921755   2.684   4.429   2.373  0.0764 -1.9674 -1.8892
  154MOL    C3021756   2.291   4.426   2.588 -0.1193  0.3055 -0.0599
  154MOL    C3121757   2.263   4.565   2.654 -0.9665 -0.1556  0.2545
  154MOL    O3221758   2.161   4.386   2.557  0.5513 -0.4621 -0.1877
  154MOL    H3321759   2.341   4.356   2.655 -1.5407 -0.8324 -0.1852
  154MOL    H3421760   2.355   4.606   2.696 -2.2375  1.2156  1.7788
  154MOL    H3521761   2.185   4.555   2.729  0.1369 -0.8280  1.3456
  154MOL    H3621762   2.220   4.625   2.575  1.0386  2.4917  1.1010
  154MOL    C3721763   2.161   4.266   2.494  0.5299 -0.2321 -0.5804
  154MOL    C3821764   2.153   4.153   2.600  0.1706  0.2482  0.3786
  154MOL    O3921765   2.053   4.249   2.396  0.5142  0.2325  0.2284
  154MOL    H4021766   2.245   4.249   2.427  1.5350 -1.3397  0.9474
  154MOL    H4121767   2.141   4.057   2.549  1.4496  0.6259 -0.6533
  154MOL    H4221768   2.062   4.164   2.660 -0.0851  1.7994 -0.2855
  154MOL    H4321769   2.244   4.137   2.657  0.1092 -1.3994  0.0371
  154MOL    C4421770   2.053   4.351   2.297  0.1145 -0.6262 -0.2916
  154MOL    C4521771   2.098   4.276   2.178  0.0008 -0.1344  0.4293
  154MOL    O4621772   1.920   4.397   2.281  0.0758  0.7088 -0.1659
  154MOL    H4721773   2.122   4.436   2.299  0.2984 -0.7708 -0.5805
  154MOL    H4821774   2.075   4.170   2.186 -1.0963  0.0942  0.3670
  154MOL    H4921775   2.207   4.282   2.177 -0.0420  2.1107  2.6390
  154MOL    H5021776   2.049   4.319   2.091 -0.7929 -2.4525 -0.3159
  154MOL    C5121777   1.883   4.474   2.390 -0.5813  0.0605  0.3817
  154MOL    C5221778   1.904   4.619   2.352 -0.7096  0.1342 -0.1486
  154MOL    O5321779   1.746   4.450   2.406 -0.5520 -0.5704 -0.0218
  154MOL    H5421780   1.934   4.440   2.480  1.7844  1.9508 -0.1900
  154MOL    H5521781   1.892   4.686   2.437 -0.0578  0.1440 -0.0585
  154MOL    H5621782   1.837   4.649   2.273 -1.3344 -0.9247 -0.0351
  154MOL    H5721783   2.008   4.631   2.320  0.1831 -0.7033  2.2378
  154MOL    C5821784   1.713   4.317   2.453 -0.5964 -0.2344  0.0242
  154MOL    C5921785   1.709   4.324   2.605 -0.1372  0.2063 -0.0903
  154MOL    O6021786   1.581   4.288   2.400  0.2668 -0.3953  0.2886
  154MOL    H6121787   1.780   4.239   2.417  0.4440 -0.1121  1.6281
  154MOL    H6221788   1.647   4.407   2.638  0.8287  1.4442 -1.3284
  154MOL    H6321789   1.809   4.318   2.648 -0.7909 -1.1170  1.2991
  154MOL    H6421790   1.674   4.228   2.644  3.3937 -0.8182  0.8108
  154MOL    C6521791   1.578   4.296   2.259 -0.2908 -0.0757 -0.2135
  154MOL    C6621792   1.562   4.153   2.215  0.1012  0.1108  0.2436
  154MOL    O6721793   1.460   4.358   2.217 -0.2795  0.2233  0.1079
  154MOL    H6821794   1.665   4.339   2.210  0.1581  1.3358  1.7383
  154MOL    H6921795   1.562   4.150   2.106  3.3198  1.4439  0.1474
  154MOL    H7021796   1.484   4.097   2.268  2.3293 -0.6002  2.8736
  154MOL    H7121797   1.655   4.103   2.240  0.8593  0.0017 -2.6550
  154MOL    C7221798   1.457   4.494   2.254  0.5739  0.3980 -0.1800
  154MOL    C7321799   1.452   4.553   2.116 -0.0732 -0.6074  0.2064
  154MOL    O7421800   1.353   4.541   2.342  0.0660 -0.2571 -0.5168
  154MOL    H7521801   1.549   4.536   2.294  0.6138 -0.7620  0.9674
  154MOL    H7621802   1.353   4.524   2.079 -0.1620 -0.5979  0.4367
  154MOL    H7721803   1.525   4.514   2.045 -0.0621  1.3215 -0.8670
  154MOL    H7821804   1.455   4.661   2.127  2.1766 -0.5912 -0.2887
  154MOL    C7921805   1.386   4.553   2.482  0.6364  0.2360 -0.1168
  154MOL    C8021806   1.412   4.700   2.511  0.1027 -0.2908  0.1674
  154MOL    O8121807   1.267   4.512   2.552 -0.6398  0.4190 -0.2734
  154MOL    H8221808   1.466   4.483   2.509  1.0304  0.1577 -1.4393
  154MOL    H8321809   1.330   4.752   2.462 -0.3120 -2.6261 -1.6813
  154MOL    H8421810   1.512   4.720   2.472  0.8432 -1.5198  1.3874
  154MOL    H8521811   1.414   4.727   2.617  1.6228 -0.3948  0.1696
  154MOL    C8621812   1.226   4.379   2.528 -0.0966  0.5489  0.1700
  154MOL    C8721813   1.258   4.297   2.656  0.1593 -0.9174 -0.1824
  154MOL    O8821814   1.089   4.372   2.508  0.6709 -0.3908 -0.5725
  154MOL    H8921815   1.273   4.337   2.439  0.3082  3.4351 -1.0571
  154MOL    H9021816   1.190   4.346   2.726  1.9708 -0.7877  1.5198
  154MOL    H9121817   1.361   4.316   2.685  0.0681 -0.8291  0.0849
  154MOL    H9221818   1.246   4.190   2.638  2.4992 -1.1201 -0.7359
  154MOL    C9321819   1.055   4.416   2.380 -0.8086  0.3267 -0.1657
  154MOL    C9421820   1.030   4.296   2.287 -0.0444 -0.2434 -0.3675
  154MOL    O9521821   0.928   4.483   2.378 -0.2859 -0.6010  0.6085
  154MOL    H9621822   1.128   4.482   2.334 -1.4484  1.8955  0.9858
  154MOL    H9721823   1.086   4.208   2.319  2.6713  2.2537  1.9932
  154MOL    H9821824   1.047   4.322   2.183  2.2295 -0.8866 -0.1883
  154MOL    H9921825   0.923   4.272   2.286 -0.6102  2.2264 -0.4981
  154MOL   C10021826   0.927   4.591   2.470 -0.3113  0.6624  0.3766
  154MOL   C10121827   0.970   4.705   2.379 -0.6783 -1.3646  0.0282
  154MOL   O10221828   0.802   4.614   2.508 -0.2290 -0.3327 -0.2262
  154MOL   H10321829   0.999   4.576   2.551 -0.0042  0.8657  0.1401
  154MOL   H10421830   1.066   4.685   2.331 -0.0643  3.1060 -0.7595
  154MOL   H10521831   0.992   4.795   2.435  2.4878 -1.6112 -0.7222
  154MOL   H10621832   0.901   4.702   2.295 -0.0146  0.0966 -0.5793
  154MOL   C10721833   0.748   4.521   2.587  0.1764  0.1342  0.3887
  154MOL   C10821834   0.718   4.589   2.714  0.3258  0.3634 -0.4757
  154MOL   O10921835   0.619   4.480   2.541  0.0615  0.2907  0.3473
  154MOL   H11021836   0.800   4.426   2.593 -0.3356 -0.1517  0.3275
  154MOL   H11121837   0.678   4.520   2.788 -2.7874 -1.5842 -3.8184
  154MOL   H11221838   0.637   4.660   2.702 -0.2248 -0.3435 -0.9491
  154MOL   H11321839   0.811   4.636   2.747  0.2667 -0.0689  0.3393
  154MOL   C11421840   0.617   4.420   2.414 -0.0470  1.0395  0.1054
  154MOL   C11521841   0.551   4.287   2.431  0.2776 -0.3425  0.2201
  154MOL   O11621842   0.534   4.497   2.325 -0.0889  0.3917 -0.8683
  154MOL   H11721843   0.720   4.405   2.380  0.1598  1.0912  0.7026
  154MOL   H11821844   0.535   4.241   2.334 -0.1728 -0.6580  0.4417
  154MOL   H11921845   0.450   4.296   2.472  0.1518  1.5222 -0.4395
  154MOL   H12021846   0.610   4.225   2.498  0.9540 -0.0323 -0.0848
  154MOL   C12121847   0.601   4.585   2.244  0.5056  0.6052 -0.6105
  154MOL   C12221848   0.632   4.523   2.111  0.3194 -0.2294 -0.5424
  154MOL   O12321849   0.525   4.700   2.229 -0.0759 -0.1641  0.9738
  154MOL   H12421850   0.697   4.618   2.284  1.5633 -1.1077 -1.6664
  154MOL   H12521851   0.533   4.499   2.070  0.0054  0.4236 -0.1803
  154MOL   H12621852   0.699   4.440   2.132 -0.0520 -0.0287  1.5166
  154MOL   H12721853   0.690   4.588   2.045  1.3888 -0.4688  0.1622
  154MOL   C12821854   0.505   4.767   2.355  1.2879 -0.4252  0.8685
  154MOL   C12921855   0.575   4.899   2.349 -0.2173  0.2741 -0.3076
  154MOL   O13021856   0.365   4.802   2.365  0.3368 -0.0757  0.0185
  154MOL   H13121857   0.533   4.702   2.437  0.9953 -1.7513 -0.0658
  154MOL   H13221858   0.587   4.939   2.450  2.4867 -0.7394 -0.1918
  154MOL   H13321859   0.522   4.976   2.292  0.2187  3.1294  3.0080
  154MOL   H13421860   0.682   4.900   2.332 -0.2553 -0.1407 -0.5745
  154MOL   C13521861   0.289   4.696   2.417  0.2517 -0.4923  0.3014
  154MOL   C13621862   0.147   4.757   2.465  0.4142  0.2182 -0.1059
  154MOL   O13721863   0.274   4.600   2.317  0.1424 -0.5921  0.0289
  154MOL   H13821864   0.330   4.659   2.511  2.7808 -1.8180 -1.2774
  154MOL   H13921865   0.079   4.679   2.500 -1.1926  0.7814 -1.9601
  154MOL   H14021866   0.091   4.806   2.387 -4.0356 -1.5229  1.8509
  154MOL   H14121867   0.166   4.833   2.541 -1.5904  1.9189 -1.2784
  154MOL   H14221868   0.353   4.550   2.307  0.8068  0.5018 -0.1517
  155MOL     C121869   1.579   6.238   3.365  0.0915  0.1062  0.1473
  155MOL     C221870   1.593   6.384   3.397  0.1405  0.0961  0.8687
  155MOL     O321871   1.610   6.157   3.475  0.4474 -0.1274 -0.0230
  155MOL     H421872   1.649   6.212   3.286 -0.5305  1.3000 -0.8237
  155MOL     H521873   1.698   6.391   3.426  0.1980  0.2439  0.6305
  155MOL     H621874   1.533   6.419   3.480 -1.5562 -0.4656 -0.1004
  155MOL     H721875   1.579   6.436   3.302 -1.8159  0.7388  1.5028
  155MOL     H821876   1.488   6.218   3.308  0.6809 -0.1483 -0.7238
  155MOL     C921877   1.587   6.020   3.478 -0.3111 -0.6458 -0.7950
  155MOL    C1021878   1.437   5.999   3.492 -0.0303 -0.1113 -0.1733
  155MOL    O1121879   1.630   5.951   3.364 -0.0511  0.3451  0.2809
  155MOL    H1221880   1.624   5.979   3.572 -0.7651  0.4488 -0.1247
  155MOL    H1321881   1.408   5.895   3.502 -1.4821  0.3007  0.1274
  155MOL    H1421882   1.382   6.037   3.405  0.9760 -0.1889 -0.8470
  155MOL    H1521883   1.394   6.046   3.580 -0.1892 -0.4102 -0.0906
  155MOL    C1621884   1.757   5.891   3.372  0.2972  0.1078  0.2515
  155MOL    C1721885   1.747   5.768   3.462 -0.7653  0.3361 -0.6530
  155MOL    O1821886   1.804   5.848   3.246  0.0889 -0.6555  0.1983
  155MOL    H1921887   1.827   5.961   3.418 -0.1634 -0.7209  2.2750
  155MOL    H2021888   1.835   5.703   3.468 -0.5861  0.7474  1.4711
  155MOL    H2121889   1.681   5.698   3.411  1.7450 -3.7012  1.2987
  155MOL    H2221890   1.721   5.791   3.565 -0.0778  0.2499 -0.4576
  155MOL    C2321891   1.804   5.952   3.153 -0.0041  0.2047  0.5163
  155MOL    C2421892   1.919   6.048   3.177 -0.6370  0.1483 -0.3663
  155MOL    O2521893   1.818   5.903   3.026 -0.0520  0.1406  0.2124
  155MOL    H2621894   1.711   6.008   3.164  0.8082  1.5087  0.9267
  155MOL    H2721895   1.922   6.125   3.100 -0.8155  1.1278  0.5760
  155MOL    H2821896   2.018   6.002   3.183 -1.4579 -1.4928  0.9967
  155MOL    H2921897   1.902   6.100   3.272  2.6439  0.6102  0.0559
  155MOL    C3021898   1.701   5.837   2.982 -0.0720 -0.7898  0.2828
  155MOL    C3121899   1.621   5.942   2.910  0.0968  0.1328  0.0658
  155MOL    O3221900   1.722   5.740   2.885 -0.3093  0.2713 -0.9575
  155MOL    H3321901   1.639   5.807   3.066  0.9503 -0.0765  1.3094
  155MOL    H3421902   1.675   5.977   2.821  0.3602  1.1802  0.6332
  155MOL    H3521903   1.592   6.018   2.982  0.2585  0.0810  0.1848
  155MOL    H3621904   1.519   5.906   2.897 -0.5969  1.8506  0.6183
  155MOL    C3721905   1.777   5.623   2.940  0.1883  0.6128 -0.6131
  155MOL    C3821906   1.668   5.523   2.952 -0.5766  0.3635 -0.0134
  155MOL    O3921907   1.868   5.568   2.853 -0.1367 -0.3552 -0.1549
  155MOL    H4021908   1.829   5.628   3.035  1.1191  2.2181 -1.1891
  155MOL    H4121909   1.616   5.496   2.860 -0.6352  0.2488  0.0530
  155MOL    H4221910   1.598   5.536   3.034 -1.5705  1.5297 -1.0193
  155MOL    H4321911   1.721   5.430   2.975  0.3046  0.9326  0.2670
  155MOL    C4421912   1.996   5.615   2.856  0.2014 -0.1342 -0.0802
  155MOL    C4521913   2.076   5.512   2.944  0.3178 -0.2927 -0.2424
  155MOL    O4621914   2.051   5.614   2.728  0.0761  0.3639 -0.1003
  155MOL    H4721915   1.994   5.711   2.907 -0.8098 -0.2922  0.1970
  155MOL    H4821916   2.180   5.537   2.962  0.3971 -0.9173  0.1636
  155MOL    H4921917   2.082   5.410   2.906 -0.2710 -0.4622  0.1212
  155MOL    H5021918   2.032   5.510   3.043  2.4484  1.3485  0.7517
  155MOL    C5121919   1.994   5.715   2.649 -0.1849 -0.3455  0.6680
  155MOL    C5221920   2.120   5.791   2.607  0.2257  0.1012 -0.0682
  155MOL    O5321921   1.936   5.661   2.534  0.4232  0.6010 -0.7781
  155MOL    H5421922   1.923   5.776   2.704  1.2290  2.0223 -0.0566
  155MOL    H5521923   2.104   5.862   2.526  0.4731  1.0178  0.6621
  155MOL    H5621924   2.202   5.726   2.579  1.7232  1.9315 -0.0265
  155MOL    H5721925   2.161   5.849   2.690 -1.5948  0.0034  0.9457
  155MOL    C5821926   1.812   5.712   2.495 -0.4649  0.4230  0.5142
  155MOL    C5921927   1.827   5.802   2.379  0.3411 -0.1529  0.5681
  155MOL    O6021928   1.729   5.614   2.441 -0.2372  0.6173  0.1029
  155MOL    H6121929   1.770   5.783   2.567  0.1823 -0.7137  2.0354
  155MOL    H6221930   1.889   5.888   2.406  0.3616  0.2274 -0.6756
  155MOL    H6321931   1.730   5.823   2.334  0.0788 -0.1689  1.1128
  155MOL    H6421932   1.878   5.752   2.297  0.3361 -0.2562  0.6266
  155MOL    C6521933   1.660   5.532   2.526 -0.3011  0.1704  0.1567
  155MOL    C6621934   1.512   5.540   2.496  0.3753 -0.1205 -0.0359
  155MOL    O6721935   1.691   5.400   2.491  0.7465 -0.3900  0.2004
  155MOL    H6821936   1.677   5.560   2.629  0.7658 -0.7449  0.2382
  155MOL    H6921937   1.452   5.461   2.542 -1.2308  1.1319  0.0634
  155MOL    H7021938   1.498   5.528   2.389 -3.3841  0.3090  0.3570
  155MOL    H7121939   1.470   5.638   2.517 -1.1690 -0.5091 -1.1700
  155MOL    C7221940   1.795   5.343   2.560  0.7709 -0.4657  0.0372
  155MOL    C7321941   1.732   5.248   2.665  0.1693  0.1371  0.0630
  155MOL    O7421942   1.860   5.256   2.477  0.1575 -0.0219  0.3698
  155MOL    H7521943   1.852   5.420   2.612  0.9827  0.2525 -1.2183
  155MOL    H7621944   1.650   5.290   2.724  0.4819 -0.3873  0.8797
  155MOL    H7721945   1.814   5.209   2.726  2.8071  0.4769 -3.1391
  155MOL    H7821946   1.687   5.160   2.619  0.6904 -1.0908  1.8296
  155MOL    C7921947   1.967   5.314   2.411 -0.1060 -0.0924 -0.8510
  155MOL    C8021948   2.090   5.260   2.478  0.0903 -0.5189 -0.1931
  155MOL    O8121949   1.960   5.271   2.281 -0.1074 -0.4177 -0.2975
  155MOL    H8221950   1.969   5.423   2.417  0.5938 -0.1546  0.0941
  155MOL    H8321951   2.077   5.154   2.499  0.8797 -0.2609  1.7358
  155MOL    H8421952   2.123   5.313   2.568 -3.4670  1.6336 -0.0888
  155MOL    H8521953   2.165   5.260   2.399 -2.0744  0.3047 -2.3158
  155MOL    C8621954   1.876   5.351   2.208 -0.5770  0.1755  0.9407
  155MOL    C8721955   1.975   5.416   2.103 -0.4753 -0.4449  0.2036
  155MOL    O8821956   1.799   5.261   2.127 -0.3185 -1.0421  0.2609
  155MOL    H8921957   1.817   5.427   2.259 -2.7545 -0.0745 -1.1669
  155MOL    H9021958   1.918   5.480   2.035 -1.8551 -1.3189  0.5253
  155MOL    H9121959   2.026   5.337   2.049 -0.9058 -0.2864 -0.4385
  155MOL    H9221960   2.035   5.498   2.144 -0.2237 -0.6546  0.2521
  155MOL    C9321961   1.685   5.209   2.196 -0.0087  0.4127 -0.2930
  155MOL    C9421962   1.561   5.258   2.123 -0.1453 -0.0654  0.0076
  155MOL    O9521963   1.676   5.068   2.190 -0.1793  0.2931  0.0376
  155MOL    H9621964   1.679   5.253   2.296 -1.0174  2.7895 -1.3609
  155MOL    H9721965   1.471   5.236   2.179  0.0926  0.8850  0.7821
  155MOL    H9821966   1.562   5.222   2.020  0.3517  0.3957 -0.1577
  155MOL    H9921967   1.576   5.366   2.110 -0.6252 -0.1711 -1.4745
  155MOL   C10021968   1.769   4.995   2.263 -0.2254  0.4924  0.1784
  155MOL   C10121969   1.691   4.900   2.349  0.3673  0.2084 -0.1939
  155MOL   O10221970   1.849   4.913   2.185  0.1013 -0.2458  0.0505
  155MOL   H10321971   1.838   5.053   2.325  0.3972  0.3924 -0.4192
  155MOL   H10421972   1.633   4.840   2.279 -1.9444 -0.2709  2.0748
  155MOL   H10521973   1.620   4.949   2.415  0.1347  1.6187 -1.4549
  155MOL   H10621974   1.764   4.841   2.405  0.0866  1.0943  1.1435
  155MOL   C10721975   1.956   4.973   2.119 -0.7329 -0.1514  1.0235
  155MOL   C10821976   2.087   4.918   2.176  0.0513  0.5247 -0.6479
  155MOL   O10921977   1.959   4.930   1.988 -0.2898  0.2813 -0.4587
  155MOL   H11021978   1.953   5.082   2.117  0.1825 -0.1593 -2.0624
  155MOL   H11121979   2.079   4.809   2.170 -2.2657  0.6243  0.1941
  155MOL   H11221980   2.122   4.948   2.275  1.3738  3.3075 -1.9074
  155MOL   H11321981   2.165   4.963   2.115  1.0217 -0.2669  0.0015
  155MOL   C11421982   1.861   4.987   1.907  0.7566 -0.0771 -0.2583
  155MOL   C11521983   1.952   5.075   1.823  0.0437  0.0584  0.0899
  155MOL   O11621984   1.816   4.886   1.820  0.0491  0.2417  0.8311
  155MOL   H11721985   1.781   5.034   1.963 -1.0487  0.0287 -2.8252
  155MOL   H11821986   1.961   5.170   1.875 -1.6144 -0.0724  0.6525
  155MOL   H11921987   1.898   5.089   1.730  1.8969 -1.5536 -1.2689
  155MOL   H12021988   2.047   5.022   1.813 -0.1148 -0.2468  0.2075
  155MOL   C12121989   1.753   4.783   1.884  0.2715 -0.0293 -0.0511
  155MOL   C12221990   1.597   4.789   1.859 -0.2167 -0.5440 -0.0635
  155MOL   O12321991   1.798   4.658   1.834  0.4190  0.7952  0.5394
  155MOL   H12421992   1.764   4.776   1.992 -0.1389  1.1892  0.0748
  155MOL   H12521993   1.544   4.848   1.933 -1.9601  0.3036 -1.9175
  155MOL   H12621994   1.558   4.688   1.878 -1.8333  0.1871  0.5968
  155MOL   H12721995   1.580   4.812   1.754 -0.4044 -1.8126 -0.3255
  155MOL   C12821996   1.935   4.633   1.851  0.0176  0.0895  0.6081
  155MOL   C12921997   1.938   4.535   1.973  0.2572  0.4370  0.1726
  155MOL   O13021998   1.990   4.568   1.738 -0.0601 -0.4167  0.1249
  155MOL   H13121999   1.985   4.728   1.868 -1.0224  0.5305  1.2133
  155MOL   H13222000   2.045   4.520   1.990  0.1857  2.3923  2.5271
  155MOL   H13322001   1.888   4.442   1.945  0.3166  0.6284 -0.5796
  155MOL   H13422002   1.883   4.584   2.053 -0.3496  0.6676 -0.3834
  155MOL   C13522003   1.990   4.649   1.618  0.1186  0.1230  0.5382
  155MOL   C13622004   2.073   4.577   1.512  0.6619 -0.3655 -0.3823
  155MOL   O13722005   1.858   4.671   1.575  0.0261  0.1921  0.0204
  155MOL   H13822006   2.033   4.749   1.611  1.3883 -0.4992 -0.8339
  155MOL   H13922007   2.174   4.554   1.545 -0.3054 -2.9113  0.9340
  155MOL   H14022008   2.087   4.641   1.424  0.3215  0.4151  0.1227
  155MOL   H14122009   2.029   4.481   1.484  0.8017  0.0236 -1.9831
  155MOL   H14222010   1.810   4.669   1.657 -0.5050 -4.0392 -0.2781
  156MOL     C122011   0.894   2.818   1.191 -0.6609 -0.2153  0.3475
  156MOL     C222012   0.741   2.799   1.218 -0.6443  0.0710  0.1855
  156MOL     O322013   0.936   2.938   1.254 -0.0421  0.4176  0.0509
  156MOL     H422014   0.905   2.837   1.084 -1.5995  1.5128  0.5455
  156MOL     H522015   0.703   2.703   1.184  2.5053 -1.2532  0.2535
  156MOL     H622016   0.678   2.873   1.168 -0.3255  0.4914  0.4021
  156MOL     H722017   0.720   2.803   1.325  0.8029 -4.5153  0.7575
  156MOL     H822018   0.970   2.742   1.209 -0.3877  0.4252  1.9432
  156MOL     C922019   1.063   2.985   1.224 -0.0305 -0.2477  0.3937
  156MOL    C1022020   1.076   3.120   1.292  0.8009 -0.3446  0.9659
  156MOL    O1122021   1.153   2.893   1.275  0.1700  0.1902 -0.0769
  156MOL    H1222022   1.060   2.990   1.115 -0.7964 -0.9451  0.3764
  156MOL    H1322023   0.993   3.186   1.265  1.2967 -0.0448  0.1445
  156MOL    H1422024   1.166   3.173   1.261 -0.4396  0.9721 -0.4663
  156MOL    H1522025   1.083   3.108   1.400 -0.4490 -2.0685  0.8691
  156MOL    C1622026   1.271   2.886   1.203 -0.2133 -0.1128  0.0586
  156MOL    C1722027   1.379   2.802   1.276  0.2761  0.5181 -0.2114
  156MOL    O1822028   1.257   2.832   1.078  0.8346 -0.0819  0.0705
  156MOL    H1922029   1.319   2.984   1.201 -3.2922  1.4533  0.6842
  156MOL    H2022030   1.353   2.696   1.276  1.6964  0.1394 -1.9430
  156MOL    H2122031   1.390   2.839   1.378 -0.8040 -1.2478  0.5648
  156MOL    H2222032   1.482   2.822   1.245  0.5992  2.3796  1.9520
  156MOL    C2322033   1.318   2.904   0.974 -0.2471  0.0991 -0.5888
  156MOL    C2422034   1.257   2.839   0.855 -0.5596  0.1468 -0.2346
  156MOL    O2522035   1.271   3.040   0.973  0.2480 -0.4568  0.3174
  156MOL    H2622036   1.427   2.896   0.981 -0.0254  3.0311  0.0131
  156MOL    H2722037   1.295   2.890   0.766  0.9242 -0.2511  0.1734
  156MOL    H2822038   1.148   2.828   0.862 -0.4922 -2.0563 -1.8979
  156MOL    H2922039   1.293   2.737   0.848  1.2817  0.7894 -0.4341
  156MOL    C3022040   1.361   3.133   0.924 -0.1145 -1.0600 -0.6419
  156MOL    C3122041   1.285   3.267   0.932  0.3402  0.0168  0.7607
  156MOL    O3222042   1.475   3.149   1.010 -0.5273  0.1052 -0.3648
  156MOL    H3322043   1.393   3.126   0.820  0.7624 -1.8138 -0.3297
  156MOL    H3422044   1.254   3.276   1.037  0.0829  0.1026  0.6783
  156MOL    H3522045   1.193   3.263   0.874 -1.0090 -0.6824  2.8683
  156MOL    H3622046   1.355   3.348   0.914  0.4817 -0.3607 -0.3936
  156MOL    C3722047   1.598   3.142   0.939  0.1812 -0.0297  0.0253
  156MOL    C3822048   1.712   3.175   1.040  0.2129 -1.2401 -1.0737
  156MOL    O3922049   1.620   3.011   0.895 -0.0170 -0.5110 -0.1231
  156MOL    H4022050   1.597   3.220   0.863 -0.9750 -0.4277 -0.3796
  156MOL    H4122051   1.717   3.108   1.126  0.1709  1.2087  0.8819
  156MOL    H4222052   1.696   3.273   1.085  1.4454 -3.0054  3.4837
  156MOL    H4322053   1.810   3.166   0.994  0.6889 -2.1909  0.0882
  156MOL    C4422054   1.659   3.005   0.760  0.1651 -0.5561  0.7662
  156MOL    C4522055   1.743   2.880   0.736  0.0745  0.0522 -1.0724
  156MOL    O4622056   1.542   3.002   0.688  0.1072  0.1123 -0.3912
  156MOL    H4722057   1.724   3.087   0.731  1.4601 -2.0575 -0.6845
  156MOL    H4822058   1.834   2.897   0.794  1.2307  0.0987 -2.8291
  156MOL    H4922059   1.775   2.852   0.635 -0.0909  2.1878 -1.7576
  156MOL    H5022060   1.689   2.794   0.774 -0.0210  0.6988  0.2509
  156MOL    C5122061   1.538   3.086   0.585  0.4127 -0.0972  0.3949
  156MOL    C5222062   1.415   3.031   0.509 -0.2227 -0.2932 -0.6173
  156MOL    O5322063   1.491   3.212   0.623 -0.5232  0.2678 -0.7929
  156MOL    H5422064   1.630   3.087   0.525  0.2821  0.2349  0.2038
  156MOL    H5522065   1.433   2.935   0.461  0.4124 -1.0532  1.0786
  156MOL    H5622066   1.399   3.103   0.429 -0.3691 -0.0119 -0.3361
  156MOL    H5722067   1.321   3.033   0.563  0.1764  1.8108  0.0560
  156MOL    C5822068   1.573   3.311   0.574 -0.4249 -0.1569  0.3565
  156MOL    C5922069   1.508   3.448   0.606  0.4119 -0.0424 -0.5976
  156MOL    O6022070   1.700   3.310   0.635 -0.2140 -0.9109 -0.0328
  156MOL    H6122071   1.586   3.301   0.467 -3.5618 -0.9667  0.0166
  156MOL    H6222072   1.489   3.443   0.713  0.4195  1.7249 -0.5111
  156MOL    H6322073   1.414   3.467   0.553 -0.8111 -2.0248  0.7829
  156MOL    H6422074   1.579   3.525   0.580 -0.5854  1.7233  1.7096
  156MOL    C6522075   1.808   3.317   0.546  0.7011 -0.9064 -0.1931
  156MOL    C6622076   1.936   3.339   0.623 -0.8722  0.1375 -0.1576
  156MOL    O6722077   1.828   3.188   0.481  0.0737  0.1151 -0.2688
  156MOL    H6822078   1.797   3.394   0.470  2.3414 -0.3617  0.1210
  156MOL    H6922079   1.933   3.436   0.672 -0.9174  0.6939 -1.2339
  156MOL    H7022080   2.021   3.339   0.554 -1.7805 -1.6479 -1.3373
  156MOL    H7122081   1.960   3.257   0.691 -0.7999 -0.3769 -0.7938
  156MOL    C7222082   1.816   3.191   0.339 -0.0712 -0.1855  0.4732
  156MOL    C7322083   1.868   3.053   0.300 -0.2784  0.8278  0.5172
  156MOL    O7422084   1.689   3.199   0.289 -0.5381  0.0354  0.7034
  156MOL    H7522085   1.887   3.266   0.304  1.0709 -1.6098 -0.3099
  156MOL    H7622086   1.806   2.982   0.354  1.1524  1.3772  2.9603
  156MOL    H7722087   1.971   3.043   0.332 -0.7367  0.7882  2.0153
  156MOL    H7822088   1.859   3.051   0.192 -1.0534  1.5382  0.5620
  156MOL    C7922089   1.662   3.290   0.191  0.4818 -0.4765 -0.3225
  156MOL    C8022090   1.531   3.254   0.125 -0.2978 -0.2014 -0.2541
  156MOL    O8122091   1.645   3.420   0.249 -0.0273 -0.0929 -0.0800
  156MOL    H8222092   1.737   3.273   0.114 -0.3543 -1.2121 -0.9857
  156MOL    H8322093   1.445   3.271   0.191  0.4952 -0.1580  0.7866
  156MOL    H8422094   1.531   3.146   0.106  0.7306 -0.2344 -0.0675
  156MOL    H8522095   1.517   3.314   0.036  0.3887 -0.8862 -0.8292
  156MOL    C8622096   1.665   3.531   0.165 -0.7072 -0.6035  0.5610
  156MOL    C8722097   1.608   3.650   0.231 -0.9168 -0.3116  0.7009
  156MOL    O8822098   1.802   3.553   0.157  0.0850 -0.4797 -0.1020
  156MOL    H8922099   1.619   3.513   0.068 -0.5407  1.4388  0.0923
  156MOL    H9022100   1.634   3.741   0.177 -0.9486 -0.8236 -0.1826
  156MOL    H9122101   1.634   3.651   0.337 -0.5893  0.1133  0.6188
  156MOL    H9222102   1.500   3.639   0.229 -1.1025  1.3708  0.9002
  156MOL    C9322103   1.859   3.570   0.030  0.2524 -0.5143 -1.0483
  156MOL    C9422104   2.004   3.625   0.048 -0.0917 -0.5099 -0.4201
  156MOL    O9522105   1.877   3.446   7.870  0.2539 -0.3565 -0.3444
  156MOL    H9622106   1.802   3.643   7.885 -0.4351 -1.5287 -1.6417
  156MOL    H9722107   2.046   3.636   7.862 -0.1951  4.0419 -0.0691
  156MOL    H9822108   2.067   3.572   0.120  1.0383 -0.3770 -1.2966
  156MOL    H9922109   1.993   3.726   0.087 -0.7175 -1.3443  1.6455
  156MOL   C10022110   1.825   3.443   7.739  0.1541 -0.0403 -0.4030
  156MOL   C10122111   1.901   3.324   7.678 -0.6189 -0.6681  0.4283
  156MOL   O10222112   1.697   3.404   7.747  0.1805 -0.2826  0.3042
  156MOL   H10322113   1.850   3.535   7.687 -1.4766  1.2490  1.0481
  156MOL   H10422114   1.867   3.285   7.582 -0.7512 -0.8890  0.5644
  156MOL   H10522115   1.913   3.240   7.747  3.0429  0.8043  1.6891
  156MOL   H10622116   1.993   3.379   7.660 -0.3886 -1.3473 -0.5144
  156MOL   C10722117   1.606   3.488   7.673  0.0542  0.1144 -0.1060
  156MOL   C10822118   1.476   3.407   7.681 -0.4215 -0.2217 -0.1900
  156MOL   O10922119   1.600   3.607   7.744 -0.2227  0.6480  0.0477
  156MOL   H11022120   1.647   3.502   7.573  0.9544 -0.8149  0.1233
  156MOL   H11122121   1.489   3.302   7.653  0.5282  0.0799 -0.8781
  156MOL   H11222122   1.406   3.457   7.614 -3.1128 -3.6840 -0.1517
  156MOL   H11322123   1.440   3.411   7.784  0.6800 -1.7121  0.2790
  156MOL   C11422124   1.559   3.717   7.669 -1.1187  0.1909  0.0922
  156MOL   C11522125   1.449   3.787   7.745 -0.2992  0.0120  0.6262
  156MOL   O11622126   1.666   3.815   7.664 -0.3855 -0.2588 -0.1103
  156MOL   H11722127   1.513   3.702   7.571  1.8726 -3.2750 -0.9066
  156MOL   H11822128   1.377   3.710   7.774 -3.1278  1.9124 -1.0058
  156MOL   H11922129   1.404   3.865   7.683  1.6751 -0.2682 -1.2225
  156MOL   H12022130   1.497   3.835   7.830  0.8874  0.1056 -0.0909
  156MOL   C12122131   1.742   3.815   7.552 -0.6696 -0.0553 -0.0276
  156MOL   C12222132   1.852   3.924   7.571 -0.4298  0.5012 -0.2331
  156MOL   O12322133   1.801   3.699   7.526 -0.5469 -0.6459 -0.3392
  156MOL   H12422134   1.677   3.833   7.467  0.3611  0.5672 -0.6947
  156MOL   H12522135   1.888   3.936   7.673  0.9849  2.7346 -0.9554
  156MOL   H12622136   1.811   4.024   7.554 -0.8640  0.3447 -0.1084
  156MOL   H12722137   1.942   3.904   7.513  0.5207  0.4224  1.2465
  156MOL   C12822138   1.838   3.675   7.394  0.0320  0.2427  0.2378
  156MOL   C12922139   1.947   3.571   7.391  0.2075 -0.0360 -0.8101
  156MOL   O13022140   1.735   3.622   7.322  0.1261  0.2280  0.1566
  156MOL   H13122141   1.881   3.765   7.350 -3.2267  2.2425  1.0190
  156MOL   H13222142   1.956   3.510   7.301  0.7524  0.2734 -0.9656
  156MOL   H13322143   1.932   3.502   7.474  1.5296  2.3344  1.4826
  156MOL   H13422144   2.044   3.617   7.411  1.4128 -2.6090 -0.4262
  156MOL   C13522145   1.719   3.678   7.194 -0.4712  0.1637 -0.2630
  156MOL   C13622146   1.599   3.600   7.125 -0.4011  0.2480  0.2946
  156MOL   O13722147   1.681   3.819   7.197  0.3938 -0.3371  0.1427
  156MOL   H13822148   1.813   3.674   7.138  0.3231 -0.5646  1.0999
  156MOL   H13922149   1.516   3.577   7.193 -0.8353  2.2609  0.4716
  156MOL   H14022150   1.648   3.510   7.086  0.6465 -0.8347  3.8957
  156MOL   H14122151   1.571   3.667   7.045  0.9113  0.8845  0.3516
  156MOL   H14222152   1.594   3.826   7.232  0.0746  0.3432 -0.7610
  157MOL     C122153   7.330   4.969   1.732 -0.6093  0.1475 -0.6941
  157MOL     C222154   7.179   5.017   1.751  0.4504  0.2716  0.4096
  157MOL     O322155   7.350   4.848   1.655 -0.2248  0.0235  0.4738
  157MOL     H422156   7.384   4.977   1.826 -0.8079  0.5448 -0.6116
  157MOL     H522157   7.120   4.935   1.792  2.6626 -0.0974  3.0147
  157MOL     H622158   7.149   5.043   1.649  2.2868  0.1850 -0.1834
  157MOL     H722159   7.179   5.101   1.820  2.3166  1.6201 -1.1794
  157MOL     H822160   7.380   5.043   1.670  0.2895  1.4579  1.5578
  157MOL     C922161   7.333   4.732   1.728 -0.9050  0.1809  0.2506
  157MOL    C1022162   7.212   4.659   1.680 -0.2082 -0.0441 -0.3635
  157MOL    O1122163   7.438   4.642   1.707 -0.5452 -0.3427  0.5164
  157MOL    H1222164   7.326   4.761   1.833  1.1993  2.0695 -0.0949
  157MOL    H1322165   7.234   4.604   1.588  2.9574 -1.0697  0.9345
  157MOL    H1422166   7.134   4.734   1.665  0.2406  0.4148 -0.4137
  157MOL    H1522167   7.186   4.580   1.750 -0.3059  1.5098  1.3657
  157MOL    C1622168   7.560   4.696   1.739 -0.0627 -0.3885 -0.1872
  157MOL    C1722169   7.617   4.612   1.853 -0.1361  0.0323 -0.4699
  157MOL    O1822170   7.645   4.691   1.632 -0.5553  0.4539 -0.2059
  157MOL    H1922171   7.554   4.796   1.782  1.9075 -0.1321 -0.4738
  157MOL    H2022172   7.546   4.592   1.933  1.1116  0.8236  0.8545
  157MOL    H2122173   7.715   4.651   1.882 -0.0480  0.7315 -1.6833
  157MOL    H2222174   7.643   4.516   1.808 -0.1266 -0.4327  0.5174
  157MOL    C2322175   7.644   4.800   1.539  1.3567  0.2007  0.8313
  157MOL    C2422176   7.780   4.856   1.540 -0.9891 -0.2563  0.1749
  157MOL    O2522177   7.610   4.760   1.411 -0.4972  0.1629  0.3205
  157MOL    H2622178   7.579   4.881   1.571  0.2861  0.2752 -1.3934
  157MOL    H2722179   7.825   4.859   1.639 -0.1490  1.2072 -0.2380
  157MOL    H2822180   7.789   4.957   1.499 -0.0930  0.2456  1.5818
  157MOL    H2922181   7.843   4.791   1.480  1.5729  0.9823  1.4344
  157MOL    C3022182   7.488   4.693   1.389 -0.4818 -0.0133  0.0348
  157MOL    C3122183   7.382   4.797   1.353  0.1277  0.3063 -0.3380
  157MOL    O3222184   7.493   4.606   1.283 -0.5698  0.1934  0.4007
  157MOL    H3322185   7.463   4.640   1.481  0.2850  0.0925  0.3054
  157MOL    H3422186   7.285   4.752   1.374  0.4618 -0.0166  0.5516
  157MOL    H3522187   7.393   4.815   1.246 -1.3936  0.0499 -0.5363
  157MOL    H3622188   7.394   4.886   1.414 -0.1016 -0.9166  1.5135
  157MOL    C3722189   7.580   4.505   1.308 -0.4778  0.0299 -0.4634
  157MOL    C3822190   7.497   4.375   1.304  0.1906  0.3636 -0.1120
  157MOL    O3922191   7.661   4.494   1.194  0.2900 -0.0030 -0.0617
  157MOL    H4022192   7.640   4.506   1.399  2.4094  1.6535 -2.3170
  157MOL    H4122193   7.570   4.301   1.339  0.8817  0.8426 -0.5386
  157MOL    H4222194   7.456   4.361   1.204  1.5014  1.3158 -0.7977
  157MOL    H4322195   7.412   4.386   1.372  0.3084 -0.6890  0.2136
  157MOL    C4422196   7.765   4.586   1.184  0.1579  0.3488  0.2427
  157MOL    C4522197   7.886   4.527   1.244  0.0283 -0.6730 -0.6845
  157MOL    O4622198   7.792   4.622   1.049  0.1438  0.1529 -0.3887
  157MOL    H4722199   7.738   4.676   1.240 -0.6569  1.0334 -1.2300
  157MOL    H4822200   0.055   4.593   1.218  0.1137 -0.7675 -0.6476
  157MOL    H4922201   7.902   4.429   1.200 -0.3499  0.0523 -2.4900
  157MOL    H5022202   7.874   4.518   1.352 -1.6923 -0.4890 -0.8449
  157MOL    C5122203   7.695   4.695   0.986  0.3521 -0.7459 -0.5839
  157MOL    C5222204   7.717   4.841   1.020 -0.1535  1.7488 -0.3433
  157MOL    O5322205   7.710   4.681   0.852 -0.1955  0.0491  0.1940
  157MOL    H5422206   7.596   4.660   1.015  1.3590 -1.4660  2.1863
  157MOL    H5522207   7.705   4.864   1.126  0.3533  2.0404 -0.3464
  157MOL    H5622208   7.661   4.906   0.952 -1.5340  0.1373 -0.7603
  157MOL    H5722209   7.823   4.854   0.996  0.6197 -1.1998  1.1838
  157MOL    C5822210   7.688   4.541   0.812 -0.7495  0.0973  0.2910
  157MOL    C5922211   7.552   4.520   0.755  0.5966  0.4683  0.1272
  157MOL    O6022212   7.776   4.505   0.712 -0.6935  0.3271  0.1303
  157MOL    H6122213   7.687   4.476   0.900  1.1592  1.4968  1.3735
  157MOL    H6222214   7.491   4.536   0.845 -0.9475 -2.4375 -0.3587
  157MOL    H6322215   7.543   4.417   0.722 -0.9897 -0.1465  2.3298
  157MOL    H6422216   7.520   4.590   0.678  0.4778  0.4354  0.1475
  157MOL    C6522217   7.912   4.487   0.753  0.6105  0.3865  0.0346
  157MOL    C6622218   0.047   4.348   0.734  0.2769  0.2273  0.1596
  157MOL    O6722219   0.093   4.566   0.681  0.3165 -0.1592 -0.4303
  157MOL    H6822220   0.012   4.514   0.858  0.1808  1.8461 -0.2721
  157MOL    H6922221   0.022   4.303   0.638  0.1985 -0.7485  0.6296
  157MOL    H7022222   7.907   4.299   0.815 -0.1563  0.2851 -0.0898
  157MOL    H7122223   0.153   4.333   0.754  0.1576  0.0345  0.6468
  157MOL    C7222224   0.108   4.694   0.731  0.0400  0.1589 -0.3276
  157MOL    C7322225   0.256   4.695   0.775  0.6210  0.0360  0.5097
  157MOL    O7422226   0.094   4.788   0.632  0.1511 -0.6772  0.1245
  157MOL    H7522227   0.041   4.705   0.816  1.7316  0.5544  0.9973
  157MOL    H7622228   0.270   4.645   0.871 -1.7297 -0.1358  0.8078
  157MOL    H7722229   0.293   4.798   0.773 -1.9787  1.0111 -1.9855
  157MOL    H7822230   0.301   4.639   0.693 -0.0021  2.0008 -1.2184
  157MOL    C7922231   7.877   4.829   0.613  0.1904 -0.0795 -0.0964
  157MOL    C8022232   7.849   4.943   0.712 -0.3200  0.6770 -0.1934
  157MOL    O8122233   7.858   4.880   0.481  0.0602 -0.0472 -0.2988
  157MOL    H8222234   7.809   4.745   0.627 -1.9061  2.0190  3.0494
  157MOL    H8322235   7.901   4.926   0.806  0.5871  3.1703 -0.2151
  157MOL    H8422236   7.742   4.959   0.731 -0.1418  0.2256  1.1754
  157MOL    H8522237   7.882   5.037   0.668 -0.2276  0.5339 -0.4328
  157MOL    C8622238   7.843   4.787   0.380 -0.2597 -0.5634  0.3784
  157MOL    C8722239   7.695   4.765   0.362  0.7261 -0.5027 -0.2674
  157MOL    O8822240   7.910   4.827   0.265 -0.2595  0.6683 -0.2688
  157MOL    H8922241   7.884   4.695   0.422 -0.7030 -0.4963  0.9714
  157MOL    H9022242   7.655   4.865   0.348 -0.0682 -0.8305 -0.4101
  157MOL    H9122243   7.657   4.734   0.460  0.8582  1.6320  0.4823
  157MOL    H9222244   7.670   4.701   0.277 -0.6625  0.5635 -0.6849
  157MOL    C9322245   0.136   4.821   0.271 -0.5442 -0.3851  0.4724
  157MOL    C9422246   0.185   4.714   0.176  0.4632 -0.1219  0.2541
  157MOL    O9522247   0.189   4.945   0.233  0.2636  0.0941 -0.1291
  157MOL    H9622248   0.175   4.794   0.369 -0.2447 -2.0653 -0.0847
  157MOL    H9722249   0.292   4.723   0.161  0.4010 -0.5369 -0.4554
  157MOL    H9822250   0.132   4.720   0.081 -0.0253 -3.6538  0.2215
  157MOL    H9922251   0.160   4.621   0.227 -1.1068  0.1707  0.0403
  157MOL   C10022252   0.216   5.030   0.343  0.6385 -0.0698  0.0000
  157MOL   C10122253   0.362   5.031   0.370  0.1266 -0.5356 -0.6763
  157MOL   O10222254   0.174   5.164   0.313 -0.0333  0.1183 -0.0065
  157MOL   H10322255   0.153   5.000   0.427 -0.3777 -2.1669 -1.4808
  157MOL   H10422256   0.386   5.078   0.466  1.3683 -1.3610 -0.5788
  157MOL   H10522257   0.407   5.095   0.295 -1.3581  0.7683 -0.4893
  157MOL   H10622258   0.397   4.928   0.365 -0.2962 -0.6541 -1.2668
  157MOL   C10722259   0.037   5.191   0.335 -0.3914 -0.0910 -0.1265
  157MOL   C10822260   0.022   5.294   0.450 -1.1896 -0.3934  0.1259
  157MOL   O10922261   7.885   5.243   0.219  0.3260  0.4479 -0.2361
  157MOL   H11022262   7.887   5.106   0.356  2.6930 -2.2558  0.7984
  157MOL   H11122263   0.084   5.248   0.528  0.9612  0.2352 -1.1634
  157MOL   H11222264   7.836   5.327   0.477 -0.8112  0.6411  0.2909
  157MOL   H11322265   0.072   5.385   0.416  0.3659 -1.9804 -1.9625
  157MOL   C11422266   7.868   5.147   0.114  0.1087  0.0653 -0.5063
  157MOL   C11522267   7.718   5.135   0.101  0.5319  0.2272  0.0922
  157MOL   O11622268   7.908   5.196   7.902 -0.3632  0.1137  0.6497
  157MOL   H11722269   7.912   5.048   0.122  1.1683  0.4961 -0.9922
  157MOL   H11822270   7.690   5.058   0.029 -0.3406 -1.8955  2.6016
  157MOL   H11922271   7.666   5.226   0.070  1.1405 -0.2332 -2.4034
  157MOL   H12022272   7.679   5.103   0.198  0.2910 -0.1776 -0.1362
  157MOL   C12122273   0.137   5.206   7.895  0.5371 -0.1130  0.4035
  157MOL   C12222274   0.188   5.108   7.786  0.4221 -0.0073  0.1261
  157MOL   O12322275   0.170   5.337   7.851  0.0858 -0.0956  0.5491
  157MOL   H12422276   0.193   5.185   0.072  1.1009 -0.1686  0.0454
  157MOL   H12522277   0.151   5.116   7.684  0.3960  0.9981  0.2148
  157MOL   H12622278   0.154   5.010   7.820 -2.0534  1.8835  3.4340
  157MOL   H12722279   0.297   5.099   7.793  0.4811  1.5292  1.3348
  157MOL   C12822280   0.174   5.433   0.035 -0.3602  0.4514  0.3179
  157MOL   C12922281   0.322   5.479   0.051 -0.2251  0.2921  0.4315
  157MOL   O13022282   0.105   5.548   7.908  0.2298  0.0751 -0.1569
  157MOL   H13122283   0.146   5.388   0.130  0.6538 -0.9256 -0.0090
  157MOL   H13222284   0.379   5.407   0.110 -0.3556  0.6895  1.0494
  157MOL   H13322285   0.323   5.576   0.102 -0.5160  0.2761  0.4641
  157MOL   H13422286   0.357   5.501   7.864  2.9311 -2.0891  0.9006
  157MOL   C13522287   7.887   5.546   0.043 -0.3526 -0.4919 -0.0818
  157MOL   C13622288   7.834   5.695   0.050 -0.0262  0.6896  0.4589
  157MOL   O13722289   7.803   5.474   7.871 -0.0796 -0.0459 -0.7001
  157MOL   H13822290   7.872   5.509   0.144 -0.3981  0.3584  0.2246
  157MOL   H13922291   7.740   5.698   0.105 -1.0411  0.8467 -1.2412
  157MOL   H14022292   7.818   5.727   7.861  1.1405 -1.5357 -0.4661
  157MOL   H14122293   7.907   5.762   0.096  0.1782  1.6623 -1.2452
  157MOL   H14222294   7.829   5.384   7.882 -1.5501 -0.2203  1.6420
  158MOL     C122295   1.034   3.662   1.665  0.2457 -0.3398  0.0066
  158MOL     C222296   1.168   3.601   1.649 -0.6577  0.7970 -0.1999
  158MOL     O322297   1.030   3.791   1.599 -0.0250  0.4278  0.7554
  158MOL     H422298   1.021   3.676   1.773  0.3220  0.0454 -0.0323
  158MOL     H522299   1.185   3.576   1.544 -0.7171 -1.8377  0.3748
  158MOL     H622300   1.178   3.503   1.696  2.2821  0.2510 -1.8505
  158MOL     H722301   1.246   3.668   1.683  0.7660  0.8582 -3.4223
  158MOL     H822302   0.947   3.603   1.637  0.0156  0.5724 -1.2359
  158MOL     C922303   0.914   3.872   1.609  0.5693 -0.6889  0.2861
  158MOL    C1022304   0.941   4.001   1.542 -0.0734 -0.4085  0.3890
  158MOL    O1122305   0.813   3.813   1.535 -0.2558 -0.9920 -0.3228
  158MOL    H1222306   0.889   3.900   1.711  0.5723 -0.7268  0.2972
  158MOL    H1322307   0.872   4.080   1.567  1.8523  1.6039 -0.4616
  158MOL    H1422308   0.948   3.990   1.433  1.9967 -1.4552  0.5807
  158MOL    H1522309   1.035   4.041   1.580 -0.1910  0.6452 -0.4258
  158MOL    C1622310   0.687   3.806   1.602 -0.2504  0.6316 -0.1432
  158MOL    C1722311   0.596   3.724   1.507 -1.0721  0.2391  1.2637
  158MOL    O1822312   0.702   3.748   1.733  0.2048  0.4132 -0.1596
  158MOL    H1922313   0.645   3.906   1.595 -1.2471  0.1649 -1.0292
  158MOL    H2022314   0.596   3.763   1.405 -0.9402 -0.9093  0.8240
  158MOL    H2122315   0.497   3.718   1.552 -1.7060  2.4742  0.2327
  158MOL    H2222316   0.641   3.625   1.507 -0.6342  0.4322  0.5194
  158MOL    C2322317   0.604   3.798   1.821 -0.1250  0.1352  0.3868
  158MOL    C2422318   0.647   3.747   1.956  0.2937  0.4762  0.7362
  158MOL    O2522319   0.611   3.939   1.833 -0.1569  0.0743  0.0768
  158MOL    H2622320   0.514   3.742   1.794 -0.1313 -0.4508  1.5999
  158MOL    H2722321   0.754   3.765   1.965  0.1973  1.5664 -0.2286
  158MOL    H2822322   0.633   3.639   1.954  0.4962  0.4599 -0.4638
  158MOL    H2922323   0.584   3.796   2.030  1.2240 -0.4025  2.1402
  158MOL    C3022324   0.491   4.012   1.836 -0.0737 -0.6570 -0.1386
  158MOL    C3122325   0.520   4.143   1.910  0.0106 -0.3885  0.4125
  158MOL    O3222326   0.454   4.049   1.707 -0.1428  0.2082 -0.0979
  158MOL    H3322327   0.423   3.940   1.883 -0.1532 -2.2053 -2.5312
  158MOL    H3422328   0.526   4.129   2.018  1.2120 -0.5885  0.3239
  158MOL    H3522329   0.439   4.214   1.894  0.0871 -0.4078 -0.0559
  158MOL    H3622330   0.613   4.182   1.870 -1.3002  0.9236 -1.4276
  158MOL    C3722331   0.325   4.018   1.680 -0.3725  0.7660  0.2828
  158MOL    C3822332   0.300   4.072   1.539 -0.1262 -0.1825 -0.8335
  158MOL    O3922333   0.308   3.873   1.672 -0.3470 -0.1107 -0.2091
  158MOL    H4022334   0.256   4.055   1.756 -2.0299 -1.1827 -0.2318
  158MOL    H4122335   0.325   4.177   1.521  0.6722 -0.1532  0.3493
  158MOL    H4222336   0.197   4.060   1.508  0.4498 -2.5942 -1.8824
  158MOL    H4322337   0.354   4.021   1.459 -2.1803  0.2407 -2.5423
  158MOL    C4422338   0.172   3.838   1.667 -0.5034  0.7608  0.3411
  158MOL    C4522339   0.159   3.682   1.659 -0.4722 -0.2475  0.0545
  158MOL    O4622340   0.119   3.875   1.794  0.4976 -0.5363  0.0726
  158MOL    H4722341   0.119   3.875   1.579  1.6940 -1.7006 -2.1221
  158MOL    H4822342   0.197   3.632   1.748  0.0424 -1.4997 -0.8499
  158MOL    H4922343   0.212   3.654   1.568  2.1391 -0.9651  1.7467
  158MOL    H5022344   0.060   3.639   1.643 -0.1630 -0.6910 -0.7350
  158MOL    C5122345   7.910   3.935   1.788  0.1050 -0.6163  0.2406
  158MOL    C5222346   7.867   3.943   1.931  0.0905  0.0927  0.1185
  158MOL    O5322347   0.011   4.053   1.732 -0.5250 -0.0865 -0.5645
  158MOL    H5422348   7.841   3.873   1.732 -1.9154  0.1586  1.8111
  158MOL    H5522349   0.006   4.012   1.998 -0.1867 -1.5872  2.1402
  158MOL    H5622350   7.865   3.844   1.977  1.1720  0.7790  1.7287
  158MOL    H5722351   7.764   3.976   1.931  0.3597  1.0017 -2.7239
  158MOL    C5822352   7.815   4.098   1.664  0.0073  0.3236  0.5438
  158MOL    C5922353   7.831   4.243   1.625  0.3557  0.0098  0.3851
  158MOL    O6022354   7.796   4.024   1.546  0.1335  0.6777  0.5791
  158MOL    H6122355   7.725   4.089   1.725  0.2711 -0.2859  0.8438
  158MOL    H6222356   0.006   4.261   1.564  1.8604 -3.1720  1.4882
  158MOL    H6322357   7.831   4.301   1.717 -0.7091  1.0040 -0.2353
  158MOL    H6422358   7.743   4.275   1.571 -0.0121 -1.5934 -0.0044
  158MOL    C6522359   7.663   3.996   1.514  0.3802 -0.8068 -0.3450
  158MOL    C6622360   7.653   4.007   1.364  0.1440 -0.1078 -0.4515
  158MOL    O6722361   7.615   3.870   1.552 -0.1787  0.2170  0.4301
  158MOL    H6822362   7.594   4.076   1.544  0.9065 -0.1991 -0.7269
  158MOL    H6922363   7.696   3.917   1.321 -0.6983  1.2959 -4.4599
  158MOL    H7022364   7.697   4.101   1.330  0.8661  0.5247  2.1036
  158MOL    H7122365   7.549   4.008   1.332 -0.8370  1.1278  2.5881
  158MOL    C7222366   7.501   3.869   1.630 -0.2508  0.1012 -1.0935
  158MOL    C7322367   7.457   3.725   1.642 -0.4853  0.5123 -0.2671
  158MOL    O7422368   7.523   3.908   1.763  0.3878 -0.7795  0.2916
  158MOL    H7522369   7.426   3.919   1.570 -0.6081 -0.9996 -1.5844
  158MOL    H7622370   7.536   3.664   1.684 -1.4588 -1.0034 -0.5707
  158MOL    H7722371   7.430   3.692   1.541 -1.1093 -0.8909  0.3366
  158MOL    H7822372   7.369   3.724   1.706  0.5526 -0.3833  1.1733
  158MOL    C7922373   7.426   3.995   1.808 -0.0957  0.0161 -0.0729
  158MOL    C8022374   7.430   3.980   1.964  0.2509 -0.7680  0.0232
  158MOL    O8122375   7.466   4.128   1.781 -0.1316  0.2378 -0.1213
  158MOL    H8222376   7.324   3.967   1.785  0.7586 -3.8537  0.5548
  158MOL    H8322377   7.521   4.016   2.012 -0.0742 -0.8101  0.6766
  158MOL    H8422378   7.410   3.875   1.985 -0.8804 -0.4234  0.7441
  158MOL    H8522379   7.344   4.034   2.002  0.9157  0.5027 -0.2586
  158MOL    C8622380   7.369   4.202   1.711  0.8637 -0.1450  0.0621
  158MOL    C8722381   7.415   4.350   1.693  0.6691  0.6439  0.0453
  158MOL    O8822382   7.351   4.163   1.579 -0.8534 -0.0810  0.0261
  158MOL    H8922383   7.281   4.201   1.776  2.7475  0.9145  2.6858
  158MOL    H9022384   7.429   4.394   1.792  3.4981 -0.8307  0.3549
  158MOL    H9122385   7.335   4.396   1.635  1.2340 -0.6000 -1.7608
  158MOL    H9222386   7.506   4.364   1.633  0.6322  1.6787  0.2104
  158MOL    C9322387   7.221   4.140   1.531  0.3367 -0.1648  0.0799
  158MOL    C9422388   7.225   4.100   1.380 -0.7011 -0.7671  0.0598
  158MOL    O9522389   7.151   4.045   1.606 -0.5597 -0.0468 -0.0772
  158MOL    H9622390   7.180   4.241   1.538  1.6765  0.2098  3.7673
  158MOL    H9722391   7.288   4.167   1.320 -2.3062 -0.6312 -1.5352
  158MOL    H9822392   7.124   4.101   1.340 -0.5365  0.4749 -0.3571
  158MOL    H9922393   7.273   4.003   1.369 -0.0723 -0.6870  1.9488
  158MOL   C10022394   7.025   4.092   1.641  0.2257  0.3455 -0.9235
  158MOL   C10122395   6.939   3.969   1.681  0.2796  0.0418 -0.1093
  158MOL   O10222396   7.033   4.177   1.748 -0.0197  0.4350  0.4288
  158MOL   H10322397   6.978   4.139   1.555 -1.0872  0.1268 -0.3301
  158MOL   H10422398   6.836   3.994   1.703  0.5754  0.6375  0.6058
  158MOL   H10522399   6.983   3.923   1.770 -1.1236  0.0895  0.6222
  158MOL   H10622400   6.949   3.899   1.598 -0.7258  0.9613 -1.0151
  158MOL   C10722401   6.947   4.286   1.736  0.5355  0.3130 -0.3575
  158MOL   C10822402   6.936   4.360   1.878 -0.1803  0.1429 -0.0674
  158MOL   O10922403   7.000   4.381   1.644  0.4402  0.2812  0.4674
  158MOL   H11022404   6.846   4.254   1.710  1.2264 -0.1660 -2.5436
  158MOL   H11122405   6.852   4.429   1.887 -0.2999 -0.3395  3.2699
  158MOL   H11222406   7.026   4.414   1.906 -1.5374  0.9367  2.9531
  158MOL   H11322407   6.917   4.274   1.943  1.4113 -0.3625 -0.2543
  158MOL   C11422408   6.903   4.428   1.551  0.3178 -0.1932 -0.2062
  158MOL   C11522409   6.934   4.572   1.507  0.8915  0.1827 -0.5477
  158MOL   O11622410   6.902   4.342   1.439  0.5099  0.1546 -0.3220
  158MOL   H11722411   6.806   4.430   1.601  0.0185 -1.7247 -0.6776
  158MOL   H11822412   6.871   4.593   1.420 -1.0843 -3.4857 -0.0945
  158MOL   H11922413   7.033   4.592   1.465  1.1406  0.2993  0.0811
  158MOL   H12022414   6.922   4.650   1.582 -1.7902 -0.0364 -0.6982
  158MOL   C12122415   6.779   4.323   1.374  0.8032  0.1758  0.3959
  158MOL   C12222416   6.812   4.240   1.243  0.1976 -0.3419 -0.2260
  158MOL   O12322417   6.702   4.244   1.454  0.4198  0.2247  0.0010
  158MOL   H12422418   6.728   4.413   1.341 -0.8456 -1.1540 -0.7166
  158MOL   H12522419   6.852   4.306   1.166  0.9183 -1.1859 -0.5776
  158MOL   H12622420   6.714   4.217   1.200 -0.1004  0.1714  0.1739
  158MOL   H12722421   6.870   4.150   1.261  0.5902  0.1145  0.8369
  158MOL   C12822422   6.576   4.291   1.484  0.3776 -0.7628  0.8055
  158MOL   C12922423   6.519   4.205   1.600  0.0596  0.3211 -0.8982
  158MOL   O13022424   6.562   4.425   1.523  0.8642 -0.6573 -0.2331
  158MOL   H13122425   6.511   4.274   1.398  0.2137 -0.0282  0.7758
  158MOL   H13222426   6.593   4.214   1.680 -1.7142  0.3437  0.7673
  158MOL   H13322427   6.504   4.103   1.563  1.1077 -0.1441 -0.0692
  158MOL   H13422428   6.427   4.250   1.637  1.4537  1.9684  0.6473
  158MOL   C13522429   6.499   4.510   1.438 -0.2949  0.3374  0.3409
  158MOL   C13622430   6.345   4.512   1.462  0.1194 -0.2917  0.2688
  158MOL   O13722431   6.551   4.635   1.454 -0.5270 -0.1846 -0.2111
  158MOL   H13822432   6.527   4.470   1.341 -0.1077 -1.4717  1.1099
  158MOL   H13922433   6.316   4.561   1.556 -1.1811  0.2029 -0.3736
  158MOL   H14022434   6.299   4.414   1.453  0.2163 -0.4054  1.0034
  158MOL   H14122435   6.305   4.564   1.375 -2.1069 -0.2213  1.2969
  158MOL   H14222436   6.540   4.663   1.543  1.7155  3.7682 -1.0585
  159MOL     C122437   3.015   6.747   2.547 -0.1429 -0.4990  0.5052
  159MOL     C222438   3.131   6.843   2.580  0.0838  0.3608 -1.0178
  159MOL     O322439   2.893   6.791   2.609 -0.0038  0.3134  0.3123
  159MOL     H422440   3.035   6.642   2.568 -0.9768 -0.3518  2.1501
  159MOL     H522441   3.138   6.867   2.686 -1.6248  0.2511 -0.8695
  159MOL     H622442   3.105   6.941   2.540 -0.1885 -0.4189 -2.8015
  159MOL     H722443   3.230   6.821   2.540  1.0382  2.1055  0.2885
  159MOL     H822444   3.006   6.752   2.439  1.0770  1.7813  0.4738
  159MOL     C922445   2.785   6.792   2.519  0.2319 -0.1051 -0.2168
  159MOL    C1022446   2.654   6.822   2.591  0.3321  0.2638  0.5374
  159MOL    O1122447   2.801   6.885   2.416 -0.0653 -0.6043  0.1003
  159MOL    H1222448   2.786   6.691   2.479 -0.2055 -0.7446  1.3306
  159MOL    H1322449   2.661   6.914   2.650 -2.3142 -0.2996  1.7738
  159MOL    H1422450   2.628   6.737   2.653  1.9567 -0.1117  0.7201
  159MOL    H1522451   2.574   6.839   2.520 -0.1911  0.4742  1.1749
  159MOL    C1622452   2.744   6.857   2.286  0.7944  0.2117 -0.5577
  159MOL    C1722453   2.713   6.985   2.200 -0.2182 -0.4384 -0.0764
  159MOL    O1822454   2.834   6.779   2.223  0.1809  0.3425  0.5027
  159MOL    H1922455   2.654   6.801   2.310  0.3129  0.7931 -0.9983
  159MOL    H2022456   2.663   6.956   2.107 -1.0905  2.8462 -0.6995
  159MOL    H2122457   2.802   7.045   2.181  0.0231 -0.9186 -0.4657
  159MOL    H2222458   2.649   7.063   2.241 -1.1105 -1.0637 -0.2744
  159MOL    C2322459   2.777   6.694   2.132 -0.4849  0.0896  0.9070
  159MOL    C2422460   2.888   6.630   2.051  0.1263  0.4071  0.2650
  159MOL    O2522461   2.700   6.592   2.184 -0.0011  0.1469  0.1887
  159MOL    H2622462   2.723   6.753   2.058  3.0746 -1.5556 -3.2135
  159MOL    H2722463   2.950   6.567   2.114  0.2085  1.5737  1.3561
  159MOL    H2822464   2.958   6.709   2.022  0.8020 -0.2265  0.1379
  159MOL    H2922465   2.858   6.568   1.966  0.6067  2.8086 -1.7100
  159MOL    C3022466   2.572   6.592   2.120  0.7727  0.2989  0.6161
  159MOL    C3122467   2.491   6.477   2.184 -0.2140 -0.2663  0.4009
  159MOL    O3222468   2.499   6.712   2.147 -0.0195  0.2583 -0.1581
  159MOL    H3322469   2.580   6.578   2.013 -0.9116  2.5913  0.1348
  159MOL    H3422470   2.386   6.488   2.155 -0.3475 -1.5054  0.3678
  159MOL    H3522471   2.503   6.482   2.292  0.1972 -0.2164  0.3515
  159MOL    H3622472   2.530   6.383   2.146  0.1934  0.4975 -1.0854
  159MOL    C3722473   2.403   6.747   2.046  1.0732  0.7160  0.0657
  159MOL    C3822474   2.311   6.850   2.109  0.2734 -0.3463 -0.0674
  159MOL    O3922475   2.460   6.791   1.928  0.0192  0.2364 -0.0563
  159MOL    H4022476   2.334   6.664   2.032 -0.7348  2.1060  0.6443
  159MOL    H4122477   2.274   6.808   2.203 -0.6866 -2.1112 -1.2231
  159MOL    H4222478   2.223   6.874   2.050  0.5936  1.6844  0.2331
  159MOL    H4322479   2.361   6.946   2.122 -2.7236  1.1552  0.8042
  159MOL    C4422480   2.403   6.738   1.811 -0.0207 -0.3607  0.2836
  159MOL    C4522481   2.421   6.844   1.705  0.0315  0.5926  0.6861
  159MOL    O4622482   2.485   6.635   1.770 -0.3829 -0.3914  0.0594
  159MOL    H4722483   2.299   6.716   1.836  0.5328 -0.8341  2.2357
  159MOL    H4822484   2.393   6.946   1.731 -1.9602  0.1644  0.3223
  159MOL    H4922485   2.358   6.819   1.620 -1.6878 -1.2363  2.4146
  159MOL    H5022486   2.525   6.840   1.675 -0.3541 -0.8078 -0.4991
  159MOL    C5122487   2.429   6.508   1.750 -0.1806  0.1008  0.4839
  159MOL    C5222488   2.537   6.407   1.717 -0.1691 -0.6670  0.1957
  159MOL    O5322489   2.357   6.461   1.867 -0.6470  0.2612  0.2066
  159MOL    H5422490   2.353   6.510   1.671 -1.4504 -1.0917  1.6441
  159MOL    H5522491   2.574   6.431   1.618  0.0216  0.5913  0.5567
  159MOL    H5622492   2.480   6.315   1.706  0.1473 -0.8888  0.4089
  159MOL    H5722493   2.611   6.406   1.798 -2.0285 -0.2488  1.9494
  159MOL    C5822494   2.225   6.430   1.845  0.3123 -0.1223  0.0153
  159MOL    C5922495   2.176   6.339   1.955 -0.2846  0.0354  0.8210
  159MOL    O6022496   2.144   6.543   1.858 -0.4057 -0.1303  0.1739
  159MOL    H6122497   2.211   6.367   1.757 -1.5640  1.4985 -0.9040
  159MOL    H6222498   2.172   6.379   2.056 -0.6765  2.8232 -0.2512
  159MOL    H6322499   2.232   6.245   1.953  0.4219  0.4303  1.7634
  159MOL    H6422500   2.073   6.315   1.931 -0.3849  1.7172 -0.5113
  159MOL    C6522501   2.066   6.561   1.741 -0.1406  0.4462 -1.0579
  159MOL    C6622502   1.964   6.667   1.772 -0.3935  0.0332 -0.3320
  159MOL    O6722503   2.151   6.613   1.639  0.8397 -0.3464 -0.9074
  159MOL    H6822504   2.016   6.464   1.735 -0.2307  0.4433 -0.3150
  159MOL    H6922505   1.885   6.668   1.697  0.4962 -1.7650 -1.3130
  159MOL    H7022506   2.026   6.757   1.773 -0.7744  0.3092 -0.9434
  159MOL    H7122507   1.924   6.652   1.872  0.5278  0.9203  0.1911
  159MOL    C7222508   2.100   6.552   1.516  0.1636  0.0535  0.1677
  159MOL    C7322509   2.126   6.650   1.396  0.5104  0.3028 -1.2098
  159MOL    O7422510   2.169   6.434   1.480  1.0893 -0.3474  0.3372
  159MOL    H7522511   1.991   6.546   1.518  0.1050  0.6445 -0.8076
  159MOL    H7622512   2.069   6.742   1.409 -0.2922 -0.4760  1.0517
  159MOL    H7722513   2.091   6.598   1.307  0.7785 -2.2996  0.1331
  159MOL    H7822514   2.233   6.669   1.398  0.1436  2.6999 -2.9446
  159MOL    C7922515   2.086   6.327   1.449  0.6507  0.4066 -1.0208
  159MOL    C8022516   2.172   6.218   1.383 -0.1894  0.5304  0.6492
  159MOL    O8122517   2.033   6.278   1.569 -0.4815  0.2993  0.2197
  159MOL    H8222518   2.005   6.354   1.382 -2.4601 -0.1708  2.3795
  159MOL    H8322519   2.274   6.213   1.423  0.6221 -1.3723 -1.5035
  159MOL    H8422520   2.183   6.249   1.279  0.2041  3.4837  1.5344
  159MOL    H8522521   2.125   6.120   1.380  0.2785  0.3234 -0.5159
  159MOL    C8622522   1.902   6.241   1.551 -0.2213 -0.1414 -0.0050
  159MOL    C8722523   1.873   6.153   1.671  0.5039 -0.0809 -0.1970
  159MOL    O8822524   1.827   6.354   1.555  0.8818 -0.3813 -0.1051
  159MOL    H8922525   1.895   6.173   1.466  0.8700 -0.5902  0.2709
  159MOL    H9022526   1.764   6.144   1.679  0.3537  0.7299 -1.1871
  159MOL    H9122527   1.917   6.185   1.765  0.0300  0.1479 -0.0494
  159MOL    H9222528   1.905   6.052   1.647  1.7834  0.3210 -0.2269
  159MOL    C9322529   1.729   6.361   1.462 -0.7369 -0.2462  0.3177
  159MOL    C9422530   1.621   6.463   1.511 -0.5127 -0.0262  0.1533
  159MOL    O9522531   1.780   6.408   1.338  0.7076  0.4835 -0.5445
  159MOL    H9622532   1.686   6.262   1.450 -0.3706 -0.1708 -1.8362
  159MOL    H9722533   1.678   6.556   1.519  0.1425 -0.2476 -1.6711
  159MOL    H9822534   1.574   6.419   1.599 -1.3579 -1.2014 -0.8687
  159MOL    H9922535   1.545   6.474   1.434 -0.5860  3.4570  0.6297
  159MOL   C10022536   1.757   6.326   1.235 -0.5861  0.2910 -0.0519
  159MOL   C10122537   1.784   6.400   1.097 -0.3875 -0.2312 -0.3434
  159MOL   O10222538   1.845   6.214   1.237  0.1131 -0.2026 -0.2686
  159MOL   H10322539   1.650   6.308   1.235 -0.6181  0.4008 -1.5696
  159MOL   H10422540   1.755   6.335   1.015 -0.5329 -0.0421 -0.4439
  159MOL   H10522541   1.889   6.427   1.099 -0.8409  1.7178 -1.2604
  159MOL   H10622542   1.726   6.492   1.086 -0.3948 -0.2939 -0.8135
  159MOL   C10722543   1.775   6.095   1.211  0.1228  0.4165  0.0616
  159MOL   C10822544   1.884   5.991   1.170 -0.0543 -0.2170  0.3745
  159MOL   O10922545   1.723   6.041   1.325  0.8815  0.0402 -0.1217
  159MOL   H11022546   1.710   6.111   1.125  1.1719  0.2706 -0.7582
  159MOL   H11122547   1.937   5.977   1.264  0.2096  0.3835  0.3167
  159MOL   H11222548   1.945   6.032   1.090  1.0305 -1.4852  0.5415
  159MOL   H11322549   1.845   5.895   1.138  1.0458  0.2101 -2.3806
  159MOL   C11422550   1.600   5.985   1.325  0.2287 -0.3129 -0.0462
  159MOL   C11522551   1.573   5.915   1.461  0.4519 -0.0395  0.4511
  159MOL   O11622552   1.505   6.092   1.326 -0.6047  0.0862  0.3698
  159MOL   H11722553   1.592   5.921   1.237  0.0747  0.8453 -0.8866
  159MOL   H11822554   1.473   5.870   1.460 -0.0832  1.0970 -2.0089
  159MOL   H11922555   1.590   5.986   1.541 -0.0115  2.4196 -1.5679
  159MOL   H12022556   1.645   5.837   1.483  1.0646  0.0254 -1.2137
  159MOL   C12122557   1.420   6.090   1.208 -0.5143 -0.0983  0.1991
  159MOL   C12222558   1.299   6.183   1.232 -0.0944 -0.6095  0.9295
  159MOL   O12322559   1.491   6.142   1.106  0.0880  0.9139 -0.7345
  159MOL   H12422560   1.385   5.987   1.195 -2.2869  0.2966  1.7668
  159MOL   H12522561   1.246   6.141   1.318 -1.3998 -2.3013 -0.6447
  159MOL   H12622562   1.232   6.179   1.146  0.9288 -2.0356  0.1738
  159MOL   H12722563   1.338   6.282   1.254  0.7763 -0.5960 -0.6218
  159MOL   C12822564   1.460   6.082   0.984 -0.2994 -0.1271  0.2991
  159MOL   C12922565   1.547   6.141   0.874  0.0491  0.0430 -0.2349
  159MOL   O13022566   1.481   5.944   0.982 -0.0892 -0.4950 -0.6561
  159MOL   H13122567   1.357   6.103   0.956 -0.1278 -1.6186 -1.5806
  159MOL   H13222568   1.652   6.135   0.903  0.0002  0.3786  0.0103
  159MOL   H13322569   1.520   6.244   0.852 -1.0754 -0.0548  0.6230
  159MOL   H13422570   1.539   6.082   0.783  1.4646 -1.4738  0.6089
  159MOL   C13522571   1.383   5.873   0.916  0.5091 -0.1472 -0.0930
  159MOL   C13622572   1.423   5.735   0.874 -0.6243  0.0584  0.0777
  159MOL   O13722573   1.280   5.851   0.999 -0.0664  0.0622 -0.1087
  159MOL   H13822574   1.342   5.932   0.834  0.3985  2.8964  2.0434
  159MOL   H13922575   1.504   5.737   0.802 -0.3298 -1.1418  0.3563
  159MOL   H14022576   1.338   5.688   0.823 -0.8905  1.2591 -0.5923
  159MOL   H14122577   1.451   5.670   0.956 -3.2281 -1.5551 -0.2425
  159MOL   H14222578   1.201   5.861   0.949  0.4188 -0.2132 -0.9467
  160MOL     C122579   2.504   0.415   1.486  0.9399 -0.1246 -0.3156
  160MOL     C222580   2.372   0.336   1.464  0.2974 -0.2222  0.0410
  160MOL     O322581   2.611   0.325   1.512 -0.1486  0.7221 -0.0702
  160MOL     H422582   2.469   0.484   1.563 -1.5058 -2.0485  0.3586
  160MOL     H522583   2.295   0.390   1.408  0.4705 -1.0994 -1.0637
  160MOL     H622584   2.332   0.306   1.561  0.1060  3.0411  1.0376
  160MOL     H722585   2.405   0.244   1.417  0.3129  0.4919 -1.3522
  160MOL     H822586   2.537   0.484   1.409  0.6200  2.7607  2.0418
  160MOL     C922587   2.725   0.377   1.572  0.1907 -0.9866  0.2312
  160MOL    C1022588   2.707   0.341   1.717 -0.2266  0.1309 -0.5089
  160MOL    O1122589   2.832   0.306   1.525 -0.0703  0.6068 -0.0011
  160MOL    H1222590   2.737   0.484   1.553  2.0277 -1.8567 -3.9067
  160MOL    H1322591   2.698   0.232   1.722 -0.1081  0.1614  0.4399
  160MOL    H1422592   2.609   0.373   1.751 -0.1810 -0.0377 -0.2174
  160MOL    H1522593   2.787   0.377   1.781 -2.1392  0.9518  1.4740
  160MOL    C1622594   2.897   0.358   1.412 -0.2249 -0.9952 -0.2471
  160MOL    C1722595   2.999   0.458   1.448 -0.1989 -0.2640 -0.4578
  160MOL    O1822596   2.962   0.257   1.344  0.8194  0.2966 -0.1175
  160MOL    H1922597   2.823   0.403   1.346  1.9036  1.3812 -1.1017
  160MOL    H2022598   2.957   0.532   1.516 -0.3321  1.6103 -2.5286
  160MOL    H2122599   3.057   0.507   1.370 -0.3382  1.2709  0.3820
  160MOL    H2222600   3.074   0.405   1.507 -0.1700  1.6727  1.3093
  160MOL    C2322601   2.893   0.199   1.238  0.4958  0.5138 -0.0615
  160MOL    C2422602   2.938   0.270   1.113  0.2861 -0.4847  0.4010
  160MOL    O2522603   2.924   0.066   1.217 -0.2558  0.0384  0.3854
  160MOL    H2622604   2.785   0.191   1.247  0.0841  1.0079 -3.7459
  160MOL    H2722605   2.920   0.214   1.021  0.5416 -0.5556  0.3940
  160MOL    H2822606   3.047   0.278   1.120  0.2698 -0.1761  0.3327
  160MOL    H2922607   2.899   0.372   1.109 -0.1109 -0.6607 -0.1351
  160MOL    C3022608   2.890   7.902   1.325 -0.5469 -0.2611 -0.6723
  160MOL    C3122609   2.771   7.807   1.298  0.5062 -0.2092  0.1628
  160MOL    O3222610   2.992   7.815   1.366 -0.0393  0.1325  0.0303
  160MOL    H3322611   2.868   0.045   1.415  0.3139  0.7384 -1.0792
  160MOL    H3422612   2.793   7.737   1.217  1.8901  0.7908 -0.3392
  160MOL    H3522613   2.684   7.861   1.261 -0.8550 -1.8585  0.8349
  160MOL    H3622614   2.729   7.774   1.394 -2.7372  2.6544 -0.1568
  160MOL    C3722615   3.082   7.867   1.455  0.5063  0.1516 -0.3939
  160MOL    C3822616   3.068   7.798   1.587 -1.1630 -0.7263 -0.4009
  160MOL    O3922617   3.207   7.847   1.410  0.3517 -0.3222  0.2130
  160MOL    H4022618   3.072   0.062   1.453  0.4311  0.1318 -1.8165
  160MOL    H4122619   3.124   7.858   1.660 -0.5200 -1.3056 -0.4133
  160MOL    H4222620   3.100   7.695   1.577 -1.8857 -1.0027  0.1557
  160MOL    H4322621   2.962   7.803   1.610 -0.8353  2.2333  0.7504
  160MOL    C4422622   3.240   7.912   1.293  0.4040  0.3287  0.1003
  160MOL    C4522623   3.344   0.102   1.325  0.3209  0.0696 -0.3284
  160MOL    O4622624   3.294   7.811   1.205  0.2795  0.3812  0.2785
  160MOL    H4722625   3.164   0.046   1.232  0.5390  0.2809 -0.1069
  160MOL    H4822626   3.306   0.165   1.405  0.3203  1.2062 -1.2058
  160MOL    H4922627   3.350   0.186   1.256 -2.6720  0.7483  0.1614
  160MOL    H5022628   3.441   0.071   1.363 -0.6137  1.4921  3.4866
  160MOL    C5122629   3.203   7.752   1.127  0.3200  0.4249 -0.0465
  160MOL    C5222630   3.212   7.818   0.990  0.0602 -0.4695 -0.3381
  160MOL    O5322631   3.226   7.614   1.122  0.2195  0.3468  0.4333
  160MOL    H5422632   3.101   7.770   1.163  1.0141  1.5988  1.4030
  160MOL    H5522633   3.206   0.013   0.991  0.8654 -0.4091  2.6078
  160MOL    H5622634   3.135   7.772   0.929 -0.1247  0.8360 -1.1069
  160MOL    H5722635   3.306   7.782   0.946 -0.0636  1.5324 -2.3240
  160MOL    C5822636   3.185   7.544   1.236  0.3419  0.1165  0.4218
  160MOL    C5922637   3.040   7.488   1.222  0.2160  1.0993 -0.4843
  160MOL    O6022638   3.265   7.435   1.250 -0.5228  0.6245  0.0519
  160MOL    H6122639   3.187   7.616   1.318 -0.8152  0.6457  0.0101
  160MOL    H6222640   2.968   7.569   1.209 -2.4535 -0.8767  1.5173
  160MOL    H6322641   3.012   7.444   1.317  1.2984 -0.1329 -0.7189
  160MOL    H6422642   3.041   7.410   1.146 -0.9528  0.3126  0.2884
  160MOL    C6522643   3.297   7.408   1.384  0.5575 -0.1541 -0.1646
  160MOL    C6622644   3.275   7.260   1.406 -0.0043 -0.6208 -0.5631
  160MOL    O6722645   3.431   7.437   1.412  0.3947 -0.1400 -0.5587
  160MOL    H6822646   3.224   7.461   1.445 -0.0218 -0.1651 -0.8430
  160MOL    H6922647   3.287   7.236   1.512 -0.1545  0.0364 -0.3954
  160MOL    H7022648   3.348   7.205   1.347 -0.9470 -2.7848  0.2159
  160MOL    H7122649   3.174   7.248   1.367 -0.5954 -0.9022  0.9970
  160MOL    C7222650   3.451   7.570   1.448 -1.2787 -0.8694  0.0017
  160MOL    C7322651   3.446   7.570   1.597 -0.3139  0.1250 -0.6555
  160MOL    O7422652   3.583   7.608   1.415 -0.5331  0.7917  0.1047
  160MOL    H7522653   3.379   7.646   1.415 -1.0206 -0.8742 -0.5762
  160MOL    H7622654   3.526   7.505   1.632  0.2553  1.6070  0.8658
  160MOL    H7722655   3.351   7.533   1.635 -0.7015  2.0477  0.3114
  160MOL    H7822656   3.472   7.666   1.642 -1.1855 -0.7566  1.8108
  160MOL    C7922657   3.596   7.680   1.291 -0.3658 -0.1457  0.0980
  160MOL    C8022658   3.656   7.813   1.338 -0.2181 -0.6378  0.8099
  160MOL    O8122659   3.684   7.617   1.210 -0.5416  0.1228 -0.3902
  160MOL    H8222660   3.499   7.693   1.242 -0.1926  1.5556  0.2043
  160MOL    H8322661   3.762   7.804   1.362  0.0275 -0.4755 -0.2104
  160MOL    H8422662   3.601   7.841   1.429  1.7819  1.6808  1.3642
  160MOL    H8522663   3.654   7.892   1.263  0.1940 -1.3773  0.0086
  160MOL    C8622664   3.628   7.532   1.118 -0.1300 -0.3137 -0.3692
  160MOL    C8722665   3.616   7.593   0.975 -0.0093  0.1173  0.6444
  160MOL    O8822666   3.711   7.425   1.110  0.1699  0.1531 -0.2225
  160MOL    H8922667   3.534   7.492   1.156 -0.0468  0.1291  0.3058
  160MOL    H9022668   3.716   7.619   0.938 -0.8607  2.1577 -0.3019
  160MOL    H9122669   3.548   7.678   0.970  1.7519  1.4601 -1.4233
  160MOL    H9222670   3.579   7.511   0.914 -1.1032  0.1545  1.2529
  160MOL    C9322671   3.694   7.331   1.216 -1.0362 -0.2195  0.4280
  160MOL    C9422672   3.624   7.209   1.165  0.5762 -0.2793  0.0684
  160MOL    O9522673   3.820   7.293   1.272 -0.1537 -0.7802  0.0384
  160MOL    H9622674   3.636   7.371   1.299  0.5124 -1.5663  2.2118
  160MOL    H9722675   3.647   7.131   1.238 -0.3331  1.8644  2.7345
  160MOL    H9822676   3.662   7.181   1.067  1.1002  0.3144  0.0966
  160MOL    H9922677   3.516   7.213   1.160  0.5044 -2.8770 -1.1898
  160MOL   C10022678   3.871   7.376   1.369 -0.1292 -0.3717  0.0832
  160MOL   C10122679   3.878   7.295   1.501 -0.1129  0.8511 -0.3153
  160MOL   O10222680   4.004   7.403   1.343  0.1170 -0.5200  0.5007
  160MOL   H10322681   3.823   7.470   1.398 -0.5928 -0.3273 -0.8266
  160MOL   H10422682   3.785   7.255   1.542  1.4505 -2.6872 -0.0721
  160MOL   H10522683   3.911   7.355   1.585 -0.7308 -0.4077  0.8367
  160MOL   H10622684   3.938   7.204   1.498 -0.6447  0.3866  2.1749
  160MOL   C10722685   4.027   7.518   1.264  0.6558  0.4340 -0.1999
  160MOL   C10822686   4.110   7.614   1.353  0.2184 -0.0213  0.2162
  160MOL   O10922687   4.105   7.486   1.152  0.0157  0.1595  0.7720
  160MOL   H11022688   3.931   7.556   1.229  0.3098 -0.7186 -0.5476
  160MOL   H11122689   4.198   7.559   1.387 -1.0069 -2.3347 -0.2454
  160MOL   H11222690   4.044   7.644   1.434 -2.7978 -0.2849 -2.0605
  160MOL   H11322691   4.147   7.700   1.298  2.0011  0.3207  1.8957
  160MOL   C11422692   4.032   7.423   1.044 -0.3997  0.1433  0.2404
  160MOL   C11522693   4.018   7.526   0.930 -0.2041  0.5248  1.0446
  160MOL   O11622694   4.101   7.309   0.989  0.1914 -0.4464 -0.6561
  160MOL   H11722695   3.932   7.400   1.079 -0.1169 -1.0420  0.2924
  160MOL   H11822696   3.962   7.613   0.964 -0.9709  1.1637 -1.7075
  160MOL   H11922697   3.957   7.479   0.853  1.1733  2.8026 -1.5239
  160MOL   H12022698   4.118   7.556   0.899 -1.1399  2.0909 -0.5699
  160MOL   C12122699   4.064   7.186   1.044 -0.7559  0.4024 -0.0488
  160MOL   C12222700   3.986   7.101   0.933  0.4858  0.1284 -1.1035
  160MOL   O12322701   4.179   7.122   1.087  1.0456 -0.1884 -0.2296
  160MOL   H12422702   4.007   7.188   1.136  0.5284  2.0775  0.7380
  160MOL   H12522703   4.052   7.073   0.851 -0.6754 -1.4570 -1.5199
  160MOL   H12622704   3.899   7.151   0.892 -0.8712 -0.8804  0.4505
  160MOL   H12722705   3.947   7.017   0.991  1.7906 -0.2691 -0.7741
  160MOL   C12822706   4.216   7.154   1.217 -0.1977 -0.8258  0.2503
  160MOL   C12922707   4.169   7.045   1.314  0.6110 -0.3510 -0.8384
  160MOL   O13022708   4.358   7.172   1.225  0.2563 -0.1196 -0.3271
  160MOL   H13122709   4.174   7.247   1.254 -0.7777 -1.1236  0.3502
  160MOL   H13222710   4.219   6.949   1.298  2.6619  0.0676  2.5511
  160MOL   H13322711   4.061   7.041   1.304  0.5384 -0.4678 -0.0135
  160MOL   H13422712   4.189   7.081   1.415 -4.6849 -0.3755  0.3583
  160MOL   C13522713   4.396   7.296   1.165  0.7183  0.5564 -0.3531
  160MOL   C13622714   4.425   7.391   1.278  0.1499 -0.1843  0.4761
  160MOL   O13722715   4.514   7.271   1.093 -0.0167 -0.3869 -0.0637
  160MOL   H13822716   4.326   7.341   1.094 -0.2815  1.4614  1.1629
  160MOL   H13922717   4.530   7.393   1.307  0.3497  0.6522 -0.2786
  160MOL   H14022718   4.372   7.361   1.369  2.0604 -1.2256  1.2636
  160MOL   H14122719   4.406   7.495   1.251  0.9283 -0.2176 -0.1983
  160MOL   H14222720   4.505   7.189   1.046  1.1948 -1.1558  1.0030
  161MOL     C122721   5.349   7.533   7.496 -0.2036  0.0260  0.7325
  161MOL     C222722   5.351   7.605   7.363  0.0976  0.0858  0.1847
  161MOL     O322723   5.456   7.569   7.576  0.1928  0.4831 -0.0849
  161MOL     H422724   5.363   7.427   7.476  0.7211  0.8334 -3.4331
  161MOL     H522725   5.431   7.575   7.296  0.5999  0.7787  0.4729
  161MOL     H622726   5.370   7.710   7.386 -0.0595  0.4352 -1.2379
  161MOL     H722727   5.255   7.601   7.311  0.2961  1.9770 -0.3641
  161MOL     H822728   5.256   7.549   7.550 -0.3385  0.7179  0.3096
  161MOL     C922729   5.483   7.491   7.696 -0.0771 -0.4800  0.4420
  161MOL    C1022730   5.579   7.381   7.662  0.4211  0.1069  0.0080
  161MOL    O1122731   5.548   7.570   7.790 -0.3199  0.3817  0.0124
  161MOL    H1222732   5.389   7.450   7.732  0.2362 -1.3615  0.2644
  161MOL    H1322733   5.663   7.429   7.611  0.7480  2.0782  2.2911
  161MOL    H1422734   5.537   7.313   7.588  0.4485 -0.2633  0.3296
  161MOL    H1522735   5.622   7.337   7.752 -0.8601  0.2909  0.7217
  161MOL    C1622736   5.453   7.655   7.857 -0.4274 -0.0782 -0.0422
  161MOL    C1722737   5.466   7.628   0.094 -0.1258  0.2022 -0.6182
  161MOL    O1822738   5.482   7.794   7.842 -0.3545  0.2211 -1.0670
  161MOL    H1922739   5.350   7.635   7.828 -0.0400 -2.1954 -0.0081
  161MOL    H2022740   5.570   7.629   0.125  0.1983 -1.9052 -1.5596
  161MOL    H2122741   5.410   7.546   0.139 -1.4873  1.7593  0.6420
  161MOL    H2222742   5.415   7.715   0.135  1.7615  1.2986 -0.5685
  161MOL    C2322743   5.477   7.855   7.718  0.3019  0.1687  0.4204
  161MOL    C2422744   5.334   7.877   7.669 -0.6387 -0.7205  0.0947
  161MOL    O2522745   5.531   0.070   7.730 -0.7343  0.5841 -0.0890
  161MOL    H2622746   5.534   7.796   7.645  0.3441  0.8332 -0.0854
  161MOL    H2722747   5.278   7.784   7.662  0.2177 -1.3602  1.6059
  161MOL    H2822748   5.334   0.031   7.584  0.6811  1.2919  1.6471
  161MOL    H2922749   5.288   0.027   7.744  1.9732  2.2396 -0.7002
  161MOL    C3022750   5.666   0.076   7.742 -0.7376  0.3950 -0.1526
  161MOL    C3122751   5.722   0.114   7.599  0.5983 -0.2775 -0.2943
  161MOL    O3222752   5.703   0.170   7.835 -0.1674 -0.3260  0.0111
  161MOL    H3322753   5.703   7.891   7.767  1.9527  1.7093  1.2725
  161MOL    H3422754   5.829   0.134   7.599  0.8310 -1.5230  0.6620
  161MOL    H3522755   5.680   0.204   7.553 -0.5434 -0.7351 -0.1441
  161MOL    H3622756   5.691   0.041   7.524 -2.0693  0.1228  0.3609
  161MOL    C3722757   5.700   0.121   0.051  0.3446  0.2173  0.4461
  161MOL    C3822758   5.836   0.121   0.103  0.1325  0.1137  0.6469
  161MOL    O3922759   5.620   0.202   0.134  0.4429  0.3162  0.1785
  161MOL    H4022760   5.669   0.017   0.060 -0.4037  0.3715 -0.2512
  161MOL    H4122761   5.900   0.060   0.039 -0.1525 -1.0288  1.4406
  161MOL    H4222762   5.832   0.076   0.202 -0.7866  0.8244  0.9475
  161MOL    H4322763   5.870   0.222   0.123 -1.2769  0.9266 -0.8933
  161MOL    C4422764   5.482   0.177   0.128  0.1482 -0.6050 -0.1143
  161MOL    C4522765   5.440   0.078   0.240  0.0615 -0.4442 -0.1558
  161MOL    O4622766   5.418   0.297   0.152 -0.1402  0.0806  0.1327
  161MOL    H4722767   5.442   0.142   0.033  2.8529  1.8282 -2.2388
  161MOL    H4822768   5.445   0.136   0.332 -0.0011  0.4141 -0.6833
  161MOL    H4922769   5.505   7.905   0.253 -0.1086 -0.4453  0.6871
  161MOL    H5022770   5.335   0.049   0.229 -0.6142  2.2472 -1.1939
  161MOL    C5122771   5.442   0.397   0.054  0.2591 -0.0575  1.0330
  161MOL    C5222772   5.315   0.414   7.882  0.3805 -0.0497  0.0351
  161MOL    O5322773   5.474   0.524   0.105  0.4205  0.0134 -0.0563
  161MOL    H5422774   5.523   0.363   7.904  0.2356  1.4450  0.1908
  161MOL    H5522775   5.224   0.418   0.028  0.3403 -1.2280  0.0667
  161MOL    H5622776   5.315   0.331   7.810  0.8323 -0.8518  0.9489
  161MOL    H5722777   5.326   0.504   7.822 -1.4182  0.7173  0.8453
  161MOL    C5822778   5.591   0.526   0.184  0.5884  0.6065 -0.0553
  161MOL    C5922779   5.687   0.620   0.113 -0.2906  0.5604 -0.0247
  161MOL    O6022780   5.565   0.579   0.306  0.5711 -0.0620 -0.3647
  161MOL    H6122781   5.631   0.425   0.192  0.9799  0.9387  2.7974
  161MOL    H6222782   5.705   0.584   0.012  0.5808 -1.0014  0.6731
  161MOL    H6322783   5.780   0.623   0.170 -1.0509  0.2771  1.2443
  161MOL    H6422784   5.657   0.724   0.102  2.5868  1.3805 -0.5280
  161MOL    C6522785   5.491   0.490   0.393 -0.1314  0.1194 -0.3191
  161MOL    C6622786   5.586   0.443   0.503 -0.2768  0.4851  0.2570
  161MOL    O6722787   5.382   0.547   0.452  0.1293 -0.6240  0.2695
  161MOL    H6822788   5.451   0.395   0.358  1.3251 -0.2751 -0.9398
  161MOL    H6922789   5.610   0.533   0.559 -2.7850  0.6199  1.1802
  161MOL    H7022790   5.683   0.407   0.469 -0.7001  0.5177 -0.9963
  161MOL    H7122791   5.542   0.374   0.575  0.1431  1.3011  1.3053
  161MOL    C7222792   5.261   0.565   0.375 -0.6476 -0.0672 -0.2489
  161MOL    C7322793   5.157   0.470   0.439  1.0040  0.5860 -0.7573
  161MOL    O7422794   5.217   0.700   0.395  0.0735 -0.8569 -0.1327
  161MOL    H7522795   5.279   0.547   0.269 -0.3243  0.3335 -0.2657
  161MOL    H7622796   5.127   0.498   0.540  1.3222 -0.0810 -0.4719
  161MOL    H7722797   5.204   0.371   0.448  1.6466  1.0091  0.6489
  161MOL    H7822798   5.067   0.472   0.377  0.2961 -1.9266  0.0972
  161MOL    C7922799   5.288   0.796   0.329 -0.1926 -0.1029  0.0064
  161MOL    C8022800   5.256   0.794   0.180 -0.1875 -0.3219  0.5240
  161MOL    O8122801   5.245   0.916   0.378 -0.1035 -0.0986 -0.4465
  161MOL    H8222802   5.394   0.783   0.349 -0.3735 -1.2486  0.2494
  161MOL    H8322803   5.147   0.787   0.174 -0.1013 -2.0271  0.6152
  161MOL    H8422804   5.291   0.702   0.132 -1.6722 -0.9486  0.5959
  161MOL    H8522805   5.287   0.882   0.125  0.5989 -1.6173 -1.1429
  161MOL    C8622806   5.271   0.927   0.512 -0.1386 -0.7727  0.4491
  161MOL    C8722807   5.390   1.010   0.526  0.0383 -0.7474 -0.2388
  161MOL    O8822808   5.165   0.990   0.584 -0.1831 -0.2339 -0.2139
  161MOL    H8922809   5.298   0.831   0.556  3.0244 -0.2225 -0.2251
  161MOL    H9022810   5.412   1.014   0.632  1.4373 -0.1173 -0.5435
  161MOL    H9122811   5.367   1.111   0.491  0.2696 -0.0778  1.5210
  161MOL    H9222812   5.474   0.959   0.479  1.6501  1.6521 -0.0340
  161MOL    C9322813   5.048   0.916   0.572 -0.2746 -0.0016 -1.3379
  161MOL    C9422814   5.018   0.853   0.710 -0.0684 -0.3157  0.3026
  161MOL    O9522815   4.937   1.000   0.543  0.0639  0.5076 -0.2588
  161MOL    H9622816   5.047   0.838   0.497  1.3782 -1.5274  0.1855
  161MOL    H9722817   4.915   0.819   0.714  0.3051 -1.4511  0.4399
  161MOL    H9822818   5.038   0.931   0.783  0.0851  2.9481 -3.0458
  161MOL    H9922819   5.088   0.778   0.748 -1.6445 -0.9643  1.9542
  161MOL   C10022820   4.956   1.061   0.422  0.2488  0.3375  0.3107
  161MOL   C10122821   4.867   0.993   0.321 -0.3619 -0.1604 -0.2848
  161MOL   O10222822   4.911   1.195   0.435  0.1404 -0.5158 -0.2364
  161MOL   H10322823   5.061   1.066   0.392  0.4335 -0.8166  0.7420
  161MOL   H10422824   4.914   0.902   0.283  2.5384  1.5843 -1.0810
  161MOL   H10522825   4.846   1.053   0.232 -0.2358  1.9388  1.0524
  161MOL   H10622826   4.779   0.963   0.377  0.7526 -0.9792  1.0502
  161MOL   C10722827   4.993   1.273   0.518 -0.0718  0.9969  0.2615
  161MOL   C10822828   5.060   1.384   0.433 -0.7803  0.3853  0.1598
  161MOL   O10922829   4.914   1.353   0.596  0.6184 -0.4076 -0.2727
  161MOL   H11022830   5.060   1.216   0.582  0.2016  1.3592  0.2995
  161MOL   H11122831   5.123   1.337   0.358  0.0940  1.0998  0.4294
  161MOL   H11222832   5.121   1.450   0.495  2.6259 -2.8266  0.4716
  161MOL   H11322833   4.984   1.443   0.382 -1.2556 -1.3637 -1.2039
  161MOL   C11422834   4.836   1.289   0.694  0.8386 -0.1617 -0.0248
  161MOL   C11522835   4.909   1.326   0.833  0.4489 -0.0107 -0.2187
  161MOL   O11622836   4.702   1.331   0.698  0.3230 -0.3031  0.3224
  161MOL   H11722837   4.819   1.181   0.689  1.1626 -0.2217  0.1825
  161MOL   H11822838   4.844   1.287   0.911  1.4782  0.4319  0.8776
  161MOL   H11922839   4.916   1.435   0.837 -0.4342  0.0622 -0.4744
  161MOL   H12022840   5.006   1.278   0.847  0.8403  0.1767 -2.0713
  161MOL   C12122841   4.630   1.310   0.581 -0.2323  0.1775 -0.1259
  161MOL   C12222842   4.523   1.205   0.595 -0.9068 -0.6717 -0.6539
  161MOL   O12322843   4.562   1.431   0.547 -0.3543 -0.0056  0.2799
  161MOL   H12422844   4.690   1.281   0.495  0.0580  2.2873 -0.6546
  161MOL   H12522845   4.573   1.112   0.621 -1.5854 -0.9664 -0.3665
  161MOL   H12622846   4.452   1.198   0.512 -0.3249 -0.5387 -1.1600
  161MOL   H12722847   4.472   1.247   0.682  2.6543 -1.1480  1.7649
  161MOL   C12822848   4.644   1.516   0.474 -1.0451 -0.5814 -0.2274
  161MOL   C12922849   4.610   1.504   0.329  0.7809  0.0594  0.0124
  161MOL   O13022850   4.622   1.645   0.520 -0.5233  0.8785  0.8645
  161MOL   H13122851   4.753   1.506   0.478 -0.9141  1.2080  0.9006
  161MOL   H13222852   4.509   1.533   0.299  1.1882  1.9406  0.3841
  161MOL   H13322853   4.632   1.400   0.305  0.4455 -0.3328  1.3715
  161MOL   H13422854   4.669   1.576   0.273  1.4326  0.2354  0.9244
  161MOL   C13522855   4.650   1.661   0.657  0.3860  0.6769 -0.9096
  161MOL   C13622856   4.644   1.815   0.684 -0.6183 -0.2669 -0.7772
  161MOL   O13722857   4.558   1.596   0.739  0.0734 -0.2410  0.1038
  161MOL   H13822858   4.752   1.626   0.676 -0.0084 -0.5224 -0.9589
  161MOL   H13922859   4.547   1.854   0.653 -0.7345  1.4488  1.5602
  161MOL   H14022860   4.722   1.860   0.623 -1.8704  0.6615 -1.7235
  161MOL   H14122861   4.670   1.832   0.789  1.4807 -1.6488 -1.0477
  161MOL   H14222862   4.557   1.507   0.707  0.5530 -1.0578  2.3032
  162MOL     C122863   0.603   1.697   2.172 -0.2474  0.0753 -0.0472
  162MOL     C222864   0.510   1.579   2.216 -0.5949  0.6306 -0.2341
  162MOL     O322865   0.723   1.629   2.124 -0.8406 -0.7758  0.2572
  162MOL     H422866   0.609   1.776   2.247 -0.7461 -0.4401  0.5345
  162MOL     H522867   0.417   1.622   2.251 -0.8169  0.3564 -0.4860
  162MOL     H622868   0.561   1.526   2.297  1.7926  1.6765 -0.9850
  162MOL     H722869   0.494   1.511   2.132 -1.2350  0.9646 -0.3832
  162MOL     H822870   0.553   1.743   2.087 -2.6076  0.1143  1.3106
  162MOL     C922871   0.853   1.664   2.159 -0.5648  0.4233  0.8340
  162MOL    C1022872   0.880   1.806   2.112 -0.3775  0.2089  0.3210
  162MOL    O1122873   0.880   1.659   2.292  0.0601 -0.1054 -0.2258
  162MOL    H1222874   0.915   1.588   2.112  0.9376  0.3541  2.8799
  162MOL    H1322875   0.881   1.816   2.004 -0.3708 -1.1331  0.1889
  162MOL    H1422876   0.974   1.849   2.147  0.2872  0.9352 -2.2598
  162MOL    H1522877   0.812   1.882   2.151 -1.0483  0.6500 -1.6657
  162MOL    C1622878   0.882   1.542   2.362  0.0777 -0.1652 -0.2580
  162MOL    C1722879   1.024   1.488   2.349  0.8586  0.4701 -0.2289
  162MOL    O1822880   0.865   1.560   2.499  0.5765  0.5741  0.3652
  162MOL    H1922881   0.804   1.476   2.326 -0.6209 -0.1751  1.2063
  162MOL    H2022882   1.102   1.564   2.356  1.1058  0.1790  0.2579
  162MOL    H2122883   1.038   1.435   2.255  1.1175  2.1489 -1.1590
  162MOL    H2222884   1.036   1.417   2.431 -1.3228 -1.6632 -1.7261
  162MOL    C2322885   0.736   1.597   2.544 -0.0236  0.1520 -0.3291
  162MOL    C2422886   0.667   1.477   2.608 -0.2573 -0.7852 -0.1889
  162MOL    O2522887   0.747   1.698   2.631  0.0107  0.3802 -0.0738
  162MOL    H2622888   0.685   1.632   2.454  3.0288 -1.2214 -2.6940
  162MOL    H2722889   0.719   1.458   2.702  0.5473 -0.0601 -0.4808
  162MOL    H2822890   0.667   1.386   2.548 -0.5003  1.0734 -3.0794
  162MOL    H2922891   0.565   1.512   2.626  0.5000  1.2393  0.2809
  162MOL    C3022892   0.789   1.820   2.568  0.0437 -0.3319  0.1130
  162MOL    C3122893   0.657   1.896   2.562 -0.7823 -0.5489 -0.0472
  162MOL    O3222894   0.889   1.886   2.635  0.3813 -0.3535 -0.4975
  162MOL    H3322895   0.826   1.814   2.466  0.7885 -2.2008  0.4608
  162MOL    H3422896   0.581   1.844   2.503 -1.9128 -0.2849  1.1410
  162MOL    H3522897   0.683   1.996   2.527 -0.6625 -0.9781 -1.1897
  162MOL    H3622898   0.612   1.905   2.661 -1.5949 -0.3314 -0.4362
  162MOL    C3722899   1.018   1.836   2.610  0.3398  0.4102  0.0468
  162MOL    C3822900   1.097   1.947   2.547  0.4055 -0.0782 -0.0229
  162MOL    O3922901   1.080   1.809   2.733  0.0585  0.5631  0.4023
  162MOL    H4022902   1.027   1.743   2.554  1.1291 -0.6595  1.9344
  162MOL    H4122903   1.080   2.028   2.618 -1.1399  0.8078 -1.3709
  162MOL    H4222904   1.068   1.968   2.444 -1.1063  0.2394  0.4576
  162MOL    H4322905   1.204   1.924   2.553 -0.0857 -2.9035 -1.5343
  162MOL    C4422906   1.058   1.675   2.786 -0.6558 -0.0512  0.8983
  162MOL    C4522907   1.174   1.584   2.764  0.2989  0.3255 -0.0235
  162MOL    O4622908   1.033   1.677   2.926 -0.0202 -0.3734  0.4083
  162MOL    H4722909   0.977   1.625   2.734 -0.0886  0.8003 -0.8286
  162MOL    H4822910   1.210   1.567   2.662  1.3495 -0.8534  0.5275
  162MOL    H4922911   1.145   1.490   2.809 -2.8455  1.5714  0.6553
  162MOL    H5022912   1.260   1.617   2.824  0.6108 -0.3693 -0.0907
  162MOL    C5122913   0.904   1.724   2.952 -0.0369 -0.5623  0.1802
  162MOL    C5222914   0.814   1.606   2.996  0.3319  0.8356  0.5741
  162MOL    O5322915   0.897   1.812   3.059  0.1604 -0.4117  0.4497
  162MOL    H5422916   0.856   1.778   2.870 -0.9847 -1.9487 -0.2061
  162MOL    H5522917   0.848   1.559   3.089 -1.4100 -0.2374  0.6802
  162MOL    H5622918   0.817   1.525   2.924  0.1437  0.5062  0.9338
  162MOL    H5722919   0.714   1.646   3.012 -0.8935 -1.8726 -0.1754
  162MOL    C5822920   0.967   1.940   3.031 -0.1842 -0.0320 -0.1760
  162MOL    C5922921   0.851   2.042   3.021 -0.3182  0.2275  0.0458
  162MOL    O6022922   1.046   1.969   3.144  0.8887 -0.2116 -0.1858
  162MOL    H6122923   1.024   1.944   2.938 -0.4060 -1.4919 -0.3915
  162MOL    H6222924   0.801   2.013   2.929 -1.0815  0.1757  0.4793
  162MOL    H6322925   0.892   2.142   3.003  0.8038 -0.3070 -0.4487
  162MOL    H6422926   0.789   2.033   3.110 -2.4308  0.6561 -1.3388
  162MOL    C6522927   1.143   1.867   3.167  0.0270  0.0572 -0.0957
  162MOL    C6622928   1.274   1.910   3.096 -0.4555 -0.3014 -0.6961
  162MOL    O6722929   1.167   1.862   3.307 -0.2877  0.3564  0.1372
  162MOL    H6822930   1.110   1.766   3.144  2.6153 -0.3715 -2.1564
  162MOL    H6922931   1.275   1.881   2.991  1.9631  0.5929 -0.9388
  162MOL    H7022932   1.368   1.875   3.137  0.3261  0.9968 -1.3569
  162MOL    H7122933   1.276   2.019   3.099 -2.9154 -0.2146 -0.7732
  162MOL    C7222934   1.058   1.805   3.380  0.0667  0.5146 -0.0145
  162MOL    C7322935   1.095   1.651   3.405  0.5438 -0.1899  0.2822
  162MOL    O7422936   1.055   1.868   3.508 -0.0677  0.2888 -0.2744
  162MOL    H7522937   0.959   1.814   3.335 -0.0510 -0.8252 -0.0465
  162MOL    H7622938   1.101   1.600   3.308 -2.4878 -1.1653  0.5471
  162MOL    H7722939   1.034   1.597   3.477 -0.5325  1.3384  0.5355
  162MOL    H7822940   1.196   1.655   3.445  0.6653 -0.4590  0.0057
  162MOL    C7922941   1.059   2.010   3.508 -0.4255 -0.0284  0.0495
  162MOL    C8022942   0.911   2.051   3.486 -0.1242 -0.0520  0.2797
  162MOL    O8122943   1.095   2.058   3.630 -0.1162 -0.0328 -0.2182
  162MOL    H8222944   1.120   2.067   3.438 -1.6025  0.6407 -0.4423
  162MOL    H8322945   0.856   2.012   3.572  3.4565 -0.9344  2.2970
  162MOL    H8422946   0.858   2.010   3.400 -1.3491  0.1719  0.9175
  162MOL    H8522947   0.898   2.158   3.471 -0.7103 -0.3960 -1.8502
  162MOL    C8622948   1.232   2.028   3.665 -0.0961 -0.2897 -0.0018
  162MOL    C8722949   1.301   2.162   3.689 -0.2354 -0.1007  0.1894
  162MOL    O8822950   1.232   1.962   3.791  0.2486 -0.1879 -0.3124
  162MOL    H8922951   1.281   1.965   3.591 -1.2789  0.3131 -1.3169
  162MOL    H9022952   1.315   2.213   3.594 -0.4551  1.7849  1.1368
  162MOL    H9122953   1.397   2.154   3.741 -0.5915  0.4506  0.9536
  162MOL    H9222954   1.231   2.218   3.752  0.7557  1.3818  0.0220
  162MOL    C9322955   1.219   1.825   3.785  0.6634 -0.0365  0.0301
  162MOL    C9422956   1.350   1.771   3.850  0.6018 -0.1815  0.1692
  162MOL    O9522957   1.125   1.798   3.882 -0.6877 -0.2055  0.4549
  162MOL    H9622958   1.180   1.782   3.692 -0.0579 -0.6596  0.6099
  162MOL    H9722959   1.435   1.784   3.783  0.3821 -1.7210 -0.4255
  162MOL    H9822960   1.344   1.663   3.865 -2.2251 -0.1068 -0.1953
  162MOL    H9922961   1.367   1.813   3.950  0.4120 -0.6598  0.4040
  162MOL   C10022962   0.995   1.824   3.837  0.2034 -0.0128 -0.1470
  162MOL   C10122963   0.913   1.699   3.823 -0.7840 -0.3885 -0.4150
  162MOL   O10222964   0.916   1.891   3.928 -0.1609  0.1302  0.1890
  162MOL   H10322965   0.991   1.877   3.742 -1.1170  1.0377  0.4730
  162MOL   H10422966   0.812   1.732   3.797  0.3401  1.8220 -2.1419
  162MOL   H10522967   0.916   1.660   3.925  0.2897 -0.5823 -0.5174
  162MOL   H10622968   0.950   1.630   3.747 -0.5719  0.3058 -0.9413
  162MOL   C10722969   0.960   2.021   3.978 -0.0505  0.6688  0.6396
  162MOL   C10822970   0.890   2.128   3.885 -0.1062  0.3498 -0.4217
  162MOL   O10922971   0.937   2.041   4.114  0.4392  0.0011 -0.3879
  162MOL   H11022972   1.068   2.027   3.965 -0.0045 -1.1337 -0.0110
  162MOL   H11122973   0.783   2.132   3.901 -0.3892  2.5584 -2.6923
  162MOL   H11222974   0.896   2.095   3.782 -0.1455  1.1378 -0.6804
  162MOL   H11322975   0.935   2.227   3.895  3.2330 -1.0985 -0.2305
  162MOL   C11422976   1.005   1.958   4.197 -0.4992 -0.0393 -0.6416
  162MOL   C11522977   1.132   2.027   4.256  0.3189 -0.2011 -0.4743
  162MOL   O11622978   0.928   1.910   4.297  0.6091 -0.1756  0.1953
  162MOL   H11722979   1.040   1.870   4.144  0.1896 -0.2703  0.1888
  162MOL   H11822980   1.182   1.950   4.314  0.5431 -0.9431 -1.6250
  162MOL   H11922981   1.109   2.119   4.311  1.7789 -0.9556  1.4610
  162MOL   H12022982   1.201   2.052   4.174  2.4125 -0.8732  1.0465
  162MOL   C12122983   0.847   1.802   4.247 -0.3828  0.3871 -0.0258
  162MOL   C12222984   0.901   1.666   4.298  0.6135  0.5411  0.6870
  162MOL   O12322985   0.718   1.811   4.284  0.0514  0.0074  0.2358
  162MOL   H12422986   0.838   1.794   4.139 -0.2188  1.4585 -0.1190
  162MOL   H12522987   0.826   1.589   4.283  1.5280 -0.6939  2.2091
  162MOL   H12622988   0.920   1.670   4.405 -0.0426  0.5729  0.8032
  162MOL   H12722989   0.986   1.630   4.239 -3.1377 -0.7493 -4.3142
  162MOL   C12822990   0.649   1.927   4.236  0.1246 -0.3484  0.0509
  162MOL   C12922991   0.547   1.879   4.142 -0.1118  0.1154 -0.2063
  162MOL   O13022992   0.578   1.984   4.338  0.3166  0.2481  0.1722
  162MOL   H13122993   0.714   1.999   4.187  1.1027 -0.4618  1.1584
  162MOL   H13222994   0.480   1.814   4.199 -1.4361  1.5936 -0.0299
  162MOL   H13322995   0.591   1.825   4.059 -1.5352  0.1535 -1.0093
  162MOL   H13422996   0.500   1.964   4.091 -0.1480 -0.2978 -0.8595
  162MOL   C13522997   0.656   2.052   4.423  0.3860 -0.3884 -0.8933
  162MOL   C13622998   0.562   2.168   4.489  0.2682  0.1383  0.3785
  162MOL   O13722999   0.705   1.960   4.522  0.9526 -0.2986  0.4891
  162MOL   H13823000   0.739   2.100   4.371  1.6431 -0.3842  1.0525
  162MOL   H13923001   0.621   2.244   4.540  1.5725  0.0135 -0.8937
  162MOL   H14023002   0.483   2.116   4.543 -0.9340  0.4049 -1.1079
  162MOL   H14123003   0.505   2.214   4.409  2.4150  0.3897 -1.0529
  162MOL   H14223004   0.762   1.906   4.470  0.1960  0.5798 -1.3215
  163MOL     C123005   1.185   3.774   5.877 -0.1777  0.0309  0.1648
  163MOL     C223006   1.148   3.627   5.861 -0.1980 -0.7962  0.0026
  163MOL     O323007   1.246   3.805   6.001  0.7136 -0.1754 -0.2279
  163MOL     H423008   1.106   3.847   5.862 -0.9109 -0.5514  1.1237
  163MOL     H523009   1.065   3.606   5.793  0.5954 -1.0668 -0.8987
  163MOL     H623010   1.119   3.598   5.962 -0.8648 -3.2131 -0.8450
  163MOL     H723011   1.233   3.568   5.827 -0.0535 -0.4534 -0.2253
  163MOL     H823012   1.262   3.796   5.802  0.4307  0.5479  0.9387
  163MOL     C923013   1.314   3.925   6.021  0.2023  0.3859 -0.4130
  163MOL    C1023014   1.449   3.932   5.942 -0.2794  0.1607  0.3113
  163MOL    O1123015   1.235   4.040   5.994  0.5052  0.0920 -0.2658
  163MOL    H1223016   1.330   3.921   6.128  1.5590  0.6015 -0.5977
  163MOL    H1323017   1.425   3.931   5.836 -0.3474 -1.9232  0.3171
  163MOL    H1423018   1.508   3.845   5.973 -3.8998 -2.5613 -0.0138
  163MOL    H1523019   1.491   4.029   5.966 -2.2081  0.4798  2.6136
  163MOL    C1623020   1.160   4.082   6.101 -0.4359  0.7260 -0.1810
  163MOL    C1723021   1.241   4.187   6.180 -0.3033  0.2322  0.0839
  163MOL    O1823022   1.045   4.155   6.062 -0.3363 -0.4483  0.2842
  163MOL    H1923023   1.126   4.001   6.165 -0.2901 -0.0369 -1.0599
  163MOL    H2023024   1.174   4.223   6.258 -1.9986 -0.2545 -1.1005
  163MOL    H2123025   1.275   4.270   6.118 -2.5377 -0.0446 -1.5830
  163MOL    H2223026   1.324   4.148   6.237  0.3263  1.2573 -0.1225
  163MOL    C2323027   0.937   4.085   6.005 -0.0757 -0.3170 -0.7360
  163MOL    C2423028   0.829   4.078   6.108  0.2190  0.0350  0.2990
  163MOL    O2523029   0.880   4.142   5.891  0.8212 -0.4535 -0.0547
  163MOL    H2623030   0.974   3.983   5.998  0.4329 -0.1065 -1.1338
  163MOL    H2723031   0.790   4.173   6.145 -1.3764 -0.1616 -0.8270
  163MOL    H2823032   0.858   4.005   6.184 -0.0272  0.1143  0.4697
  163MOL    H2923033   0.752   4.028   6.049 -0.9614  0.9005  1.0805
  163MOL    C3023034   0.958   4.131   5.776 -0.0323  0.9175 -0.5817
  163MOL    C3123035   0.875   4.054   5.678 -0.1529 -0.0800  0.3381
  163MOL    O3223036   0.987   4.252   5.723 -0.6128  0.0783  0.4860
  163MOL    H3323037   1.050   4.073   5.786  0.6617  1.8454 -1.5237
  163MOL    H3423038   0.777   4.097   5.655 -0.3118 -0.4369  0.3576
  163MOL    H3523039   0.853   3.956   5.719 -0.0969 -1.5487 -2.9943
  163MOL    H3623040   0.920   4.042   5.579 -3.5650 -0.9656 -1.2104
  163MOL    C3723041   1.101   4.304   5.781 -0.1151  0.5782  0.3691
  163MOL    C3823042   1.222   4.286   5.686 -0.2392  0.1515 -0.0517
  163MOL    O3923043   1.089   4.444   5.787 -0.5847  0.7752 -0.5113
  163MOL    H4023044   1.123   4.263   5.880 -0.8285 -1.6003 -0.3483
  163MOL    H4123045   1.308   4.314   5.746 -1.8361  1.1418  1.8215
  163MOL    H4223046   1.221   4.345   5.595 -0.3905  0.9810  0.4820
  163MOL    H4323047   1.241   4.182   5.659  1.7763  0.7940 -1.1743
  163MOL    C4423048   0.988   4.492   5.866  0.3167  0.7454  0.5663
  163MOL    C4523049   1.070   4.557   5.979 -0.0945  0.4279  0.2477
  163MOL    O4623050   0.916   4.594   5.796  0.1352  0.3847 -0.1757
  163MOL    H4723051   0.916   4.421   5.906  0.1934 -0.8614 -2.3721
  163MOL    H4823052   1.135   4.641   5.956  0.4697  0.6606  2.5873
  163MOL    H4923053   1.123   4.482   6.037 -1.0003 -1.0664 -0.8195
  163MOL    H5023054   1.004   4.597   6.056  0.2940  0.0695  0.7596
  163MOL    C5123055   0.839   4.536   5.690 -0.5603 -0.2651  0.6797
  163MOL    C5223056   0.694   4.540   5.739  0.5496  0.1961  0.6083
  163MOL    O5323057   0.846   4.616   5.580  0.5731 -0.5125  0.2503
  163MOL    H5423058   0.862   4.433   5.661 -1.4446 -0.3439  0.2510
  163MOL    H5523059   0.678   4.480   5.829 -1.5012  1.9101  1.4448
  163MOL    H5623060   0.629   4.497   5.663  2.5450 -0.9409 -0.4831
  163MOL    H5723061   0.666   4.645   5.755 -2.0256 -0.4350  0.5026
  163MOL    C5823062   0.983   4.627   5.538  0.7477 -0.1287 -0.2738
  163MOL    C5923063   0.995   4.531   5.418 -0.0390  0.4581 -0.7746
  163MOL    O6023064   1.009   4.760   5.493 -0.0128 -0.2439  0.0223
  163MOL    H6123065   1.051   4.602   5.619 -0.7397  3.0343  2.0484
  163MOL    H6223066   0.924   4.568   5.345 -0.7005  1.0164  0.1446
  163MOL    H6323067   0.972   4.429   5.449  0.9427 -0.6890 -3.6061
  163MOL    H6423068   1.096   4.525   5.376  0.0093 -3.5411 -0.2993
  163MOL    C6523069   0.967   4.858   5.582 -0.0833 -0.0526 -0.1612
  163MOL    C6623070   1.066   4.866   5.704  0.1551  0.5961 -0.1063
  163MOL    O6723071   0.982   4.980   5.519  0.1065 -0.1973 -0.8862
  163MOL    H6823072   0.864   4.848   5.617  0.2808 -0.8438  0.7006
  163MOL    H6923073   1.056   4.782   5.773 -1.0615  0.4810 -0.4183
  163MOL    H7023074   1.044   4.961   5.752  1.0528 -0.3287  2.2406
  163MOL    H7123075   1.169   4.868   5.668  0.4279  4.9079  0.7186
  163MOL    C7223076   0.902   4.994   5.406 -0.0838  0.4576 -0.3449
  163MOL    C7323077   0.795   5.097   5.448 -0.6366  0.3215  0.1269
  163MOL    O7423078   0.981   5.053   5.298  0.7904 -0.3412 -0.1605
  163MOL    H7523079   0.860   4.901   5.370  2.3488 -0.6528 -0.4429
  163MOL    H7623080   0.734   5.114   5.360  0.4493  0.5266 -0.5964
  163MOL    H7723081   0.838   5.196   5.464 -0.8569  0.3120  0.7955
  163MOL    H7823082   0.735   5.065   5.533  0.6791 -0.0495  0.9466
  163MOL    C7923083   1.074   4.973   5.235  1.0244 -0.3631 -1.0270
  163MOL    C8023084   1.001   4.870   5.144  0.1270  0.5174 -0.1126
  163MOL    O8123085   1.145   5.061   5.155  0.4249 -0.2672 -0.0788
  163MOL    H8223086   1.133   4.918   5.308  0.3389  1.2852  0.7948
  163MOL    H8323087   1.074   4.823   5.078  1.5416  0.1485  1.6834
  163MOL    H8423088   0.921   4.914   5.085 -0.0784 -0.7235 -0.7815
  163MOL    H8523089   0.956   4.789   5.202 -1.8571  1.5381 -0.1958
  163MOL    C8623090   1.202   5.165   5.226 -0.5353  0.1769 -0.1975
  163MOL    C8723091   1.340   5.118   5.253 -0.7042 -0.0777 -0.9206
  163MOL    O8823092   1.215   5.279   5.140 -0.1817 -0.4765  0.4753
  163MOL    H8923093   1.152   5.202   5.316  1.2362  0.4816  0.6747
  163MOL    H9023094   1.380   5.182   5.331  1.4564 -1.5742 -0.7659
  163MOL    H9123095   1.417   5.112   5.176  1.0433 -2.6853  0.9884
  163MOL    H9223096   1.336   5.016   5.290 -1.5810 -0.7004 -2.6628
  163MOL    C9323097   1.100   5.359   5.123  0.4936  0.1169 -0.2923
  163MOL    C9423098   1.127   5.500   5.168  0.4052  0.7367 -0.0787
  163MOL    O9523099   1.066   5.369   4.989 -0.1324  0.1982 -0.1730
  163MOL    H9623100   1.008   5.321   5.168  1.8759 -1.4322  1.2985
  163MOL    H9723101   1.203   5.548   5.107 -0.4044  0.1309 -1.5950
  163MOL    H9823102   1.160   5.497   5.272  2.0464  2.2458 -0.5449
  163MOL    H9923103   1.032   5.553   5.160 -0.4512 -0.3031  2.3940
  163MOL   C10023104   0.981   5.269   4.934 -0.4860  0.1016 -0.6558
  163MOL   C10123105   0.846   5.334   4.898  0.0390  0.4178  0.3009
  163MOL   O10223106   1.034   5.219   4.813  0.2735  0.3321 -0.5596
  163MOL   H10323107   0.963   5.186   5.002  1.7067  0.8197  0.8537
  163MOL   H10423108   0.789   5.360   4.987 -0.5973 -0.4616  0.1532
  163MOL   H10523109   0.788   5.254   4.852  2.1743 -0.4877 -0.8995
  163MOL   H10623110   0.864   5.422   4.836 -0.5359  0.4842  0.2274
  163MOL   C10723111   1.137   5.126   4.826 -0.5089 -0.2602  0.1840
  163MOL   C10823112   1.076   4.991   4.775 -0.2569  0.2017  0.0767
  163MOL   O10923113   1.240   5.156   4.733  0.1331 -0.4359  0.3252
  163MOL   H11023114   1.187   5.115   4.922  3.4763  1.5005 -1.6091
  163MOL   H11123115   1.013   4.944   4.851  1.2696 -0.7602  0.7812
  163MOL   H11223116   1.153   4.926   4.733 -0.0979 -0.0801  0.8013
  163MOL   H11323117   1.000   5.024   4.704  0.6312  1.8369 -0.1301
  163MOL   C11423118   1.327   5.256   4.777 -0.5268 -1.3226 -0.1283
  163MOL   C11523119   1.465   5.191   4.799 -0.0692  0.0681  0.6425
  163MOL   O11623120   1.341   5.375   4.700 -0.2042  0.3043 -0.2106
  163MOL   H11723121   1.292   5.299   4.872  1.2867 -0.2793  0.0932
  163MOL   H11823122   1.536   5.274   4.807 -0.3578  0.6372 -2.1528
  163MOL   H11923123   1.474   5.132   4.708 -0.6905 -0.8754  1.1844
  163MOL   H12023124   1.461   5.130   4.889 -2.2852 -0.6793  0.0528
  163MOL   C12123125   1.218   5.438   4.676 -0.1931 -0.4626 -0.6213
  163MOL   C12223126   1.252   5.576   4.726 -0.7576  0.5247  0.4752
  163MOL   O12323127   1.197   5.451   4.536 -1.1043 -0.6034 -0.6321
  163MOL   H12423128   1.128   5.406   4.728 -0.3441  1.4295  0.3201
  163MOL   H12523129   1.339   5.613   4.673 -0.7105  0.3026  0.3983
  163MOL   H12623130   1.272   5.569   4.833 -0.1523  0.4147  0.3565
  163MOL   H12723131   1.173   5.650   4.713  0.2068  1.4122 -0.4347
  163MOL   C12823132   1.166   5.330   4.468  0.9209 -0.1620  0.2242
  163MOL   C12923133   1.023   5.351   4.411  0.2623  0.5958 -0.4076
  163MOL   O13023134   1.248   5.296   4.363  0.3272  0.2706  0.1185
  163MOL   H13123135   1.164   5.246   4.538  1.1424  0.1131  0.5601
  163MOL   H13223136   0.960   5.364   4.499 -0.1407  1.9874 -0.9003
  163MOL   H13323137   0.991   5.258   4.363 -0.4996  2.4200 -3.5228
  163MOL   H13423138   1.003   5.445   4.361 -0.1203  2.0299  2.3530
  163MOL   C13523139   1.380   5.258   4.401  0.4160  0.8498  0.4138
  163MOL   C13623140   1.438   5.196   4.277 -0.2123  0.0923  0.5818
  163MOL   O13723141   1.458   5.359   4.448 -0.4693 -0.3866  0.1532
  163MOL   H13823142   1.373   5.182   4.479 -1.0737  1.2453  0.6880
  163MOL   H13923143   1.438   5.272   4.199 -0.0083 -1.6429 -1.1499
  163MOL   H14023144   1.381   5.108   4.247  1.9179 -1.0582 -0.1618
  163MOL   H14123145   1.538   5.154   4.283  1.0366  2.5708 -2.0855
  163MOL   H14223146   1.411   5.373   4.529 -1.4156  0.1075 -0.4715
  164MOL     C123147   1.253   7.562   1.119  0.1695 -0.2257  0.4690
  164MOL     C223148   1.209   7.638   1.241  0.2536 -0.8226  0.2477
  164MOL     O323149   1.392   7.553   1.132  0.2195  0.1736  0.1699
  164MOL     H423150   1.215   7.610   1.029  1.6476 -0.6990 -0.4221
  164MOL     H523151   1.103   7.663   1.234  0.9707  2.6769  0.6595
  164MOL     H623152   1.263   7.731   1.262 -1.3567 -0.8052  5.0316
  164MOL     H723153   1.229   7.573   1.326  3.1843 -1.2974 -0.7674
  164MOL     H823154   1.211   7.462   1.116 -1.4577  0.4604 -0.7778
  164MOL     C923155   1.471   7.480   1.049 -0.7869  0.4100  0.1779
  164MOL    C1023156   1.412   7.338   1.034  0.2975  0.4610  0.2079
  164MOL    O1123157   1.498   7.537   0.922 -0.4863  0.0587  0.1961
  164MOL    H1223158   1.565   7.484   1.103 -0.9617 -0.8693  0.6061
  164MOL    H1323159   1.387   7.289   1.128 -1.7662  1.4133  0.1933
  164MOL    H1423160   1.474   7.280   0.966 -1.1076  0.0675 -0.7684
  164MOL    H1523161   1.317   7.345   0.981  0.6652  1.8812 -0.2749
  164MOL    C1623162   1.555   7.669   0.932 -0.7598  1.0025 -0.1850
  164MOL    C1723163   1.708   7.662   0.954  0.2129  0.0573 -0.1289
  164MOL    O1823164   1.536   7.739   0.812 -0.8638 -0.1271 -0.3096
  164MOL    H1923165   1.504   7.727   1.010 -1.4029 -0.9251  0.8617
  164MOL    H2023166   1.734   7.764   0.923  2.6295 -0.6850 -0.6278
  164MOL    H2123167   1.743   7.582   0.889 -1.9107 -0.9315 -0.0995
  164MOL    H2223168   1.733   7.643   1.058  0.5788 -0.9618 -0.4018
  164MOL    C2323169   1.404   7.760   0.785 -0.1384 -0.1381 -0.1588
  164MOL    C2423170   1.383   7.911   0.823  0.7648 -0.0271 -0.4668
  164MOL    O2523171   1.376   7.759   0.647  0.1114 -0.6703 -0.0747
  164MOL    H2623172   1.335   7.687   0.829 -0.1795 -0.5119 -0.8363
  164MOL    H2723173   1.281   0.027   0.801  0.0377 -1.1536  1.2443
  164MOL    H2823174   1.448   0.056   0.758  2.6570 -2.3061 -0.7352
  164MOL    H2923175   1.404   0.013   0.929 -1.4726 -0.0513 -0.0098
  164MOL    C3023176   1.402   7.642   0.577  0.3000 -0.3638 -0.2594
  164MOL    C3123177   1.263   7.586   0.534 -0.3205 -0.0229 -0.9208
  164MOL    O3223178   1.473   7.673   0.462  0.0128 -0.0972  0.9378
  164MOL    H3323179   1.453   7.565   0.635  0.4757  0.8212  1.1718
  164MOL    H3423180   1.280   7.498   0.473 -0.6379  1.7536 -3.6455
  164MOL    H3523181   1.210   7.652   0.465 -0.7647  0.0511 -0.5139
  164MOL    H3623182   1.200   7.580   0.623  1.7648  0.2120  0.6270
  164MOL    C3723183   1.613   7.697   0.472  0.0465  0.4480 -0.6919
  164MOL    C3823184   1.684   7.565   0.436 -0.1611 -0.1588  0.0566
  164MOL    O3923185   1.661   7.793   0.382  0.4938 -0.7643  0.0273
  164MOL    H4023186   1.635   7.716   0.577  0.1617  0.8922 -0.7974
  164MOL    H4123187   1.788   7.590   0.455 -0.1556 -1.5395  1.9592
  164MOL    H4223188   1.670   7.538   0.332 -1.3558 -0.6707  0.3358
  164MOL    H4323189   1.658   7.485   0.506 -0.6502  0.6451  0.8112
  164MOL    C4423190   1.654   0.010   0.429 -0.3291  0.3955 -0.1060
  164MOL    C4523191   1.786   0.034   0.495  1.3861  0.0793  0.0918
  164MOL    O4623192   1.643   0.103   0.322  0.0479 -0.5278  0.0857
  164MOL    H4723193   1.571   0.020   0.499  1.1762  1.0861  1.6450
  164MOL    H4823194   1.777   7.891   0.588 -0.1182 -0.6647 -0.5063
  164MOL    H4923195   1.812   0.138   0.515 -1.6474  1.1459 -1.2458
  164MOL    H5023196   1.870   0.003   0.434  1.3756 -0.5224  0.3775
  164MOL    C5123197   1.512   0.102   0.264  0.0732 -0.2194 -0.2412
  164MOL    C5223198   1.429   0.212   0.336  0.1398  0.2531 -0.1510
  164MOL    O5323199   1.526   0.148   0.133 -0.3058 -0.0293 -0.2552
  164MOL    H5423200   1.477   7.913   0.267  2.0759 -0.9801 -2.0731
  164MOL    H5523201   1.464   0.220   0.439  0.0823  3.8861 -0.3159
  164MOL    H5623202   1.325   0.179   0.337 -0.0496  0.8138 -1.0393
  164MOL    H5723203   1.426   0.311   0.290 -1.3280  0.0226 -0.5464
  164MOL    C5823204   1.594   0.060   0.046  0.1788 -0.8172  0.2391
  164MOL    C5923205   1.497   7.910   7.866 -0.0333  0.0256  0.2032
  164MOL    O6023206   1.695   0.114   7.884 -0.1372  0.0017  0.3923
  164MOL    H6123207   1.639   7.897   0.108 -1.2055 -1.4273  0.5071
  164MOL    H6223208   1.442   0.072   7.812  1.6687 -0.2631 -2.0146
  164MOL    H6323209   1.430   7.840   0.002 -0.7263  0.4619 -0.1085
  164MOL    H6423210   1.554   7.853   7.793 -1.3777 -0.9006 -0.1454
  164MOL    C6523211   1.801   0.163   0.046  0.5285 -1.0230  0.0378
  164MOL    C6623212   1.905   0.047   0.069 -0.6405 -0.6587  0.1091
  164MOL    O6723213   1.865   0.265   7.899  0.3324 -0.1547  0.2974
  164MOL    H6823214   1.778   0.199   0.146  1.0097  0.4335 -0.3690
  164MOL    H6923215   1.932   0.022   7.880  0.1678 -0.5272  0.2880
  164MOL    H7023216   1.860   7.880   0.126 -0.1108 -0.1885  1.2074
  164MOL    H7123217   1.988   0.100   0.116 -1.7185  0.4047  0.8404
  164MOL    C7223218   1.796   0.379   7.893 -0.4222 -0.5509 -0.1521
  164MOL    C7323219   1.840   0.463   0.099 -0.0151 -0.1165 -0.1037
  164MOL    O7423220   1.831   0.451   7.774 -0.6868  0.1793  0.2907
  164MOL    H7523221   1.687   0.372   7.904 -0.7030  1.2621 -1.5149
  164MOL    H7623222   1.944   0.494   0.096 -1.0613  4.0124  1.5650
  164MOL    H7723223   1.825   0.397   0.185  1.1998  0.2160  0.3727
  164MOL    H7823224   1.784   0.556   0.111 -0.7255 -0.6501  0.9079
  164MOL    C7923225   1.794   0.389   7.655  0.5012 -0.7799 -0.4287
  164MOL    C8023226   1.718   0.496   7.573 -0.3397 -0.7921  0.1180
  164MOL    O8123227   1.905   0.356   7.571 -0.0528  0.0170 -0.7534
  164MOL    H8223228   1.725   0.305   7.665 -0.2932  0.0961  1.6418
  164MOL    H8323229   1.784   0.580   7.551 -0.1309 -1.5257 -2.3058
  164MOL    H8423230   1.635   0.533   7.632  1.5275  1.0330  1.6676
  164MOL    H8523231   1.683   0.457   7.477 -3.1283  2.2065 -0.1930
  164MOL    C8623232   1.968   0.244   7.613 -0.3850 -0.2827  0.0252
  164MOL    C8723233   1.895   0.121   7.557 -0.8883  0.4021  0.4330
  164MOL    O8823234   2.091   0.244   7.550 -0.0437 -0.1751 -0.2033
  164MOL    H8923235   1.990   0.238   7.720 -2.6013 -0.5858  0.4928
  164MOL    H9023236   1.893   0.132   7.448  1.3681 -1.2118  0.1924
  164MOL    H9123237   1.790   0.110   7.582 -1.0591 -1.7731 -1.0829
  164MOL    H9223238   1.937   0.022   7.574 -1.8675 -0.2047 -0.6474
  164MOL    C9323239   2.178   0.341   7.609 -0.0219 -0.3488 -0.8546
  164MOL    C9423240   2.260   0.279   7.722 -0.0560 -0.3449  0.1187
  164MOL    O9523241   2.272   0.382   7.520 -0.1524 -0.2380  0.0824
  164MOL    H9623242   2.123   0.428   7.643 -0.0092 -0.1752 -1.2736
  164MOL    H9723243   2.329   0.355   7.758 -2.2292  1.7150  0.0009
  164MOL    H9823244   2.318   0.206   7.666  1.8861  0.4034  1.1251
  164MOL    H9923245   2.211   0.224   7.803  0.2724 -2.2820 -0.9534
  164MOL   C10023246   2.206   0.459   7.423 -0.1477 -0.3201  0.5968
  164MOL   C10123247   2.274   0.597   7.440  0.5972  0.2569 -0.7512
  164MOL   O10223248   2.248   0.420   7.301  0.6227 -0.4325 -0.0662
  164MOL   H10323249   2.098   0.459   7.413 -0.0373  1.1771 -0.7471
  164MOL   H10423250   2.382   0.584   7.444  0.3937 -1.7793 -1.5235
  164MOL   H10523251   2.249   0.642   7.536 -0.0772 -0.7230 -0.4677
  164MOL   H10623252   2.242   0.667   7.362 -1.3328 -0.4464 -0.6124
  164MOL   C10723253   2.198   0.293   7.274  0.2546 -0.0661  0.0946
  164MOL   C10823254   2.122   0.307   7.136  0.5579 -0.0966 -0.1880
  164MOL   O10923255   2.305   0.208   7.259 -0.2267 -0.7243  0.3822
  164MOL   H11023256   2.126   0.257   7.347  0.6912  0.6701  0.9034
  164MOL   H11123257   2.188   0.347   7.059 -1.0323  1.6616 -0.6589
  164MOL   H11223258   2.046   0.384   7.137 -0.0428 -0.6658 -1.2160
  164MOL   H11323259   2.079   0.211   7.107 -2.1417  0.8845  0.4485
  164MOL   C11423260   2.335   0.133   7.370 -0.1580  0.5184 -0.2256
  164MOL   C11523261   2.281   7.901   7.347 -0.6398 -0.2658 -0.8765
  164MOL   O11623262   2.477   0.124   7.379 -0.1173  0.4107  0.0513
  164MOL   H11723263   2.297   0.161   7.468 -1.6297  0.3776 -0.7459
  164MOL   H11823264   2.285   7.875   7.241 -1.3844 -2.7215 -0.3564
  164MOL   H11923265   2.178   7.901   7.381 -0.2901  2.2375  0.2730
  164MOL   H12023266   2.338   7.828   7.405 -2.8636 -0.2221  1.4246
  164MOL   C12123267   2.547   0.239   7.403  0.2283 -0.2425 -0.0487
  164MOL   C12223268   2.626   0.216   7.530 -0.6562 -0.2977 -0.6308
  164MOL   O12323269   2.645   0.260   7.306  0.3180 -0.0200 -0.1048
  164MOL   H12423270   2.479   0.324   7.403 -0.0090 -0.4183 -1.4095
  164MOL   H12523271   2.679   0.309   7.552 -0.6518 -0.5104  0.2558
  164MOL   H12623272   2.699   0.139   7.503 -0.0706  0.3604 -0.9571
  164MOL   H12723273   2.565   0.179   7.612  1.4274  0.9638  1.5454
  164MOL   C12823274   2.601   0.345   7.197 -0.1505  0.1426 -0.2264
  164MOL   C12923275   2.659   0.487   7.222 -0.0868 -0.8721 -0.0534
  164MOL   O13023276   2.651   0.296   7.073  0.0578 -0.2872 -0.5740
  164MOL   H13123277   2.493   0.344   7.183  0.0010 -1.5393 -1.5037
  164MOL   H13223278   2.653   0.560   7.141 -0.9888 -1.5922 -0.6456
  164MOL   H13323279   2.766   0.489   7.240 -0.3929  1.7395  1.7493
  164MOL   H13423280   2.609   0.527   7.311  0.5748  0.8623 -0.4347
  164MOL   C13523281   2.584   0.177   7.037 -0.2531  0.2914 -0.0506
  164MOL   C13623282   2.464   0.198   6.955  0.2244  0.8515 -0.3125
  164MOL   O13723283   2.678   0.106   6.957 -0.1164 -0.1294 -0.4908
  164MOL   H13823284   2.570   0.114   7.125 -0.1146  0.0999 -0.1665
  164MOL   H13923285   2.385   0.243   7.016  0.3208  1.5123 -0.6679
  164MOL   H14023286   2.429   0.102   6.919  1.7343 -0.0953  0.7082
  164MOL   H14123287   2.489   0.254   6.865  0.5709 -2.3571 -2.2739
  164MOL   H14223288   2.754   0.093   7.013  1.9067  1.4714 -2.7834
  165MOL     C123289   4.603   3.018   0.258 -0.9793  0.1604  0.3924
  165MOL     C223290   4.753   3.054   0.262 -0.1676  0.4596 -0.1744
  165MOL     O323291   4.530   3.101   0.362  0.0518  0.5911  0.2648
  165MOL     H423292   4.587   2.911   0.270  0.3257  0.0518  1.3405
  165MOL     H523293   4.783   3.026   0.363  1.0278 -0.7992 -0.8694
  165MOL     H623294   4.787   3.155   0.242 -0.2691  0.5444  0.0726
  165MOL     H723295   4.803   2.983   0.195 -0.8945 -0.3684  0.1455
  165MOL     H823296   4.572   3.038   0.155  2.1762 -0.5715 -0.7343
  165MOL     C923297   4.420   3.043   0.422  0.1036 -0.0001  0.2388
  165MOL    C1023298   4.459   2.938   0.524  0.7182  0.1431  0.3050
  165MOL    O1123299   4.336   3.130   0.490  1.0982  0.3780 -0.0365
  165MOL    H1223300   4.366   2.996   0.339  1.2131 -1.8136  0.4994
  165MOL    H1323301   4.520   2.857   0.484 -0.3162 -0.4635 -0.0676
  165MOL    H1423302   4.368   2.887   0.555  0.5153 -0.3196 -1.0416
  165MOL    H1523303   4.518   2.982   0.605  1.8457  0.9511 -0.9260
  165MOL    C1623304   4.278   3.233   0.411 -0.7440 -0.2734 -0.1999
  165MOL    C1723305   4.130   3.213   0.429  0.1777  0.2043 -0.2561
  165MOL    O1823306   4.317   3.351   0.469  0.9599 -0.4824  0.5448
  165MOL    H1923307   4.304   3.218   0.306 -0.9114  1.5161 -0.5038
  165MOL    H2023308   4.090   3.124   0.380 -0.6059  0.7695 -0.6468
  165MOL    H2123309   4.074   3.296   0.386  0.7644  1.1827  0.8308
  165MOL    H2223310   4.106   3.214   0.536  1.9095 -3.2087  0.2307
  165MOL    C2323311   4.429   3.410   0.418  0.9563 -0.6350  0.3970
  165MOL    C2423312   4.378   3.503   0.305  0.1237 -0.0307 -0.3826
  165MOL    O2523313   4.493   3.480   0.514  0.0957 -0.5415 -0.7380
  165MOL    H2623314   4.500   3.338   0.377  1.2240  1.4983 -3.1210
  165MOL    H2723315   4.330   3.436   0.233  1.9409 -2.6506  0.7607
  165MOL    H2823316   4.463   3.557   0.264 -0.3198  2.7355  2.1695
  165MOL    H2923317   4.310   3.580   0.344  0.8915  0.5192 -0.1209
  165MOL    C3023318   4.577   3.403   0.597 -0.1366  0.2013 -0.3282
  165MOL    C3123319   4.725   3.456   0.585 -0.2219 -0.1119  1.0214
  165MOL    O3223320   4.547   3.427   0.729  0.0113 -0.4074  0.2674
  165MOL    H3323321   4.569   3.297   0.573 -2.8322  0.2317  0.2914
  165MOL    H3423322   4.781   3.403   0.662  0.3460  0.5174  1.0433
  165MOL    H3523323   4.725   3.562   0.610 -0.1321 -0.1153  1.0347
  165MOL    H3623324   4.775   3.432   0.491  1.7249  0.2614  1.9410
  165MOL    C3723325   4.428   3.365   0.759 -0.3294  0.4051  0.4161
  165MOL    C3823326   4.463   3.244   0.855  1.0726  0.4792  0.1398
  165MOL    O3923327   4.350   3.458   0.832 -0.4709  0.0705 -0.2682
  165MOL    H4023328   4.376   3.319   0.675 -0.0433 -0.2954  0.6134
  165MOL    H4123329   4.512   3.167   0.795 -0.0251  0.1640 -0.3590
  165MOL    H4223330   4.373   3.211   0.907  0.5986  1.9252  0.2557
  165MOL    H4323331   4.522   3.283   0.938  1.5165 -0.5013  0.2956
  165MOL    C4423332   4.276   3.542   0.742 -0.2910  0.0469  0.1815
  165MOL    C4523333   4.136   3.491   0.767  0.0931 -0.2237  0.1386
  165MOL    O4623334   4.276   3.671   0.784  0.6951  0.1990 -0.1209
  165MOL    H4723335   4.293   3.530   0.635  1.3071  0.8350  0.3296
  165MOL    H4823336   4.127   3.396   0.716 -0.5659  0.2977 -0.7339
  165MOL    H4923337   4.060   3.554   0.721  1.1482  1.4128  0.5597
  165MOL    H5023338   4.112   3.483   0.873 -1.2145  0.7062 -0.0717
  165MOL    C5123339   4.389   3.740   0.747  0.0265  0.0284  0.3953
  165MOL    C5223340   4.337   3.854   0.661  0.1256  0.4788  0.2847
  165MOL    O5323341   4.453   3.802   0.860  0.0287 -0.5559 -0.2360
  165MOL    H5423342   4.450   3.687   0.674 -0.5887  0.0768 -0.1705
  165MOL    H5523343   4.294   3.809   0.572 -0.6159  0.0918  0.8277
  165MOL    H5623344   4.421   3.913   0.626  0.2146  1.0444  1.4282
  165MOL    H5723345   4.274   3.918   0.724  1.8016  3.2265 -0.7531
  165MOL    C5823346   4.533   3.708   0.929  0.4597 -0.2356 -0.4129
  165MOL    C5923347   4.680   3.764   0.906  0.1236 -0.0022  0.3175
  165MOL    O6023348   4.509   3.707   1.063  0.1708  0.6004  0.1976
  165MOL    H6123349   4.524   3.602   0.904 -1.8327 -0.1783  0.0868
  165MOL    H6223350   4.754   3.703   0.957  1.0035  1.4060  0.7460
  165MOL    H6323351   4.674   3.869   0.933  2.9336  0.5508 -1.0333
  165MOL    H6423352   4.705   3.776   0.800 -1.8516  0.5195 -0.1181
  165MOL    C6523353   4.386   3.671   1.099 -0.3627 -0.3422 -0.5249
  165MOL    C6623354   4.415   3.547   1.189 -0.1824 -0.2751 -0.5791
  165MOL    O6723355   4.333   3.764   1.189  0.3158 -0.1516 -0.5993
  165MOL    H6823356   4.319   3.646   1.017 -1.9131  2.7186 -0.2698
  165MOL    H6923357   4.446   3.568   1.291  0.3627  1.9277 -1.1802
  165MOL    H7023358   4.473   3.471   1.136  0.3925  0.4374 -0.9753
  165MOL    H7123359   4.321   3.493   1.190 -0.7901  0.7749  2.4942
  165MOL    C7223360   4.284   3.877   1.126 -0.8608 -0.4458  0.0785
  165MOL    C7323361   4.135   3.856   1.124  0.3795 -0.7328 -0.2375
  165MOL    O7423362   4.313   3.985   1.208  0.7226  0.7084  0.2261
  165MOL    H7523363   4.331   3.893   1.029  1.9083 -0.5280  1.3530
  165MOL    H7623364   4.115   3.774   1.056 -0.6190  0.4296 -1.3791
  165MOL    H7723365   4.096   3.953   1.091 -1.3178 -1.5126 -0.5818
  165MOL    H7823366   4.096   3.838   1.224 -0.7283 -0.4448 -0.6096
  165MOL    C7923367   4.437   4.042   1.176 -0.4171  0.2067 -0.1318
  165MOL    C8023368   4.402   4.182   1.141 -1.0924  0.8327  1.0090
  165MOL    O8123369   4.516   4.047   1.290 -0.7103  0.5133 -0.4826
  165MOL    H8223370   4.492   3.989   1.099  0.4150 -2.1351  2.0247
  165MOL    H8323371   4.488   4.242   1.112 -0.2430 -1.6575 -1.8180
  165MOL    H8423372   4.353   4.226   1.228 -2.3090  1.3323  0.0913
  165MOL    H8523373   4.333   4.175   1.057 -1.2321  1.2017  1.0929
  165MOL    C8623374   4.582   3.928   1.331  0.1350  0.3570  0.1714
  165MOL    C8723375   4.733   3.958   1.311  0.3760  0.0629 -0.5419
  165MOL    O8823376   4.562   3.908   1.465  0.4676  0.1448 -0.2939
  165MOL    H8923377   4.564   3.834   1.277  0.0771 -0.2209  1.1945
  165MOL    H9023378   4.761   4.058   1.342 -1.4373  0.0126  1.3351
  165MOL    H9123379   4.752   3.947   1.204 -0.6572 -0.4012 -0.6874
  165MOL    H9223380   4.784   3.886   1.375 -1.5186 -1.6780 -0.9023
  165MOL    C9323381   4.450   3.823   1.494  0.8991 -0.1461  0.6730
  165MOL    C9423382   4.503   3.682   1.527 -0.5030  0.0542  0.6030
  165MOL    O9523383   4.381   3.867   1.612 -0.0589  1.0394  0.4683
  165MOL    H9623384   4.366   3.813   1.425  0.8124  0.3279  0.7084
  165MOL    H9723385   4.570   3.688   1.613 -0.1170  1.5778  0.2088
  165MOL    H9823386   4.562   3.640   1.445 -0.6266  1.3766 -0.1683
  165MOL    H9923387   4.418   3.615   1.543 -0.8935  0.2321 -0.6685
  165MOL   C10023388   4.306   3.985   1.594  0.0885  0.3147 -0.0551
  165MOL   C10123389   4.162   3.943   1.622 -0.3730  0.8557  0.4894
  165MOL   O10223390   4.342   4.081   1.690 -0.5437 -0.1700  0.2363
  165MOL   H10323391   4.313   4.023   1.492  1.4781  1.3791  0.4261
  165MOL   H10423392   4.138   3.933   1.727 -3.4342  0.2546 -0.2348
  165MOL   H10523393   4.143   3.846   1.577  1.0515  0.9089 -0.2731
  165MOL   H10623394   4.097   4.025   1.592  0.0978  0.0325 -3.0401
  165MOL   C10723395   4.458   4.149   1.645 -0.3698  0.8535 -0.2702
  165MOL   C10823396   4.417   4.293   1.624 -1.1366 -0.3563  0.2471
  165MOL   O10923397   4.552   4.164   1.743  0.0682  0.0916  0.0177
  165MOL   H11023398   4.509   4.108   1.558  0.6432  0.2815  0.5854
  165MOL   H11123399   4.505   4.344   1.584 -2.1602 -0.9718 -2.8996
  165MOL   H11223400   4.377   4.336   1.716 -0.2659  1.2433 -0.0898
  165MOL   H11323401   4.333   4.315   1.559 -1.6340  1.5164  1.4863
  165MOL   C11423402   4.597   4.041   1.789 -0.3288 -0.7980  0.0495
  165MOL   C11523403   4.742   4.024   1.743 -0.2852  0.3323 -0.4324
  165MOL   O11623404   4.605   4.040   1.924  0.1331 -0.3498 -0.5054
  165MOL   H11723405   4.544   3.954   1.750 -0.0500 -1.0686  0.2656
  165MOL   H11823406   4.728   4.006   1.636 -0.7943  1.6857 -0.6055
  165MOL   H11923407   4.792   3.936   1.784 -3.6431 -1.1654  0.5888
  165MOL   H12023408   4.813   4.101   1.775 -0.6466  0.9552 -1.1261
  165MOL   C12123409   4.482   4.006   1.987 -0.2896  0.2331 -0.0841
  165MOL   C12223410   4.500   3.866   2.043 -0.1836  0.0089 -0.4661
  165MOL   O12323411   4.448   4.093   2.092 -0.1359 -0.1816 -0.8262
  165MOL   H12423412   4.395   3.997   1.921  1.3467  2.9608 -2.7567
  165MOL   H12523413   4.431   3.851   2.127  0.8886 -2.0574  0.0797
  165MOL   H12623414   4.603   3.845   2.070 -0.5628 -0.4392  0.6890
  165MOL   H12723415   4.484   3.784   1.973 -0.1022  0.9970 -1.6506
  165MOL   C12823416   4.411   4.214   2.037  0.6214  0.4559  0.5686
  165MOL   C12923417   4.264   4.220   2.035  0.2922 -0.6228 -0.2983
  165MOL   O13023418   4.466   4.316   2.123  0.1583 -0.6949 -0.0000
  165MOL   H13123419   4.450   4.222   1.936  1.3081  0.5643  0.8395
  165MOL   H13223420   4.233   4.242   2.137 -2.1794 -0.3492 -1.0833
  165MOL   H13323421   4.223   4.131   1.988 -1.0553  0.1899 -0.7131
  165MOL   H13423422   4.229   4.297   1.965 -0.3343  0.6280  1.3538
  165MOL   C13523423   4.592   4.354   2.085 -0.5141  0.1719  0.2679
  165MOL   C13623424   4.634   4.453   2.187 -0.2708  0.3824 -0.0505
  165MOL   O13723425   4.681   4.251   2.088  0.2234  0.2845 -0.0335
  165MOL   H13823426   4.585   4.392   1.983 -0.3749  0.4946  0.3789
  165MOL   H13923427   4.555   4.525   2.207 -0.8992 -0.9859  2.5697
  165MOL   H14023428   4.722   4.509   2.157  0.1755 -0.7182 -0.8294
  165MOL   H14123429   4.637   4.418   2.290 -0.0935 -0.0064 -0.1866
  165MOL   H14223430   4.660   4.200   2.012 -2.7789  0.8412  0.3793
  166MOL     C123431   5.412   5.410   2.020 -0.3483 -0.2177 -0.1569
  166MOL     C223432   5.406   5.426   1.869  0.5757  0.2461 -0.7937
  166MOL     O323433   5.480   5.290   2.061  0.3179 -0.2934  1.5293
  166MOL     H423434   5.314   5.412   2.068  0.4523  0.5831  1.5140
  166MOL     H523435   5.499   5.443   1.814  0.5281 -1.1906 -1.3327
  166MOL     H623436   5.337   5.503   1.836  0.3247  0.3694  0.0128
  166MOL     H723437   5.368   5.332   1.830 -2.3541  1.6849 -1.5363
  166MOL     H823438   5.465   5.493   2.066  0.7623  0.0244 -1.8694
  166MOL     C923439   5.494   5.282   2.191 -0.1502 -0.0082  0.3933
  166MOL    C1023440   5.523   5.133   2.215  0.1914 -0.2206 -0.1271
  166MOL    O1123441   5.596   5.370   2.232 -0.1093 -0.2558  0.1179
  166MOL    H1223442   5.396   5.307   2.232 -0.8055 -1.9662  0.0457
  166MOL    H1323443   5.605   5.097   2.153  0.7222 -0.8799  0.9479
  166MOL    H1423444   5.429   5.081   2.193  1.4801 -1.3726 -3.2090
  166MOL    H1523445   5.559   5.114   2.316  1.9299  4.2797  0.1992
  166MOL    C1623446   5.597   5.403   2.366  0.4668  0.3656 -0.9008
  166MOL    C1723447   5.716   5.488   2.393  0.2930  0.4772 -0.7560
  166MOL    O1823448   5.478   5.465   2.402  0.3502 -0.0373 -0.2000
  166MOL    H1923449   5.610   5.307   2.416 -0.2983  1.1387  0.8015
  166MOL    H2023450   5.721   5.569   2.320  0.1637  0.4096 -0.8404
  166MOL    H2123451   5.805   5.426   2.386 -1.1176 -1.5117 -1.4764
  166MOL    H2223452   5.715   5.530   2.494 -2.2888  0.3879 -0.7035
  166MOL    C2323453   5.437   5.446   2.540 -0.4074  0.1322 -0.7786
  166MOL    C2423454   5.297   5.503   2.569  0.1381 -0.1998 -0.9089
  166MOL    O2523455   5.420   5.312   2.568  0.0591 -0.1225 -0.4113
  166MOL    H2623456   5.521   5.487   2.597  0.7870  0.4930 -2.7261
  166MOL    H2723457   5.217   5.449   2.519 -0.8311  1.1030 -0.7789
  166MOL    H2823458   5.294   5.610   2.547 -2.1773 -0.3576 -1.4090
  166MOL    H2923459   5.276   5.507   2.676 -1.5389 -0.2063 -1.2272
  166MOL    C3023460   5.478   5.274   2.687 -0.6351  0.5256  0.2574
  166MOL    C3123461   5.415   5.138   2.727  0.0852  0.3274  0.0437
  166MOL    O3223462   5.612   5.275   2.674  0.7796  0.9983  0.0273
  166MOL    H3323463   5.447   5.340   2.768 -0.4505 -2.9465  3.3086
  166MOL    H3423464   5.450   5.055   2.666 -0.7952 -0.1113  0.1218
  166MOL    H3523465   5.308   5.150   2.708  0.0982  0.5126  0.0766
  166MOL    H3623466   5.432   5.123   2.833 -1.9467 -0.5106  0.2797
  166MOL    C3723467   5.692   5.312   2.777 -0.0844 -0.1502 -0.9043
  166MOL    C3823468   5.830   5.263   2.745  0.3000 -0.5782  0.0224
  166MOL    O3923469   5.700   5.445   2.789  0.2073 -0.5004 -0.4955
  166MOL    H4023470   5.648   5.272   2.868 -2.6584  0.5911 -1.7835
  166MOL    H4123471   5.870   5.326   2.665 -2.9108 -0.9746 -2.0197
  166MOL    H4223472   5.829   5.160   2.709 -0.2240  0.4826 -3.2568
  166MOL    H4323473   5.888   5.269   2.836  0.9246 -2.0897 -0.2551
  166MOL    C4423474   5.659   5.508   2.906 -0.3587  0.7181  0.5101
  166MOL    C4523475   5.708   5.654   2.894 -0.2224  0.1915 -0.0440
  166MOL    O4623476   5.520   5.511   2.899  0.3644  0.0555  0.3162
  166MOL    H4723477   5.697   5.446   2.988 -0.3848 -0.5857 -0.4366
  166MOL    H4823478   5.682   5.698   2.798 -1.0565 -1.2282 -0.4798
  166MOL    H4923479   5.816   5.659   2.911  0.1475  1.2099 -2.5654
  166MOL    H5023480   5.660   5.704   2.979 -1.2674  1.0147 -1.1137
  166MOL    C5123481   5.463   5.486   3.023 -0.6567  0.2872  0.2480
  166MOL    C5223482   5.312   5.507   3.010  0.3267 -0.1702 -0.1163
  166MOL    O5323483   5.484   5.351   3.062  0.8272  0.3123  0.5736
  166MOL    H5423484   5.504   5.562   3.089  1.5015  0.0215 -0.7090
  166MOL    H5523485   5.280   5.454   2.921  2.1657 -3.0408  0.8617
  166MOL    H5623486   5.284   5.609   2.982 -0.2262 -0.6583 -1.3889
  166MOL    H5723487   5.257   5.491   3.102  0.0809  0.7446 -0.0996
  166MOL    C5823488   5.482   5.337   3.201 -0.0116 -0.0340 -0.5735
  166MOL    C5923489   5.515   5.189   3.225  0.2404  0.2791 -0.6135
  166MOL    O6023490   5.582   5.407   3.260 -0.5537  0.5777  0.0600
  166MOL    H6123491   5.385   5.358   3.247 -0.1176 -1.7540  0.0075
  166MOL    H6223492   5.561   5.151   3.134  1.6947  1.0012 -0.1962
  166MOL    H6323493   5.423   5.132   3.237 -0.2800  1.1051 -0.6267
  166MOL    H6423494   5.584   5.175   3.309 -0.8488 -0.3698  0.1815
  166MOL    C6523495   5.549   5.485   3.370  0.0420 -0.1542  0.0744
  166MOL    C6623496   5.667   5.553   3.423 -0.1123 -0.1416  0.0893
  166MOL    O6723497   5.465   5.586   3.326  0.3885  0.0662 -0.6467
  166MOL    H6823498   5.508   5.413   3.440 -0.6326  0.3068  0.1577
  166MOL    H6923499   5.744   5.486   3.462  1.7382  1.4411 -0.7819
  166MOL    H7023500   5.631   5.617   3.503 -0.0310 -0.9411  0.7804
  166MOL    H7123501   5.715   5.598   3.336 -0.8789  0.6149  0.0509
  166MOL    C7223502   5.362   5.610   3.417 -0.5232 -0.0944 -0.1000
  166MOL    C7323503   5.280   5.716   3.357 -0.2748  0.0440  0.1600
  166MOL    O7423504   5.287   5.485   3.433  0.1592  0.0442 -0.1309
  166MOL    H7523505   5.408   5.645   3.509 -0.9808 -1.8858  0.8420
  166MOL    H7623506   5.184   5.726   3.408  0.1601  0.8534  0.8446
  166MOL    H7723507   5.254   5.694   3.253 -0.9138  1.5372 -0.0249
  166MOL    H7823508   5.329   5.814   3.354 -0.4322  0.2287  2.9331
  166MOL    C7923509   5.270   5.449   3.566 -0.0546 -0.1894  0.5233
  166MOL    C8023510   5.150   5.364   3.565  0.1845 -0.7060 -0.9597
  166MOL    O8123511   5.378   5.377   3.623  0.0606  0.4826  0.0562
  166MOL    H8223512   5.238   5.535   3.625  1.1200  0.8846 -0.3589
  166MOL    H8323513   5.067   5.418   3.520  1.3429  2.4554  0.5097
  166MOL    H8423514   5.118   5.334   3.665  2.2209 -0.9867 -0.3612
  166MOL    H8523515   5.159   5.275   3.503  1.9410 -1.3989  0.2499
  166MOL    C8623516   5.424   5.415   3.746  0.2058  0.2537 -0.3628
  166MOL    C8723517   5.494   5.290   3.825  0.3054  0.2516  0.2213
  166MOL    O8823518   5.515   5.515   3.728  0.3205  0.3588 -0.5477
  166MOL    H8923519   5.335   5.449   3.799 -0.4151 -1.2426 -0.4000
  166MOL    H9023520   5.586   5.265   3.772 -1.1502 -0.4743 -2.0310
  166MOL    H9123521   5.441   5.195   3.837  0.6181  0.0017 -0.3256
  166MOL    H9223522   5.518   5.327   3.924 -0.6563 -0.6513  0.7978
  166MOL    C9323523   5.489   5.626   3.806 -0.2664  0.1303 -0.2787
  166MOL    C9423524   5.619   5.704   3.804 -0.0665 -0.4704  0.2557
  166MOL    O9523525   5.394   5.707   3.748 -0.2142  0.1210  0.7662
  166MOL    H9623526   5.461   5.591   3.905 -0.9507 -2.0506 -1.2055
  166MOL    H9723527   5.611   5.793   3.866 -0.8284 -0.4723  0.1621
  166MOL    H9823528   5.644   5.719   3.699  1.0562  0.2114  0.6148
  166MOL    H9923529   5.697   5.641   3.848  0.3627 -0.3105 -0.2662
  166MOL   C10023530   5.299   5.761   3.836 -0.2736 -0.0786  0.6865
  166MOL   C10123531   5.224   5.869   3.753 -0.1993  0.1277 -0.1799
  166MOL   O10223532   5.212   5.657   3.870 -0.5092 -0.8978 -0.3804
  166MOL   H10323533   5.337   5.812   3.924  2.5744 -0.4307 -0.3016
  166MOL   H10423534   5.169   5.828   3.668 -1.0766  0.7838  0.0654
  166MOL   H10523535   5.301   5.931   3.708 -1.0783 -0.7166 -2.9147
  166MOL   H10623536   5.148   5.914   3.817 -0.8463  0.7899 -1.4069
  166MOL   C10723537   5.187   5.641   4.007  0.3948 -0.8189 -0.3604
  166MOL   C10823538   5.047   5.585   4.011  0.0503  0.5787 -0.5580
  166MOL   O10923539   5.269   5.553   4.068  0.0884 -0.1589  0.2359
  166MOL   H11023540   5.188   5.744   4.043  1.6384 -0.3372 -1.7502
  166MOL   H11123541   5.003   5.565   4.108  0.3791  1.1090 -0.2986
  166MOL   H11223542   5.052   5.490   3.958 -0.9928 -0.5095  1.2641
  166MOL   H11323543   4.982   5.649   3.952  0.4629  1.4767 -0.0473
  166MOL   C11423544   5.311   5.601   4.192  0.6043  0.0583  0.7868
  166MOL   C11523545   5.366   5.479   4.272  0.3528 -0.2763 -0.1298
  166MOL   O11623546   5.413   5.693   4.167 -0.2166 -0.4180  0.0244
  166MOL   H11723547   5.216   5.639   4.231  0.9095  3.1580 -1.3112
  166MOL   H11823548   5.395   5.518   4.369 -0.0185 -1.3708  0.4306
  166MOL   H11923549   5.462   5.443   4.235  0.1098 -0.9830 -0.0810
  166MOL   H12023550   5.291   5.401   4.282 -1.4455  1.5425  1.0439
  166MOL   C12123551   5.413   5.804   4.250 -0.2368 -0.0797  0.2292
  166MOL   C12223552   5.561   5.857   4.256 -1.0306  0.3733 -0.1296
  166MOL   O12323553   5.340   5.907   4.193 -0.7356 -0.6968 -0.1870
  166MOL   H12423554   5.386   5.783   4.354 -2.3380  1.4055  0.0017
  166MOL   H12523555   5.582   5.948   4.314  0.2926 -1.1781  1.9031
  166MOL   H12623556   5.599   5.867   4.154  2.9468  0.1873  1.2195
  166MOL   H12723557   5.626   5.779   4.296 -1.5904 -0.2760 -0.4936
  166MOL   C12823558   5.218   5.946   4.261 -0.8998 -0.1405 -0.5292
  166MOL   C12923559   5.145   6.055   4.171 -0.5599  0.0918 -0.4780
  166MOL   O13023560   5.129   5.838   4.268 -0.9812 -0.2730 -0.0350
  166MOL   H13123561   5.242   5.980   4.361 -1.6890 -0.2312 -0.3086
  166MOL   H13223562   5.209   6.143   4.169 -2.4104  1.4947  0.5793
  166MOL   H13323563   5.048   6.078   4.215 -1.2418  0.9215 -2.3743
  166MOL   H13423564   5.137   6.018   4.069  0.9869 -1.9898  0.1136
  166MOL   C13523565   5.065   5.816   4.390  0.1653  0.1076  0.0978
  166MOL   C13623566   4.944   5.732   4.354 -0.4042  1.0551 -0.6026
  166MOL   O13723567   5.147   5.746   4.477 -0.4378 -0.3579  0.2412
  166MOL   H13823568   5.033   5.906   4.444 -2.4279 -0.9202  0.3443
  166MOL   H13923569   4.879   5.802   4.302 -0.2216  2.1243  0.5650
  166MOL   H14023570   4.898   5.713   4.451 -0.7051  1.4149 -0.6734
  166MOL   H14123571   4.967   5.643   4.296  2.7885  1.5721 -0.2661
  166MOL   H14223572   5.126   5.774   4.565 -2.1271 -1.4271  0.2152
  167MOL     C123573   1.454   2.848   2.572 -0.5472  0.7163  0.2576
  167MOL     C223574   1.416   2.981   2.635  0.1832  0.7795  0.8821
  167MOL     O323575   1.587   2.846   2.519 -0.6180  0.1757 -0.2701
  167MOL     H423576   1.385   2.815   2.494 -2.9074 -0.8298  2.9254
  167MOL     H523577   1.448   3.061   2.567 -1.5068  0.9004  0.2149
  167MOL     H623578   1.473   3.000   2.726  2.2874  0.8384 -0.3907
  167MOL     H723579   1.309   2.980   2.651  0.2600  1.1020  1.4151
  167MOL     H823580   1.440   2.773   2.649 -1.2073 -1.3195 -1.7836
  167MOL     C923581   1.646   2.718   2.502  0.4066 -0.8083  0.1407
  167MOL    C1023582   1.605   2.676   2.353 -0.4763  0.2656 -0.2261
  167MOL    O1123583   1.782   2.728   2.511  0.0362  0.6235 -0.4966
  167MOL    H1223584   1.609   2.641   2.570 -0.3542  0.5573  1.2968
  167MOL    H1323585   1.505   2.713   2.332 -0.4067  0.6527  0.0977
  167MOL    H1423586   1.609   2.569   2.337 -3.3418 -0.0009  0.6659
  167MOL    H1523587   1.672   2.731   2.287 -0.9186  2.1554  0.8576
  167MOL    C1623588   1.830   2.730   2.644 -0.0159 -0.2939 -0.6235
  167MOL    C1723589   1.891   2.589   2.675 -0.4425 -1.1200 -0.3716
  167MOL    O1823590   1.928   2.825   2.659  0.2479 -0.3908 -0.3599
  167MOL    H1923591   1.757   2.759   2.720  1.0765  0.3411  0.1863
  167MOL    H2023592   1.955   2.550   2.595  0.2201 -0.7421 -0.0307
  167MOL    H2123593   1.803   2.525   2.679 -1.4215  0.1460 -1.2111
  167MOL    H2223594   1.952   2.605   2.764 -0.8638 -0.2997 -0.2343
  167MOL    C2323595   1.884   2.953   2.628  0.4484 -0.8740  0.1307
  167MOL    C2423596   1.828   3.018   2.758 -0.2941  0.1671 -0.1732
  167MOL    O2523597   1.988   3.038   2.580  0.3165  1.0726  0.1185
  167MOL    H2623598   1.806   2.950   2.552 -0.0152 -1.2637  0.6247
  167MOL    H2723599   1.811   3.125   2.752 -1.5188 -0.1567 -3.1607
  167MOL    H2823600   1.909   3.009   2.830 -1.1519 -1.7149  0.5962
  167MOL    H2923601   1.741   2.964   2.795 -1.1338  0.7594 -1.2721
  167MOL    C3023602   2.029   3.013   2.446 -0.5197  0.1969 -0.0554
  167MOL    C3123603   1.994   3.146   2.378 -0.3135 -0.6755 -0.1402
  167MOL    O3223604   2.168   2.982   2.435 -0.3995 -0.6698 -0.4726
  167MOL    H3323605   1.971   2.936   2.396  0.8987  0.2364 -1.7994
  167MOL    H3423606   1.896   3.180   2.411  0.0765 -0.5054  0.8414
  167MOL    H3523607   1.989   3.135   2.269  0.2349 -1.1544 -0.1226
  167MOL    H3623608   2.063   3.230   2.383 -2.4403  1.3077 -2.7423
  167MOL    C3723609   2.205   2.868   2.486  0.4249 -0.0835  0.1835
  167MOL    C3823610   2.271   2.785   2.382  0.2018  0.5648 -0.7578
  167MOL    O3923611   2.300   2.888   2.596  0.1053 -0.1517  0.2090
  167MOL    H4023612   2.125   2.810   2.534 -0.7607  1.0748 -0.3459
  167MOL    H4123613   2.199   2.784   2.300 -0.7352 -0.1083  0.0585
  167MOL    H4223614   2.306   2.687   2.414 -0.6934 -0.1028 -1.7693
  167MOL    H4323615   2.359   2.844   2.358  0.8241 -0.4026 -0.8817
  167MOL    C4423616   2.251   2.926   2.723 -0.0023  0.3797  0.2212
  167MOL    C4523617   2.279   2.821   2.828 -0.1765 -0.1922  0.3772
  167MOL    O4623618   2.307   3.047   2.770 -0.0268 -0.4082 -0.2947
  167MOL    H4723619   2.144   2.945   2.717 -0.3198 -1.1728  0.8124
  167MOL    H4823620   2.386   2.800   2.832 -0.2104 -0.9032 -1.7866
  167MOL    H4923621   2.228   2.732   2.793 -0.6281  0.1100  0.2624
  167MOL    H5023622   2.244   2.851   2.927 -0.4683 -1.6781  0.7373
  167MOL    C5123623   2.279   3.166   2.702  0.3179  0.1919  0.1619
  167MOL    C5223624   2.173   3.239   2.788 -0.2967 -0.2850  0.1750
  167MOL    O5323625   2.384   3.255   2.684  0.0810  0.6746  0.7054
  167MOL    H5423626   2.229   3.132   2.611  3.2953  1.4610 -2.0273
  167MOL    H5523627   2.157   3.338   2.745 -1.2120  0.9996  3.2994
  167MOL    H5623628   2.220   3.244   2.886 -0.0060 -2.1622  0.1534
  167MOL    H5723629   2.074   3.194   2.791  0.0901 -1.1345  0.2872
  167MOL    C5823630   2.493   3.200   2.608 -0.2758 -0.3515 -0.6981
  167MOL    C5923631   2.449   3.184   2.463  0.1221 -0.3142  0.1454
  167MOL    O6023632   2.601   3.292   2.606 -0.2978 -0.2752  0.3555
  167MOL    H6123633   2.521   3.104   2.652  1.2618  0.8166  0.9664
  167MOL    H6223634   2.407   3.277   2.424 -0.8754 -1.1549 -0.7778
  167MOL    H6323635   2.377   3.104   2.449  0.1257 -0.1872 -0.5964
  167MOL    H6423636   2.538   3.164   2.403 -1.4413 -2.6922 -1.4515
  167MOL    C6523637   2.674   3.303   2.723 -0.2887  0.5193  0.3991
  167MOL    C6623638   2.812   3.359   2.670  0.2577 -1.0231  0.1988
  167MOL    O6723639   2.616   3.404   2.810  0.0170 -0.0224 -0.5651
  167MOL    H6823640   2.672   3.207   2.775 -0.0024 -1.0073 -2.2796
  167MOL    H6923641   2.829   3.327   2.568 -0.4193 -2.2328  0.4570
  167MOL    H7023642   2.898   3.324   2.726  1.2135  1.9853  0.6913
  167MOL    H7123643   2.809   3.468   2.672  0.4956 -0.8873 -3.5857
  167MOL    C7223644   2.576   3.361   2.937  0.3542 -0.0137  0.3770
  167MOL    C7323645   2.692   3.329   3.023 -0.0614  0.1008  0.4912
  167MOL    O7423646   2.524   3.479   3.001  0.8866 -0.6409  0.1576
  167MOL    H7523647   2.512   3.273   2.934 -2.3289  1.8529  0.9971
  167MOL    H7623648   2.769   3.403   3.000 -0.4118  0.7667  1.4296
  167MOL    H7723649   2.727   3.232   2.987 -0.9061 -0.5816  1.4597
  167MOL    H7823650   2.669   3.331   3.130  0.1248 -0.4005  0.5432
  167MOL    C7923651   2.396   3.503   2.950 -0.5194 -0.4496 -0.1735
  167MOL    C8023652   2.290   3.454   3.050  0.1329 -0.0353  0.3260
  167MOL    O8123653   2.385   3.638   2.952 -0.2586 -0.1102 -0.5277
  167MOL    H8223654   2.382   3.465   2.849 -0.7634  0.1837 -0.3811
  167MOL    H8323655   2.287   3.521   3.137 -1.8661  2.5308 -1.6374
  167MOL    H8423656   2.323   3.354   3.076  0.2307 -0.1358 -0.1814
  167MOL    H8523657   2.192   3.448   3.002  0.9718 -1.8133 -1.1962
  167MOL    C8623658   2.434   3.708   2.839  0.1933  0.4442 -0.2023
  167MOL    C8723659   2.305   3.776   2.786  0.2044  0.2721 -0.1219
  167MOL    O8823660   2.527   3.808   2.870  0.3329 -0.1857  0.1342
  167MOL    H8923661   2.479   3.639   2.767 -0.1773 -0.3266  0.3003
  167MOL    H9023662   2.324   3.817   2.687 -0.9161 -0.5436 -0.6833
  167MOL    H9123663   2.287   3.861   2.852 -0.2773 -0.4517  0.6901
  167MOL    H9223664   2.211   3.722   2.783 -0.6514  1.6865  0.7103
  167MOL    C9323665   2.651   3.760   2.892 -0.4798 -0.2029  0.4796
  167MOL    C9423666   2.740   3.807   2.779  0.7826  0.2882  0.2932
  167MOL    O9523667   2.701   3.814   3.010 -0.2043  0.0998 -0.2666
  167MOL    H9623668   2.658   3.651   2.898 -1.4747 -0.2666  0.4186
  167MOL    H9723669   2.734   3.915   2.761  1.5953  0.9126  3.5113
  167MOL    H9823670   2.718   3.762   2.682  1.4467  0.8074 -0.1064
  167MOL    H9923671   2.844   3.778   2.790  0.6053 -0.6300 -0.3848
  167MOL   C10023672   2.669   3.741   3.128  0.2549 -0.8090  0.1371
  167MOL   C10123673   2.799   3.670   3.178  0.1999 -0.4581  0.3299
  167MOL   O10223674   2.622   3.825   3.232 -0.2107 -0.4481  0.2467
  167MOL   H10323675   2.598   3.660   3.113  0.0257 -1.0515  2.3587
  167MOL   H10423676   2.863   3.753   3.206  0.0842 -0.1751 -0.2228
  167MOL   H10523677   2.848   3.622   3.093 -1.0576  0.4275 -0.9357
  167MOL   H10623678   2.770   3.604   3.259 -0.0770 -1.6691 -0.7404
  167MOL   C10723679   2.488   3.862   3.226 -0.1041 -0.7028  0.2825
  167MOL   C10823680   2.411   3.779   3.335  0.2133  0.5046 -0.2755
  167MOL   O10923681   2.477   4.006   3.247  0.2537 -0.2335  0.5616
  167MOL   H11023682   2.442   3.837   3.130  1.1687  0.3322 -0.6136
  167MOL   H11123683   2.433   3.813   3.436 -0.8694 -1.6289  0.6961
  167MOL   H11223684   2.435   3.677   3.307  1.5395  0.6996  0.1236
  167MOL   H11323685   2.304   3.789   3.316 -0.0143 -2.1519 -0.4468
  167MOL   C11423686   2.521   4.087   3.141  0.2393 -0.3451 -0.0430
  167MOL   C11523687   2.393   4.151   3.083  0.0131 -0.4321  0.1148
  167MOL   O11623688   2.593   4.190   3.194  0.4353 -0.9866 -0.3789
  167MOL   H11723689   2.579   4.026   3.072 -0.2536 -1.1285  0.2276
  167MOL   H11823690   2.310   4.088   3.051 -0.3744  0.0870  0.0987
  167MOL   H11923691   2.416   4.214   2.996  0.2048 -0.9913 -0.2416
  167MOL   H12023692   2.347   4.226   3.147 -0.7022 -1.0444  0.3198
  167MOL   C12123693   2.724   4.146   3.225  0.8667  0.1449 -0.2797
  167MOL   C12223694   2.811   4.242   3.139 -0.0439  0.1201 -0.2114
  167MOL   O12323695   2.760   4.165   3.357 -0.2813 -0.2388  0.0792
  167MOL   H12423696   2.746   4.043   3.197 -3.9404 -1.3978  1.0584
  167MOL   H12523697   2.791   4.347   3.157  0.5131  0.1780  0.0931
  167MOL   H12623698   2.812   4.219   3.033  0.7175  1.9488 -0.6183
  167MOL   H12723699   2.916   4.237   3.170 -0.2198 -2.3157  0.0697
  167MOL   C12823700   2.719   4.065   3.439 -0.4983 -0.2279 -0.2527
  167MOL   C12923701   2.847   3.976   3.483 -0.2288  0.0622  0.3657
  167MOL   O13023702   2.670   4.122   3.558  0.4355 -0.0777  0.0122
  167MOL   H13123703   2.642   3.998   3.401  0.5520 -1.6901  0.1302
  167MOL   H13223704   2.905   3.950   3.394 -0.1845 -0.8862  0.6628
  167MOL   H13323705   2.833   3.891   3.550 -0.3368  0.3668  0.7280
  167MOL   H13423706   2.908   4.045   3.540  0.6062 -0.3277 -0.0312
  167MOL   C13523707   2.532   4.127   3.568 -0.2899  0.1408 -1.2751
  167MOL   C13623708   2.501   4.164   3.715  0.3411  0.1892  0.8422
  167MOL   O13723709   2.478   4.214   3.467 -0.2158  0.1343 -0.7948
  167MOL   H13823710   2.483   4.031   3.546 -1.4292  0.1843  0.9953
  167MOL   H13923711   2.568   4.106   3.779 -0.2602  0.9335  2.1800
  167MOL   H14023712   2.394   4.147   3.731  0.2681 -0.0760  0.1008
  167MOL   H14123713   2.531   4.268   3.718  0.1940  0.2376  0.5586
  167MOL   H14223714   2.489   4.169   3.384  0.1710 -1.9286  0.3398
  168MOL     C123715   6.873   5.876   1.040  0.9418  0.5433  0.0929
  168MOL     C223716   6.826   5.797   1.157 -0.2735  0.5455  0.3570
  168MOL     O323717   6.971   5.956   1.095 -0.0266  0.1145 -0.0018
  168MOL     H423718   6.792   5.939   1.002 -0.0316  0.2698  1.6563
  168MOL     H523719   6.765   5.707   1.150  3.3922 -2.3096  3.4851
  168MOL     H623720   6.769   5.861   1.225  0.0754  1.9011 -0.6108
  168MOL     H723721   6.909   5.756   1.213 -0.7445 -0.2330  0.4883
  168MOL     H823722   6.916   5.819   0.958 -0.3160  0.8944 -0.8315
  168MOL     C923723   7.038   6.047   1.004  0.0265 -0.8526 -0.2698
  168MOL    C1023724   6.968   6.177   1.014 -0.2481  0.1414 -0.1062
  168MOL    O1123725   7.167   6.069   1.045 -0.4636  0.2272 -0.3721
  168MOL    H1223726   7.037   6.000   0.906 -2.4648  0.5372 -0.9519
  168MOL    H1323727   6.869   6.157   0.974  0.0140 -2.2942  0.3566
  168MOL    H1423728   7.013   6.267   0.974  0.5536  0.7192  2.0443
  168MOL    H1523729   6.961   6.202   1.120 -1.3824 -0.3928 -0.0406
  168MOL    C1623730   7.244   5.953   1.073 -0.6039  0.4440 -1.0130
  168MOL    C1723731   7.358   5.937   0.970  0.2373 -0.1060  0.1522
  168MOL    O1823732   7.317   5.966   1.189 -0.1333  0.3624 -0.1980
  168MOL    H1923733   7.188   5.859   1.077  0.5343 -0.2513 -1.4147
  168MOL    H2023734   7.421   6.026   0.970 -0.5260  0.4964 -2.8216
  168MOL    H2123735   7.324   5.908   0.870 -0.7767  0.1224  0.4261
  168MOL    H2223736   7.437   5.872   1.008  0.1894 -0.2070  0.0760
  168MOL    C2323737   7.249   5.928   1.308 -0.3170  0.3369 -0.0533
  168MOL    C2423738   7.322   5.809   1.358 -0.3243  0.3943  0.0542
  168MOL    O2523739   7.249   6.029   1.409  0.5263  0.1931  0.1340
  168MOL    H2623740   7.143   5.904   1.297  0.0616 -0.5501 -2.1224
  168MOL    H2723741   7.423   5.833   1.393 -0.9662  0.8749  1.6065
  168MOL    H2823742   7.323   5.726   1.287 -0.5714 -0.8179  1.4554
  168MOL    H2923743   7.276   5.767   1.447  1.0909 -0.1922  0.5285
  168MOL    C3023744   7.161   6.137   1.375 -0.5792  0.4751 -0.2419
  168MOL    C3123745   7.031   6.121   1.461 -0.4636  0.3212 -0.1604
  168MOL    O3223746   7.225   6.264   1.404  0.6470 -0.5803  0.3938
  168MOL    H3323747   7.130   6.130   1.271  1.8437 -1.1564 -0.8829
  168MOL    H3423748   6.977   6.214   1.469  0.3149  0.6566  1.2684
  168MOL    H3523749   7.061   6.097   1.563 -0.7917 -0.4351 -0.2361
  168MOL    H3623750   6.977   6.033   1.425  0.2724  0.5861 -1.9795
  168MOL    C3723751   7.336   6.289   1.315 -0.8676 -0.2810 -0.8631
  168MOL    C3823752   7.283   6.391   1.218  0.8768  0.2118  0.0793
  168MOL    O3923753   7.442   6.348   1.384 -0.0857  0.3319 -0.1494
  168MOL    H4023754   7.369   6.201   1.261  0.1356  0.2599 -1.1344
  168MOL    H4123755   7.189   6.371   1.166  0.3082  0.8830  0.8420
  168MOL    H4223756   7.364   6.419   1.150  2.2978 -2.9294  0.3718
  168MOL    H4323757   7.263   6.477   1.282 -0.8508 -1.0258  1.2657
  168MOL    C4423758   7.494   6.276   1.490 -0.1917  0.2392  0.3333
  168MOL    C4523759   7.564   6.142   1.447  0.8033 -0.0883 -0.0735
  168MOL    O4623760   7.577   6.363   1.566 -0.2053  0.5694 -0.0074
  168MOL    H4723761   7.414   6.238   1.552  0.1776  0.2405  0.8105
  168MOL    H4823762   7.611   6.111   1.541 -1.0686  0.6260  1.1280
  168MOL    H4923763   7.638   6.172   1.372 -0.0841  1.4775 -0.3400
  168MOL    H5023764   7.506   6.062   1.403  0.0251  0.0288  0.7210
  168MOL    C5123765   7.508   6.454   1.634  0.0041 -0.2358 -0.2852
  168MOL    C5223766   7.524   6.430   1.787  0.5751 -0.0337  0.0163
  168MOL    O5323767   7.551   6.588   1.605 -0.1972  0.1391 -0.1337
  168MOL    H5423768   7.402   6.460   1.608  0.5683  1.6880 -2.2213
  168MOL    H5523769   7.449   6.361   1.825  1.0758 -0.1091  0.8822
  168MOL    H5623770   7.499   6.528   1.829  0.0049 -0.7177  1.3191
  168MOL    H5723771   7.624   6.397   1.814  1.3761  1.2736 -1.3094
  168MOL    C5823772   7.504   6.648   1.489  0.2581 -0.4480  0.4690
  168MOL    C5923773   7.424   6.770   1.536 -0.3489  0.3840  0.5810
  168MOL    O6023774   7.608   6.709   1.412 -0.0917  0.3859  0.6888
  168MOL    H6123775   7.439   6.589   1.426 -0.3321  0.2944  0.3712
  168MOL    H6223776   7.487   6.839   1.593  0.3978 -2.0335  2.7778
  168MOL    H6323777   7.335   6.729   1.583  0.4320 -0.4323  1.3763
  168MOL    H6423778   7.396   6.823   1.445 -0.3833 -0.0512  0.3396
  168MOL    C6523779   7.673   6.621   1.331 -0.6079  0.4717 -0.2433
  168MOL    C6623780   7.636   6.665   1.193 -0.8034  0.8274  0.1245
  168MOL    O6723781   7.809   6.641   1.347  0.0983  0.4916 -0.2999
  168MOL    H6823782   7.635   6.520   1.347 -0.9466  0.5872 -0.3156
  168MOL    H6923783   7.683   6.604   1.115 -0.8213  0.9426  0.0237
  168MOL    H7023784   7.665   6.769   1.180 -0.0992  0.5207 -0.8131
  168MOL    H7123785   7.528   6.659   1.178 -0.7590 -1.5308  0.4696
  168MOL    C7223786   7.867   6.581   1.455  0.0284 -0.7212 -0.2638
  168MOL    C7323787   0.014   6.441   1.414 -0.1787  1.0230 -0.2083
  168MOL    O7423788   0.051   6.654   1.507 -0.0968 -0.2037 -0.2541
  168MOL    H7523789   7.795   6.566   1.535  0.2160  2.0766  0.4603
  168MOL    H7623790   7.837   6.397   1.372 -0.0252  2.1749 -1.7903
  168MOL    H7723791   0.051   6.394   1.505 -1.3557 -0.5929 -0.5242
  168MOL    H7823792   0.092   6.461   1.341  0.5184 -0.2042  0.1898
  168MOL    C7923793   0.012   6.773   1.571 -0.3378 -0.0002  0.0386
  168MOL    C8023794   0.022   6.745   1.723 -0.1446 -0.4306  0.4417
  168MOL    O8123795   0.103   6.881   1.540 -0.1455 -0.0765 -0.0166
  168MOL    H8223796   7.823   6.800   1.548 -1.3462 -1.1029  2.9374
  168MOL    H8323797   0.125   6.730   1.756  0.5763  1.6644 -0.7433
  168MOL    H8423798   7.879   6.658   1.754 -1.1328 -0.3760 -1.1843
  168MOL    H8523799   7.905   6.833   1.779 -3.8614 -1.7610  0.6438
  168MOL    C8623800   0.083   6.922   1.408  0.2930  0.5061 -0.5231
  168MOL    C8723801   0.018   7.064   1.398  0.2084  0.5315 -0.2858
  168MOL    O8823802   0.207   6.933   1.350  0.6158  0.0909 -0.9586
  168MOL    H8923803   0.028   6.854   1.344 -0.6348  0.0083  0.7797
  168MOL    H9023804   7.823   7.062   1.407  0.2572 -1.0465  0.0334
  168MOL    H9123805   0.039   7.102   1.298  0.1958 -0.9605 -0.8748
  168MOL    H9223806   0.064   7.131   1.470  0.5463 -0.4765  0.4415
  168MOL    C9323807   0.278   6.812   1.340 -0.1182  0.0492 -0.5179
  168MOL    C9423808   0.245   6.740   1.208 -0.0708  0.3885 -0.5063
  168MOL    O9523809   0.417   6.843   1.332  0.1318  0.2212 -0.5180
  168MOL    H9623810   0.261   6.749   1.427 -0.3560  0.7789 -0.0286
  168MOL    H9723811   0.276   6.809   1.130  0.4188  0.1920 -0.4856
  168MOL    H9823812   0.140   6.713   1.196 -0.4402  1.1651  0.8245
  168MOL    H9923813   0.307   6.650   1.209 -0.8582 -0.1602 -0.6629
  168MOL   C10023814   0.469   6.904   1.446 -0.2481 -0.2663 -0.0101
  168MOL   C10123815   0.549   6.792   1.515 -0.5749  0.1793 -0.1696
  168MOL   O10223816   0.564   6.997   1.406 -0.1869 -0.2294  0.6141
  168MOL   H10323817   0.395   6.951   1.511  0.3493  2.1373 -0.9935
  168MOL   H10423818   0.603   6.821   1.605 -0.0316 -0.8353 -0.1590
  168MOL   H10523819   0.625   6.775   1.438 -1.7244  3.4719 -2.1299
  168MOL   H10623820   0.500   6.695   1.526 -0.2372 -0.1385 -1.3759
  168MOL   C10723821   0.509   7.109   1.341 -0.5476  0.1921 -0.3764
  168MOL   C10823822   0.519   7.228   1.432  0.4303  0.0317  0.1934
  168MOL   O10923823   0.583   7.135   1.217  0.3009 -0.9060  0.0725
  168MOL   H11023824   0.407   7.092   1.305 -0.1235 -0.2619 -1.3740
  168MOL   H11123825   0.622   7.257   1.452  0.6651 -0.6550 -0.0230
  168MOL   H11223826   0.459   7.219   1.523 -2.4041  0.6102 -1.5546
  168MOL   H11323827   0.471   7.313   1.383  0.5460 -0.1110 -0.1687
  168MOL   C11423828   0.582   7.021   1.137 -0.2121 -0.1490 -0.0412
  168MOL   C11523829   0.448   7.021   1.055 -0.9213  0.3346 -0.2753
  168MOL   O11623830   0.679   7.020   1.036  0.0668  0.4485  0.2173
  168MOL   H11723831   0.610   6.928   1.185 -1.0128  0.4944  1.7118
  168MOL   H11823832   0.438   6.933   0.992 -2.2883  1.2292 -1.3330
  168MOL   H11923833   0.460   7.110   0.993 -2.0764  0.3783 -0.4498
  168MOL   H12023834   0.355   7.042   1.107 -0.8709  0.4275 -0.2224
  168MOL   C12123835   0.809   7.034   1.083  0.3494  0.9431 -0.2386
  168MOL   C12223836   0.891   6.910   1.041 -0.3661  0.7672  0.2187
  168MOL   O12323837   0.871   7.139   1.021  0.3421 -0.2164 -0.5409
  168MOL   H12423838   0.814   7.048   1.191 -1.1886 -0.5832  0.0663
  168MOL   H12523839   0.994   6.929   1.072  0.4839  1.9407 -3.0124
  168MOL   H12623840   0.893   6.899   0.932  0.9120 -0.5924  0.3676
  168MOL   H12723841   0.839   6.825   1.083 -3.5592  1.6145 -1.8074
  168MOL   C12823842   0.849   7.269   1.073 -0.1419 -0.2211  0.9600
  168MOL   C12923843   0.983   7.320   1.139 -0.1610 -0.0815  0.8315
  168MOL   O13023844   0.824   7.359   0.972  0.1663 -0.6072  0.3641
  168MOL   H13123845   0.766   7.284   1.143 -0.3605 -3.2683  1.3964
  168MOL   H13223846   1.011   7.261   1.226 -0.6358  0.9914  1.7282
  168MOL   H13323847   0.974   7.421   1.178  0.7241  0.6176 -0.7222
  168MOL   H13423848   1.060   7.314   1.062 -0.2418  1.6935  0.5975
  168MOL   C13523849   0.709   7.334   0.897 -0.6924 -0.1425  0.3526
  168MOL   C13623850   0.672   7.460   0.817 -0.3335 -0.5548  0.7245
  168MOL   O13723851   0.727   7.224   0.814 -0.9323 -0.2899  0.3946
  168MOL   H13823852   0.626   7.313   0.964  0.1055  0.4852  1.5458
  168MOL   H13923853   0.584   7.434   0.759 -1.0843  1.0592  1.1051
  168MOL   H14023854   0.756   7.480   0.751  0.0249  0.3750  1.4452
  168MOL   H14123855   0.656   7.551   0.876  0.6075 -0.8694  1.4847
  168MOL   H14223856   0.761   7.153   0.867 -0.2829 -0.0907  0.2507
  169MOL     C123857   3.693   0.323   1.437 -0.0060 -0.1431  0.3861
  169MOL     C223858   3.735   0.221   1.541 -0.3215  0.2257  0.1267
  169MOL     O323859   3.626   0.422   1.504 -0.4098  0.5870  0.0733
  169MOL     H423860   3.628   0.270   1.367  1.1446 -1.5952  0.4001
  169MOL     H523861   3.772   0.129   1.495 -0.2553  0.8167 -1.0173
  169MOL     H623862   3.649   0.201   1.604  0.2414  1.7293  1.4117
  169MOL     H723863   3.815   0.256   1.607  1.3665  1.1418 -2.3228
  169MOL     H823864   3.771   0.370   1.378 -0.9233  0.8080 -0.1017
  169MOL     C923865   3.551   0.509   1.424 -1.5647  0.1956 -0.0151
  169MOL    C1023866   3.474   0.596   1.525 -0.0051 -1.2532 -0.2440
  169MOL    O1123867   3.631   0.596   1.348  0.0576  0.0103  0.5674
  169MOL    H1223868   3.472   0.458   1.368 -1.5884 -0.6734  0.7816
  169MOL    H1323869   3.385   0.631   1.472 -1.4162 -3.6508  0.4585
  169MOL    H1423870   3.535   0.675   1.567  0.1031 -1.6683  0.3836
  169MOL    H1523871   3.428   0.531   1.600 -1.2522 -1.6892 -1.3665
  169MOL    C1623872   3.614   0.575   1.215 -0.0242 -0.9023  0.5437
  169MOL    C1723873   3.704   0.673   1.139  0.9170 -0.5671  0.2468
  169MOL    O1823874   3.650   0.443   1.176 -0.4883  0.2894 -0.1710
  169MOL    H1923875   3.510   0.594   1.189 -0.0353 -2.8505 -1.0100
  169MOL    H2023876   3.665   0.691   1.039 -0.1623  0.6168  0.8583
  169MOL    H2123877   3.808   0.643   1.131  1.8699  2.4084  0.8001
  169MOL    H2223878   3.693   0.773   1.183  0.5939 -0.3136 -0.3966
  169MOL    C2323879   3.601   0.403   1.052  0.4192 -0.6221 -0.1377
  169MOL    C2423880   3.653   0.264   1.032 -0.1623 -0.3163  0.1698
  169MOL    O2523881   3.463   0.399   1.065 -0.4432 -0.4446  0.3808
  169MOL    H2623882   3.625   0.471   0.971  1.0862 -0.2413  0.3709
  169MOL    H2723883   3.757   0.279   1.006 -0.8975  1.5350 -1.8856
  169MOL    H2823884   3.616   0.218   0.940  1.3510  0.3662 -0.7899
  169MOL    H2923885   3.639   0.212   1.126 -1.6382  2.2424  1.4191
  169MOL    C3023886   3.396   0.421   0.943  0.1439  0.7876 -0.5725
  169MOL    C3123887   3.247   0.377   0.973 -0.2414 -0.0125  0.8923
  169MOL    O3223888   3.395   0.552   0.894  0.3175 -0.2847 -0.8981
  169MOL    H3323889   3.444   0.352   0.873  0.6826  1.1211 -0.5294
  169MOL    H3423890   3.205   0.445   1.048  0.8594  1.5894  0.0948
  169MOL    H3523891   3.238   0.280   1.021 -0.5307  0.4435  1.7796
  169MOL    H3623892   3.189   0.372   0.881 -0.5705 -0.9500  1.1488
  169MOL    C3723893   3.398   0.562   0.753 -0.2173  0.5089 -0.1451
  169MOL    C3823894   3.376   0.718   0.724  0.6778  0.0954 -0.0393
  169MOL    O3923895   3.522   0.548   0.697  0.0685  0.2372  0.0668
  169MOL    H4023896   3.309   0.516   0.709  0.1794  1.6395 -2.2153
  169MOL    H4123897   3.460   0.778   0.758  0.9002 -0.4743  0.4153
  169MOL    H4223898   3.278   0.747   0.763  0.4785  0.6222 -0.9038
  169MOL    H4323899   3.364   0.731   0.616 -1.6912 -2.0133 -0.0748
  169MOL    C4423900   3.528   0.447   0.609  0.1982  0.4982 -0.0175
  169MOL    C4523901   3.671   0.462   0.551  0.4578  0.3725  0.4032
  169MOL    O4623902   3.524   0.321   0.667  0.2274 -0.9080 -0.7843
  169MOL    H4723903   3.448   0.453   0.534 -1.1297 -1.7910  1.1591
  169MOL    H4823904   3.681   0.563   0.510 -1.5778  1.0193  1.4278
  169MOL    H4923905   3.678   0.390   0.469 -2.5525 -0.8850  1.1951
  169MOL    H5023906   3.742   0.452   0.633  0.7831  2.6737  0.4533
  169MOL    C5123907   3.424   0.236   0.611 -0.0598  0.6622  0.4442
  169MOL    C5223908   3.423   0.101   0.692 -0.3205 -0.1564  0.5999
  169MOL    O5323909   3.295   0.292   0.635 -0.0135 -0.1027 -0.0618
  169MOL    H5423910   3.465   0.224   0.510 -1.5656 -0.6010 -0.0414
  169MOL    H5523911   3.505   0.034   0.665  0.7059  1.8201 -1.2917
  169MOL    H5623912   3.334   0.041   0.672  0.1179 -1.1826  1.6305
  169MOL    H5723913   3.419   0.114   0.800 -1.3187  0.5907  0.4800
  169MOL    C5823914   3.199   0.288   0.533  0.3584 -0.7541  0.1371
  169MOL    C5923915   3.080   0.379   0.572 -0.4961  0.2278 -0.2076
  169MOL    O6023916   3.254   0.353   0.418 -0.3020  0.7604 -0.3738
  169MOL    H6123917   3.165   0.185   0.522 -1.5930 -0.4497  2.7471
  169MOL    H6223918   2.994   0.356   0.509  0.3806 -2.4242 -0.4968
  169MOL    H6323919   3.103   0.485   0.561  0.0883  0.1508  0.3081
  169MOL    H6423920   3.049   0.348   0.672  1.5889  0.7355  0.6086
  169MOL    C6523921   3.246   0.273   0.303 -0.6627 -0.0158  0.2853
  169MOL    C6623922   3.296   0.368   0.195 -0.2389  0.2530  0.4691
  169MOL    O6723923   3.325   0.158   0.310 -0.3653  0.0164 -0.0014
  169MOL    H6823924   3.139   0.257   0.284 -0.0343 -0.3245 -3.3515
  169MOL    H6923925   3.292   0.322   0.096 -1.7438  0.0719  0.6085
  169MOL    H7023926   3.393   0.412   0.218 -0.2814  1.1237 -0.9539
  169MOL    H7123927   3.227   0.452   0.190  0.3751  0.7976  1.0268
  169MOL    C7223928   3.282   0.055   0.227  0.1941  0.0070 -0.0496
  169MOL    C7323929   3.404   7.902   0.174  0.0027 -0.0372 -0.4273
  169MOL    O7423930   3.209   7.873   0.306 -0.6663 -0.0821 -0.0939
  169MOL    H7523931   3.226   0.088   0.139 -1.0150  0.4968  0.9019
  169MOL    H7623932   3.458   0.050   0.103  2.6174 -0.5484  1.0384
  169MOL    H7723933   3.377   7.807   0.129  0.9773 -0.7801  0.5146
  169MOL    H7823934   3.474   7.869   0.251 -0.4155 -1.2409 -0.5617
  169MOL    C7923935   3.069   7.869   0.298 -0.4844  0.5185  0.3461
  169MOL    C8023936   3.017   7.767   0.390 -0.4489  0.9037 -0.2414
  169MOL    O8123937   3.001   0.076   0.326  0.3645 -0.6412 -0.0482
  169MOL    H8223938   3.048   7.831   0.198 -1.6736  0.5515  0.5746
  169MOL    H8323939   3.021   7.796   0.495 -2.2531 -3.3075  1.0766
  169MOL    H8423940   3.091   7.688   0.381 -0.4847  0.6806  1.3274
  169MOL    H8523941   2.921   7.724   0.362 -0.1493 -0.9171  1.4775
  169MOL    C8623942   2.881   0.092   0.257  0.0818 -0.0253 -0.6426
  169MOL    C8723943   2.792   0.201   0.318  0.3500 -0.5271 -0.5048
  169MOL    O8823944   2.910   0.126   0.122 -0.0412 -0.0170 -0.1920
  169MOL    H8923945   2.825   7.912   0.258 -2.6174  1.5284 -1.2479
  169MOL    H9023946   2.695   0.209   0.269  0.8322  0.4879 -1.3218
  169MOL    H9123947   2.832   0.303   0.314  0.0924 -0.3802  0.6047
  169MOL    H9223948   2.795   0.186   0.426 -1.3927 -2.0296 -0.6516
  169MOL    C9323949   2.831   0.059   0.030 -0.3912  0.1243 -0.0426
  169MOL    C9423950   2.828   0.132   7.809  0.2406  0.0898 -0.0361
  169MOL    O9523951   2.896   7.854   0.005 -0.6075 -0.3962  0.2920
  169MOL    H9623952   2.727   0.041   0.059  0.2106 -1.0346  1.4608
  169MOL    H9723953   2.929   0.131   7.766  1.0664  1.3458  1.8122
  169MOL    H9823954   2.803   0.236   7.827 -1.1417 -0.0250 -1.1655
  169MOL    H9923955   2.762   0.074   7.744  0.0231 -0.8403  0.9960
  169MOL   C10023956   2.812   7.742   0.004  0.6146  0.4415 -1.1259
  169MOL   C10123957   2.877   7.631   7.845  0.2888  0.0487 -0.1625
  169MOL   O10223958   2.772   7.702   0.132 -0.0869  0.3233  0.6431
  169MOL   H10323959   2.726   7.781   7.863 -1.3763  1.5953  2.6771
  169MOL   H10423960   2.879   7.644   7.737  1.0037  1.1416 -0.0209
  169MOL   H10523961   2.824   7.535   7.848  2.6120 -1.3857 -2.3868
  169MOL   H10623962   2.972   7.600   7.889  0.6219  0.5118 -0.5520
  169MOL   C10723963   2.635   7.681   0.146  0.8941  0.0692  0.4046
  169MOL   C10823964   2.612   7.619   0.282 -0.5206  0.3990 -0.2380
  169MOL   O10923965   2.559   7.795   0.141 -0.1899 -0.0881  0.1886
  169MOL   H11023966   2.602   7.609   0.072  3.4222 -0.3791 -0.3152
  169MOL   H11123967   2.507   7.600   0.301 -0.8906  0.2120 -2.3536
  169MOL   H11223968   2.650   7.683   0.362  2.1801 -0.0283 -1.1354
  169MOL   H11323969   2.657   7.519   0.282 -1.5783 -0.0777 -0.0064
  169MOL   C11423970   2.452   7.796   0.050 -0.0124 -0.1517 -0.4723
  169MOL   C11523971   2.399   0.023   0.056  0.0199  0.4218  0.2225
  169MOL   O11623972   2.484   7.767   7.835  0.0348  0.5946 -0.6715
  169MOL   H11723973   2.385   7.723   0.094 -2.5303  1.9666 -0.6595
  169MOL   H11823974   2.294   0.022   0.028  0.4076  2.1164 -1.4147
  169MOL   H11923975   2.440   0.088   7.893  1.8487 -0.9821 -0.0158
  169MOL   H12023976   2.417   0.070   0.152  2.5335 -0.3396  0.1643
  169MOL   C12123977   2.403   7.677   7.762 -0.6818 -0.0363  0.4156
  169MOL   C12223978   2.464   7.674   7.621 -0.2225  0.0763  0.2992
  169MOL   O12323979   2.418   7.552   7.824  0.2078  0.2002  0.4786
  169MOL   H12423980   2.302   7.716   7.767  0.1680  2.0295  2.0443
  169MOL   H12523981   2.557   7.618   7.628  0.7936  1.6115 -0.6006
  169MOL   H12623982   2.483   7.777   7.590  2.4768 -0.2664  0.7358
  169MOL   H12723983   2.391   7.630   7.552  1.3389 -0.7784 -0.8388
  169MOL   C12823984   2.300   7.486   7.844  0.1777  1.0952  0.0145
  169MOL   C12923985   2.349   7.342   7.868  0.0035  0.6700  0.2058
  169MOL   O13023986   2.238   7.523   0.053 -0.4452  0.9830  0.6969
  169MOL   H13123987   2.232   7.480   7.759 -0.9303 -0.7883  0.9925
  169MOL   H13223988   2.280   7.259   7.854 -2.3361  2.7067 -0.6784
  169MOL   H13323989   2.398   7.340   0.052 -2.6854 -0.5716  1.5867
  169MOL   H13423990   2.426   7.322   7.794 -0.2590  1.8716 -0.4044
  169MOL   C13523991   2.103   7.548   0.046  0.2066 -0.2600 -0.1267
  169MOL   C13623992   2.065   7.600   0.191 -0.6843  0.2980 -0.1071
  169MOL   O13723993   2.069   7.652   7.864  0.2417 -0.2724 -0.4234
  169MOL   H13823994   2.051   7.454   0.029  0.0312  0.1786 -2.0992
  169MOL   H13923995   2.120   7.692   0.208  0.3767 -0.7673  2.5163
  169MOL   H14023996   2.092   7.534   0.273 -0.2761  0.8806  0.2317
  169MOL   H14123997   1.964   7.639   0.204 -0.5091  1.1458 -1.1487
  169MOL   H14223998   1.980   7.640   7.834  0.6479  1.3100 -2.3345
  170MOL     C123999   1.542   2.621   6.328 -0.3943  0.4170  1.0208
  170MOL     C224000   1.484   2.763   6.307 -0.0821  0.2056 -0.1762
  170MOL     O324001   1.488   2.551   6.434  0.0613  0.0492  0.4516
  170MOL     H424002   1.650   2.613   6.337 -0.4763 -0.5724  1.1480
  170MOL     H524003   1.379   2.775   6.281 -0.1892  0.5666  0.4292
  170MOL     H624004   1.543   2.827   6.240  1.7614  0.5193  1.7020
  170MOL     H724005   1.511   2.807   6.403 -3.1553  0.2850  0.6861
  170MOL     H824006   1.524   2.570   6.234 -0.3797  0.7470  0.8355
  170MOL     C924007   1.499   2.409   6.435  0.0998 -0.1048 -0.0853
  170MOL    C1024008   1.614   2.371   6.520 -0.2405  0.3277 -0.6397
  170MOL    O1124009   1.380   2.352   6.485  0.0148 -0.0551  0.0311
  170MOL    H1224010   1.502   2.378   6.331  1.3559  0.1066 -0.1166
  170MOL    H1324011   1.588   2.397   6.622  1.1218  0.3562 -0.2846
  170MOL    H1424012   1.708   2.425   6.505 -0.5484  1.4511  1.2699
  170MOL    H1524013   1.637   2.265   6.510  1.1321  0.7279 -2.1186
  170MOL    C1624014   1.263   2.378   6.413  0.0845 -0.5159  0.1537
  170MOL    C1724015   1.218   2.254   6.328  0.0488  0.6643  0.2217
  170MOL    O1824016   1.154   2.406   6.496 -0.6044  0.0565  0.6813
  170MOL    H1924017   1.275   2.462   6.344  1.9347 -0.1654  0.8722
  170MOL    H2024018   1.173   2.173   6.385 -1.3048  0.5559 -0.9822
  170MOL    H2124019   1.294   2.217   6.259  0.3248  1.1149  0.2792
  170MOL    H2224020   1.141   2.288   6.259  0.0780 -0.9100 -0.5924
  170MOL    C2324021   1.156   2.528   6.558 -0.1606 -0.5308 -0.4394
  170MOL    C2424022   1.044   2.611   6.504  0.2242 -0.5144  0.0572
  170MOL    O2524023   1.128   2.518   6.693  0.2813 -0.1522  0.2628
  170MOL    H2624024   1.253   2.577   6.542 -1.0322  0.5531 -2.6271
  170MOL    H2724025   1.064   2.653   6.405 -0.6187 -1.4074 -0.5083
  170MOL    H2824026   1.033   2.696   6.572  1.6046 -0.4295  0.1914
  170MOL    H2924027   0.951   2.555   6.511 -0.7458  1.1279  0.5043
  170MOL    C3024028   1.236   2.484   6.770  0.1482  0.8098  0.1641
  170MOL    C3124029   1.285   2.610   6.830 -0.6451 -0.3012  0.3816
  170MOL    O3224030   1.200   2.396   6.871 -0.1040  0.3600 -0.2507
  170MOL    H3324031   1.316   2.448   6.705 -0.0439 -2.5354  1.6846
  170MOL    H3424032   1.380   2.586   6.877 -0.9090  0.6957  1.4223
  170MOL    H3524033   1.217   2.656   6.901 -0.3809 -1.8492  1.6752
  170MOL    H3624034   1.306   2.677   6.747  0.8450  0.2761  1.2194
  170MOL    C3724035   1.150   2.274   6.825  0.0859  0.4882 -0.3955
  170MOL    C3824036   1.257   2.170   6.876 -0.3937 -0.2368 -0.0388
  170MOL    O3924037   1.032   2.250   6.895 -0.5203  0.0826  0.3752
  170MOL    H4024038   1.135   2.270   6.717 -1.9619 -0.0854 -0.1176
  170MOL    H4124039   1.239   2.066   6.850 -2.1030  0.0101  0.0739
  170MOL    H4224040   1.253   2.174   6.985 -1.1544  3.6398 -0.1267
  170MOL    H4324041   1.352   2.207   6.838 -0.4430 -0.5696 -0.4893
  170MOL    C4424042   0.921   2.302   6.828 -0.3430 -1.0503 -0.0464
  170MOL    C4524043   0.856   2.181   6.753 -0.1141  0.2523  0.1929
  170MOL    O4624044   0.834   2.346   6.932  0.2904 -0.2721  0.1049
  170MOL    H4724045   0.949   2.377   6.754  0.3654 -0.5474  0.7274
  170MOL    H4824046   0.769   2.208   6.692  0.4649  0.0928 -0.7191
  170MOL    H4924047   0.814   2.108   6.823 -0.7919 -0.1540 -0.6249
  170MOL    H5024048   0.934   2.138   6.690  0.6212  0.2909  1.0747
  170MOL    C5124049   0.858   2.476   6.976 -0.5263 -0.5008 -0.5301
  170MOL    C5224050   0.742   2.562   6.933  0.3331 -0.2241  0.6240
  170MOL    O5324051   0.849   2.474   7.121  0.3178  0.1803 -0.0963
  170MOL    H5424052   0.946   2.526   6.934 -0.1053 -0.2048  0.6834
  170MOL    H5524053   0.652   2.528   6.985  0.2939  1.2119  1.5547
  170MOL    H5624054   0.732   2.567   6.825 -1.6508 -0.0998  0.7914
  170MOL    H5724055   0.784   2.659   6.961  0.6574 -0.0676 -0.3915
  170MOL    C5824056   0.966   2.426   7.172  0.2642  0.7823  0.5399
  170MOL    C5924057   1.046   2.544   7.220 -0.3729  0.0524  0.0564
  170MOL    O6024058   0.940   2.341   7.281 -0.0485 -0.7445  0.9856
  170MOL    H6124059   1.031   2.372   7.103  1.3216  3.3143 -0.5042
  170MOL    H6224060   1.003   2.593   7.308  0.2125  1.5329 -0.4700
  170MOL    H6324061   1.054   2.610   7.134  0.4626 -0.2644 -0.1070
  170MOL    H6424062   1.144   2.505   7.244 -0.3098 -0.2114 -0.6229
  170MOL    C6524063   0.887   2.216   7.242  0.0416 -0.2143  0.5844
  170MOL    C6624064   1.007   2.116   7.246  0.3351 -0.1055 -0.0181
  170MOL    O6724065   0.796   2.174   7.340 -0.0728 -0.1033 -0.5343
  170MOL    H6824066   0.838   2.216   7.144  0.1890 -1.3717  0.5021
  170MOL    H6924067   1.026   2.091   7.350  0.4711 -2.6946 -0.6184
  170MOL    H7024068   1.094   2.149   7.189 -0.6840  1.5910 -0.6206
  170MOL    H7124069   0.976   2.023   7.198 -0.2333  0.0197  0.1052
  170MOL    C7224070   0.683   2.248   7.371  0.6103  0.2202 -0.0044
  170MOL    C7324071   0.557   2.187   7.311 -0.5943 -0.2564 -0.2691
  170MOL    O7424072   0.664   2.264   7.506  0.0159  0.3179  0.1872
  170MOL    H7524073   0.696   2.347   7.327  1.2614  0.4983  0.7874
  170MOL    H7624074   0.562   2.171   7.203  1.2659  0.6708 -0.3406
  170MOL    H7724075   0.471   2.239   7.354  1.5821  1.6817  1.8891
  170MOL    H7824076   0.543   2.086   7.351  2.5753 -0.6012  0.0380
  170MOL    C7924077   0.772   2.326   7.569  0.8578 -0.9051  0.2785
  170MOL    C8024078   0.740   2.472   7.592  0.4085 -0.2682 -0.3126
  170MOL    O8124079   0.794   2.266   7.690  0.1882  0.6550 -0.3581
  170MOL    H8224080   0.860   2.331   7.505  0.3805 -0.7107 -0.3682
  170MOL    H8324081   0.824   2.517   7.645  0.2106  0.6109 -0.7445
  170MOL    H8424082   0.652   2.475   7.656  0.3763 -0.7213 -0.3303
  170MOL    H8524083   0.730   2.532   7.502  1.1903 -0.2842 -0.4143
  170MOL    C8624084   0.865   2.150   7.678 -0.8119 -0.1461 -0.2931
  170MOL    C8724085   1.013   2.184   7.678  0.2227 -0.2089 -0.1248
  170MOL    O8824086   0.826   2.067   7.784 -0.2166 -0.3579 -0.1350
  170MOL    H8924087   0.836   2.112   7.581  0.0131  1.5575 -1.2355
  170MOL    H9024088   1.057   2.084   7.676  1.4466  0.3343 -1.6003
  170MOL    H9124089   1.042   2.231   7.771 -0.6830 -0.2019  0.1546
  170MOL    H9224090   1.044   2.237   7.588 -3.3353 -1.8784 -2.4593
  170MOL    C9324091   0.693   2.011   7.778 -0.0329  0.0430 -0.0278
  170MOL    C9424092   0.700   1.863   7.734 -0.1075  0.6176  0.3883
  170MOL    O9524093   0.631   2.016   7.901  0.0111  0.4742  0.0004
  170MOL    H9624094   0.628   2.063   7.707 -0.3921  0.4509  0.6016
  170MOL    H9724095   0.771   1.800   7.787 -0.1335 -1.2558 -1.7223
  170MOL    H9824096   0.730   1.854   7.630  0.3038 -0.7306  0.6085
  170MOL    H9924097   0.607   1.806   7.742  0.1291  0.2093  0.2721
  170MOL   C10024098   0.591   2.142   0.020  0.8147  0.1622 -0.1295
  170MOL   C10124099   0.443   2.171   7.892 -0.0003  0.0004  0.4394
  170MOL   O10224100   0.590   2.163   0.162  0.3553  0.3605  0.1810
  170MOL   H10324101   0.654   2.212   7.880  0.3725  0.5955 -0.0962
  170MOL   H10424102   0.436   2.198   7.787  0.7068  2.2239  0.9359
  170MOL   H10524103   0.408   2.248   0.046  0.9455  0.2370  0.6648
  170MOL   H10624104   0.378   2.083   7.892  1.5413 -1.1800  1.0128
  170MOL   C10724105   0.722   2.156   0.212  0.0691 -0.2151 -0.0134
  170MOL   C10824106   0.754   2.297   0.265  0.1927 -0.2919  0.5755
  170MOL   O10924107   0.717   2.071   0.329  0.5504  0.0117 -0.2691
  170MOL   H11024108   0.790   2.125   0.133 -1.3558  0.7560 -1.6651
  170MOL   H11124109   0.765   2.361   0.178  1.1638 -0.9981  0.1670
  170MOL   H11224110   0.853   2.293   0.311  0.6953 -0.6806 -0.5258
  170MOL   H11324111   0.674   2.335   0.328 -0.0125  2.5684 -1.3713
  170MOL   C11424112   0.724   1.938   0.301  0.8173 -0.1749 -0.8422
  170MOL   C11524113   0.870   1.900   0.343  0.5275 -0.1237 -0.2372
  170MOL   O11624114   0.634   1.865   0.377 -0.4801 -0.1338 -0.1340
  170MOL   H11724115   0.706   1.914   0.196  2.7513  0.1172 -1.2717
  170MOL   H11824116   0.875   1.933   0.446 -0.9882 -3.7647  1.0867
  170MOL   H11924117   0.948   1.956   0.291 -1.6614  2.9766 -0.2998
  170MOL   H12024118   0.892   1.793   0.348 -0.8595 -0.3716  0.7007
  170MOL   C12124119   0.495   1.875   0.341  0.0354 -0.6545  0.4561
  170MOL   C12224120   0.445   1.739   0.288 -0.0995  0.0104  0.3069
  170MOL   O12324121   0.405   1.911   0.448 -0.0279  0.5754 -0.3841
  170MOL   H12424122   0.479   1.950   0.264 -1.2101 -1.1392  0.2350
  170MOL   H12524123   0.436   1.677   0.377 -0.2803 -1.9300 -1.0469
  170MOL   H12624124   0.512   1.689   0.218 -0.4465 -0.1917  0.1192
  170MOL   H12724125   0.342   1.742   0.254 -0.3361 -1.5739  0.8376
  170MOL   C12824126   0.413   2.049   0.482 -0.3179 -0.7011  0.3782
  170MOL   C12924127   0.272   2.116   0.472 -0.0769 -0.3279  0.6724
  170MOL   O13024128   0.458   2.062   0.612 -0.3694  0.1969  0.1785
  170MOL   H13124129   0.482   2.096   0.412 -1.6059  0.6826  0.0319
  170MOL   H13224130   0.268   2.212   0.524 -0.3791  1.0942 -1.9325
  170MOL   H13324131   0.208   2.044   0.525 -0.3755  0.4432  1.3842
  170MOL   H13424132   0.247   2.127   0.367 -1.8184 -1.0310  0.9845
  170MOL   C13524133   0.597   2.057   0.631  0.2748 -0.5897  0.7117
  170MOL   C13624134   0.619   2.118   0.768  0.2182 -0.7886  0.3746
  170MOL   O13724135   0.649   1.927   0.639  0.2929  0.2929 -0.4479
  170MOL   H13824136   0.649   2.116   0.556 -0.3433 -0.9103  0.0226
  170MOL   H13924137   0.726   2.113   0.788  0.3002  0.8578  0.3805
  170MOL   H14024138   0.567   2.053   0.839 -1.6466  0.6193  0.3462
  170MOL   H14124139   0.583   2.221   0.771  0.3334 -0.6855 -1.6314
  170MOL   H14224140   0.640   1.880   0.558 -0.9810 -3.5203  1.7739
  171MOL     C124141   1.288   7.058   7.149 -0.2163  0.1652 -0.3041
  171MOL     C224142   1.228   7.199   7.172  0.3177 -0.5464 -0.7085
  171MOL     O324143   1.403   7.047   7.236  0.4383 -0.6575  0.0829
  171MOL     H424144   1.325   7.043   7.047 -0.8630 -0.0103 -0.5152
  171MOL     H524145   1.148   7.217   7.100 -1.0379 -2.6884  0.2038
  171MOL     H624146   1.307   7.274   7.161 -0.5908  0.2385 -2.0371
  171MOL     H724147   1.191   7.202   7.274  0.7740 -0.7550 -0.5348
  171MOL     H824148   1.220   6.977   7.174  1.9405 -1.4508  0.5242
  171MOL     C924149   1.460   6.923   7.233 -0.5604 -0.3298  0.6113
  171MOL    C1024150   1.583   6.950   7.145 -0.1969 -0.4831 -0.2420
  171MOL    O1124151   1.496   6.861   7.357  0.4050  0.3344 -0.2090
  171MOL    H1224152   1.391   6.852   7.187 -2.5334  0.7141  1.8649
  171MOL    H1324153   1.642   6.859   7.133 -3.0489 -2.2816 -1.0083
  171MOL    H1424154   1.639   7.034   7.187 -0.1803 -0.9858  0.7472
  171MOL    H1524155   1.559   6.983   7.044  2.3321 -2.7153 -1.6342
  171MOL    C1624156   1.385   6.866   7.448  0.1601 -0.1458 -0.0941
  171MOL    C1724157   1.332   6.724   7.480 -0.1853 -0.1857  0.7794
  171MOL    O1824158   1.417   6.922   7.570 -0.3357 -0.6344 -0.2819
  171MOL    H1924159   1.297   6.922   7.417 -0.2605 -0.0468  1.2129
  171MOL    H2024160   1.264   6.687   7.404  1.0648 -0.2052 -0.3532
  171MOL    H2124161   1.287   6.717   7.579 -1.0430 -3.2077  0.2106
  171MOL    H2224162   1.416   6.654   7.483  0.2920  0.3251 -0.4558
  171MOL    C2324163   1.448   7.059   7.558  0.3221 -0.1161  0.1181
  171MOL    C2424164   1.324   7.142   7.600 -0.5806  0.4425  0.0526
  171MOL    O2524165   1.550   7.088   7.643  0.6398 -0.3962  0.2304
  171MOL    H2624166   1.481   7.092   7.460  0.5382 -0.4423  0.0820
  171MOL    H2724167   1.245   7.111   7.533  0.8858  0.7742 -1.8788
  171MOL    H2824168   1.344   7.249   7.584  1.7470 -0.0404 -0.5500
  171MOL    H2924169   1.284   7.122   7.699  1.9462  0.5504  1.1464
  171MOL    C3024170   1.669   7.015   7.627 -0.2305 -0.4366 -0.6311
  171MOL    C3124171   1.755   7.099   7.537 -0.0325  0.0018  0.4295
  171MOL    O3224172   1.735   7.006   7.749  0.1680  0.2482 -0.0160
  171MOL    H3324173   1.654   6.915   7.587 -2.6630  0.4876 -2.1735
  171MOL    H3424174   1.746   7.206   7.555 -0.4757 -0.2314  1.6477
  171MOL    H3524175   1.722   7.083   7.435  2.5297 -0.9626 -0.2786
  171MOL    H3624176   1.856   7.057   7.540  0.9153  2.2136  0.4488
  171MOL    C3724177   1.642   6.953   7.846 -0.1529  0.2544 -0.5825
  171MOL    C3824178   1.623   6.803   7.819 -0.7975 -0.3480  0.3940
  171MOL    O3924179   1.697   6.954   0.063  0.1114  0.1218  0.7162
  171MOL    H4024180   1.542   6.997   7.847  0.4613  1.6777 -0.0708
  171MOL    H4124181   1.575   6.781   7.724 -0.3173 -0.4019  0.1674
  171MOL    H4224182   1.556   6.750   7.888 -0.5400  0.2138  1.0797
  171MOL    H4324183   1.720   6.755   7.813 -0.6173  0.3081 -2.1680
  171MOL    C4424184   1.726   7.083   0.102 -0.0363  0.2309  0.0526
  171MOL    C4524185   1.596   7.146   0.153  0.1435 -0.2380 -0.5219
  171MOL    O4624186   1.823   7.089   0.200 -0.7587  0.0541 -0.2288
  171MOL    H4724187   1.760   7.145   0.019  0.3236  0.9224  0.7137
  171MOL    H4824188   1.513   7.149   0.082 -1.4994  0.7192  1.4027
  171MOL    H4924189   1.618   7.247   0.188 -3.9228  0.5292  0.1442
  171MOL    H5024190   1.556   7.103   0.245 -1.2090 -1.2715 -1.5636
  171MOL    C5124191   1.947   7.055   0.155  1.0542  0.0836 -0.7480
  171MOL    C5224192   2.049   7.170   0.153 -0.3213 -0.0665  0.7064
  171MOL    O5324193   2.009   6.953   0.239 -0.2217 -0.0237 -0.5407
  171MOL    H5424194   1.942   7.017   0.053  1.4907  0.1586 -0.7984
  171MOL    H5524195   2.151   7.141   0.129 -0.3490 -1.3718  2.0724
  171MOL    H5624196   2.052   7.209   0.255  2.7992 -1.2683  1.1378
  171MOL    H5724197   2.008   7.244   0.084  0.2861  0.2252  0.6602
  171MOL    C5824198   1.933   6.836   0.250  0.4283 -0.3480  0.4846
  171MOL    C5924199   2.014   6.732   0.163 -0.8840  0.3187  0.2758
  171MOL    O6024200   1.935   6.796   0.384  0.1055  0.0929  0.5818
  171MOL    H6124201   1.832   6.851   0.212  1.2747 -1.5113 -2.3725
  171MOL    H6224202   1.948   6.649   0.138 -0.9437  0.1364  1.0079
  171MOL    H6324203   2.109   6.704   0.210 -0.2717 -0.5523 -1.4428
  171MOL    H6424204   2.040   6.776   0.067 -0.6651 -2.6041 -1.0856
  171MOL    C6524205   1.829   6.847   0.459  0.4669 -0.1597  0.0843
  171MOL    C6624206   1.748   6.727   0.500 -0.0395 -0.9098  0.2987
  171MOL    O6724207   1.875   6.910   0.571 -0.0289 -0.1561  0.1610
  171MOL    H6824208   1.766   6.914   0.400 -0.0377  0.0047  0.7996
  171MOL    H6924209   1.823   6.665   0.549  0.1766 -0.2230  0.8514
  171MOL    H7024210   1.702   6.679   0.414 -0.7915 -1.3674  0.9440
  171MOL    H7124211   1.672   6.765   0.568 -0.4805  0.3185 -0.8652
  171MOL    C7224212   1.959   7.022   0.550  0.0373  0.8315 -0.5137
  171MOL    C7324213   1.886   7.152   0.513 -0.3818 -0.1000 -0.3886
  171MOL    O7424214   2.032   7.049   0.666  0.0738  0.0349  0.1559
  171MOL    H7524215   2.036   6.992   0.478  2.9492  1.7494  2.0988
  171MOL    H7624216   1.954   7.229   0.478 -3.3893  1.0062 -4.2202
  171MOL    H7724217   1.847   7.197   0.604  2.2688  1.3407  0.0536
  171MOL    H7824218   1.799   7.136   0.449 -0.4722 -0.6481 -0.1325
  171MOL    C7924219   2.094   6.935   0.728 -0.2387 -0.4922 -0.0962
  171MOL    C8024220   2.245   6.955   0.701  0.1055 -0.3809  0.2628
  171MOL    O8124221   2.070   6.924   0.863 -0.0165  0.3519  0.3816
  171MOL    H8224222   2.065   6.844   0.676  0.2288 -1.1491  0.7948
  171MOL    H8324223   2.306   6.874   0.742  0.0578 -0.1744  0.7395
  171MOL    H8424224   2.283   7.047   0.745 -1.1490 -0.0819  0.7567
  171MOL    H8524225   2.253   6.948   0.593 -0.5291  0.8024  0.1292
  171MOL    C8624226   1.952   6.853   0.894  0.6306 -0.2066 -0.0646
  171MOL    C8724227   2.001   6.726   0.966  0.2306 -0.5446  0.2344
  171MOL    O8824228   1.874   6.913   0.987 -0.3771 -0.2425 -0.3056
  171MOL    H8924229   1.889   6.828   0.808  0.4325 -0.8722  0.2716
  171MOL    H9024230   1.916   6.671   1.006 -0.1922 -0.6994 -0.8750
  171MOL    H9124231   2.066   6.751   1.051  0.7910 -0.2918 -0.2668
  171MOL    H9224232   2.062   6.670   0.894 -2.9214  0.1220 -3.0631
  171MOL    C9324233   1.794   7.016   0.946  0.2459 -0.1033  0.1120
  171MOL    C9424234   1.653   6.958   0.924 -0.5306 -0.4673 -0.3276
  171MOL    O9524235   1.791   7.118   1.043  0.0804 -0.1318 -0.1443
  171MOL    H9624236   1.827   7.059   0.851  3.5677  0.3388  1.4025
  171MOL    H9724237   1.655   6.859   0.878 -3.1362  0.4832 -2.6020
  171MOL    H9824238   1.600   7.015   0.848 -0.5950 -2.1658 -1.5955
  171MOL    H9924239   1.592   6.967   1.013 -2.5068 -2.1715 -1.4589
  171MOL   C10024240   1.913   7.164   1.086 -0.4344  0.2416 -0.4019
  171MOL   C10124241   1.912   7.308   1.052 -0.5397 -0.5098  0.3795
  171MOL   O10224242   1.919   7.157   1.222 -0.3163 -0.0715  0.4613
  171MOL   H10324243   1.996   7.115   1.036  0.0289  0.5129  0.0860
  171MOL   H10424244   2.011   7.344   1.081 -0.6744  0.4197 -0.2854
  171MOL   H10524245   1.843   7.374   1.106  0.6282 -1.1943  2.7622
  171MOL   H10624246   1.907   7.316   0.944  0.4544 -0.5504  0.3281
  171MOL   C10724247   1.970   7.030   1.267 -0.3256 -0.0866 -0.5447
  171MOL   C10824248   2.113   7.066   1.320 -0.3527  0.1047  0.2956
  171MOL   O10924249   1.897   6.987   1.376 -0.7405 -0.1779 -0.5533
  171MOL   H11024250   1.981   6.948   1.195 -1.0065 -1.3970  0.8221
  171MOL   H11124251   2.172   6.984   1.362  1.7496  0.7758 -1.2472
  171MOL   H11224252   2.106   7.149   1.390  0.9824  1.6137 -1.3227
  171MOL   H11324253   2.174   7.099   1.236  0.4887 -0.7462  0.5595
  171MOL   C11424254   1.767   6.942   1.342  0.1563 -0.2265  1.0266
  171MOL   C11524255   1.763   6.788   1.355 -0.0936 -0.3019 -0.5242
  171MOL   O11624256   1.676   6.997   1.429 -0.3425 -0.8439  0.4059
  171MOL   H11724257   1.738   6.973   1.242 -1.8848 -1.7273  1.1372
  171MOL   H11824258   1.661   6.751   1.366  0.6635 -2.1016  0.7056
  171MOL   H11924259   1.821   6.753   1.441 -2.9941 -0.4692  1.4523
  171MOL   H12024260   1.817   6.748   1.269 -1.0573 -1.3650 -0.6388
  171MOL   C12124261   1.632   7.130   1.404 -0.1328  1.0522 -0.7532
  171MOL   C12224262   1.490   7.113   1.356 -0.4150 -0.5166  0.3060
  171MOL   O12324263   1.627   7.201   1.524 -0.0265 -0.2153  0.0842
  171MOL   H12424264   1.689   7.182   1.327  0.4046  1.5735 -0.0145
  171MOL   H12524265   1.479   7.054   1.265 -1.8880 -1.9374  1.3684
  171MOL   H12624266   1.459   7.216   1.335 -1.2549 -0.7985  0.1389
  171MOL   H12724267   1.421   7.069   1.428 -2.7323 -0.6544 -1.9507
  171MOL   C12824268   1.748   7.254   1.564  0.4301 -0.1257 -0.4120
  171MOL   C12924269   1.727   7.403   1.562 -0.1386  0.1232 -0.2261
  171MOL   O13024270   1.778   7.228   1.696  0.5135 -0.1410 -0.0133
  171MOL   H13124271   1.828   7.222   1.497  3.5973  1.9376  2.2669
  171MOL   H13224272   1.723   7.438   1.459  1.3841 -1.1146 -0.7255
  171MOL   H13324273   1.800   7.461   1.619 -0.3999  0.7933 -0.5740
  171MOL   H13424274   1.623   7.411   1.594  0.2794 -1.1816  1.5512
  171MOL   C13524275   1.851   7.112   1.711  0.1744 -0.2653 -0.9621
  171MOL   C13624276   1.902   7.125   1.850 -0.5001  0.3355  0.3353
  171MOL   O13724277   1.773   7.000   1.696  0.0454 -0.1867 -0.0727
  171MOL   H13824278   1.931   7.099   1.638 -0.3783 -0.7562 -1.4876
  171MOL   H13924279   1.826   7.117   1.928 -0.4659  1.0133  0.4367
  171MOL   H14024280   1.950   7.222   1.861 -0.9494  0.4129  1.7175
  171MOL   H14124281   1.962   7.036   1.868 -1.0352  0.0904  0.9371
  171MOL   H14224282   1.748   6.992   1.605  1.5759  1.2384 -0.6546
  172MOL     C124283   2.311   2.258   2.678  0.0484  0.0525 -0.3866
  172MOL     C224284   2.191   2.329   2.610 -0.3513  0.2358  0.3538
  172MOL     O324285   2.332   2.124   2.637 -0.0924  0.1642  0.2014
  172MOL     H424286   2.290   2.255   2.785 -0.0489 -1.4372 -0.4356
  172MOL     H524287   2.216   2.336   2.504  2.5530  1.5973  1.0749
  172MOL     H624288   2.165   2.431   2.639  2.2042  0.6046  1.4650
  172MOL     H724289   2.100   2.269   2.608  0.3121 -0.8575  1.7745
  172MOL     H824290   2.402   2.318   2.671 -1.2308  2.3041  1.5586
  172MOL     C924291   2.436   2.061   2.711  0.3642 -0.5729  0.4394
  172MOL    C1024292   2.360   1.970   2.796 -0.1698 -0.1065 -0.3646
  172MOL    O1124293   2.524   1.989   2.629  0.0153  0.0718  0.3298
  172MOL    H1224294   2.500   2.123   2.774  1.2920 -2.1077  1.0413
  172MOL    H1324295   2.291   2.020   2.864 -1.6486 -1.2970 -0.9701
  172MOL    H1424296   2.428   1.900   2.846 -1.7239 -1.4949 -0.1824
  172MOL    H1524297   2.302   1.912   2.725  0.8741 -1.3684 -0.2085
  172MOL    C1624298   2.612   2.064   2.548 -0.3711  0.2773  0.0415
  172MOL    C1724299   2.735   2.102   2.628 -0.3651  0.2373 -0.0483
  172MOL    O1824300   2.656   1.986   2.442  0.4637 -0.3503  0.2705
  172MOL    H1924301   2.552   2.148   2.513 -2.1573  0.0011  2.3651
  172MOL    H2024302   2.822   2.133   2.570  0.2528 -1.4609 -0.0684
  172MOL    H2124303   2.760   2.018   2.693 -2.9225  0.2611  1.0233
  172MOL    H2224304   2.697   2.183   2.690  2.1815  1.1084  0.4049
  172MOL    C2324305   2.554   1.949   2.352 -0.6914 -0.1515  0.4069
  172MOL    C2424306   2.559   2.053   2.239  0.1850  0.3329 -0.0827
  172MOL    O2524307   2.570   1.818   2.295 -0.1286 -0.1799  0.4424
  172MOL    H2624308   2.459   1.963   2.403 -0.4613 -4.2279  2.1591
  172MOL    H2724309   2.471   2.040   2.175 -1.3442  0.7784  1.8898
  172MOL    H2824310   2.654   2.030   2.190  1.0389 -0.1764  1.7700
  172MOL    H2924311   2.557   2.150   2.287 -1.5086 -1.4387  3.5885
  172MOL    C3024312   2.540   1.709   2.379  0.1461  0.3477  0.3100
  172MOL    C3124313   2.407   1.643   2.327 -0.4293  0.7520 -0.0037
  172MOL    O3224314   2.646   1.615   2.374 -0.3539  0.0506 -0.0994
  172MOL    H3324315   2.527   1.727   2.485 -0.5229 -0.6048  0.4031
  172MOL    H3424316   2.382   1.571   2.405  0.0808  1.6455  0.9996
  172MOL    H3524317   2.418   1.590   2.233  0.8539  1.7858 -0.4579
  172MOL    H3624318   2.331   1.720   2.317 -0.7159  0.7337  1.7875
  172MOL    C3724319   2.749   1.654   2.455 -0.2842  0.1746  0.1457
  172MOL    C3824320   2.762   1.575   2.579 -0.3944 -0.5798  0.7673
  172MOL    O3924321   2.859   1.648   2.377 -0.1595  0.2965 -0.2837
  172MOL    H4024322   2.741   1.758   2.488  1.8585 -0.4609  2.8303
  172MOL    H4124323   2.663   1.575   2.625 -2.2412 -0.3309 -2.9895
  172MOL    H4224324   2.830   1.628   2.645 -0.7181 -0.2820  0.8660
  172MOL    H4324325   2.794   1.473   2.557 -2.7209 -0.9202 -1.3554
  172MOL    C4424326   2.882   1.754   2.286  0.2805  0.7627  0.7039
  172MOL    C4524327   2.988   1.850   2.350 -0.4278 -0.2061  0.2582
  172MOL    O4624328   2.931   1.706   2.167  0.8060 -0.0813 -0.1938
  172MOL    H4724329   2.796   1.816   2.263  1.3631  0.6405 -4.1276
  172MOL    H4824330   3.081   1.803   2.381 -0.8036 -1.7419 -0.8373
  172MOL    H4924331   2.936   1.908   2.426 -3.9632 -0.9564 -1.4728
  172MOL    H5024332   3.003   1.933   2.281  0.6792 -0.6931 -0.0964
  172MOL    C5124333   2.821   1.675   2.080 -0.9527  0.4418  0.2832
  172MOL    C5224334   2.814   1.786   1.978 -0.1580 -0.0967 -0.0375
  172MOL    O5324335   2.849   1.552   2.022  0.1250 -0.1868 -0.0004
  172MOL    H5424336   2.720   1.676   2.122 -0.5849 -1.0963  1.2135
  172MOL    H5524337   2.789   1.877   2.034  1.5455 -0.5598  1.4983
  172MOL    H5624338   2.737   1.752   1.908  2.4328 -1.1392 -2.4631
  172MOL    H5724339   2.913   1.791   1.934  0.4089 -0.2763  1.2100
  172MOL    C5824340   2.822   1.452   2.106  0.2104 -0.1116 -0.3880
  172MOL    C5924341   2.699   1.375   2.041 -0.3176 -0.4372 -0.3487
  172MOL    O6024342   2.924   1.359   2.116  0.1473  0.1435  0.1489
  172MOL    H6124343   2.782   1.489   2.201  0.5259 -0.9268  0.0685
  172MOL    H6224344   2.676   1.281   2.092 -1.1478 -1.1625 -2.0142
  172MOL    H6324345   2.733   1.368   1.937  0.0454  3.7323 -0.5728
  172MOL    H6424346   2.611   1.438   2.050 -0.7776 -1.2587  1.0059
  172MOL    C6524347   3.009   1.373   2.226 -1.2109 -1.1921  0.3921
  172MOL    C6624348   3.008   1.254   2.329 -0.0754 -0.3223  0.6118
  172MOL    O6724349   3.144   1.387   2.179 -0.2462  0.0488  0.0362
  172MOL    H6824350   2.999   1.462   2.289  1.9551 -0.5783  0.0878
  172MOL    H6924351   2.910   1.241   2.375  0.2004 -5.1198  0.1387
  172MOL    H7024352   3.083   1.284   2.401  0.4185  0.6818 -0.3005
  172MOL    H7124353   3.042   1.164   2.278  1.0821  1.3886 -1.7587
  172MOL    C7224354   3.171   1.506   2.109 -0.1575  0.1018  0.3850
  172MOL    C7324355   3.249   1.609   2.189 -0.3656 -0.0538 -0.4828
  172MOL    O7424356   3.248   1.483   1.996  0.3116  0.4134  0.4537
  172MOL    H7524357   3.074   1.551   2.090  0.0626  0.2787 -0.3156
  172MOL    H7624358   3.250   1.691   2.117  0.5323 -1.4196 -2.0613
  172MOL    H7724359   3.354   1.580   2.196 -0.1264  0.9020 -0.0282
  172MOL    H7824360   3.199   1.635   2.283 -1.2342  2.3679 -1.5893
  172MOL    C7924361   3.181   1.420   1.892  0.2179 -0.5169  0.1498
  172MOL    C8024362   3.215   1.514   1.775 -0.1897  0.3443 -1.1469
  172MOL    O8124363   3.237   1.298   1.867  0.0600  0.3790  0.1760
  172MOL    H8224364   3.074   1.411   1.909  0.0484 -1.3622 -1.3124
  172MOL    H8324365   3.323   1.526   1.783 -0.0686  0.2538 -2.4854
  172MOL    H8424366   3.175   1.613   1.799  0.4787  0.3035  0.2271
  172MOL    H8524367   3.189   1.482   1.674 -1.4160  1.2845 -1.1457
  172MOL    C8624368   3.190   1.184   1.942 -0.2211  0.0662 -0.7306
  172MOL    C8724369   3.102   1.108   1.847  0.3557 -0.3808 -0.3292
  172MOL    O8824370   3.294   1.103   1.983 -0.7828 -0.0005 -0.2779
  172MOL    H8924371   3.134   1.202   2.034 -1.4733  0.2378 -1.5234
  172MOL    H9024372   3.017   1.160   1.803  1.1966  1.1686 -0.1640
  172MOL    H9124373   3.072   1.022   1.907  3.0949 -2.0870 -1.3434
  172MOL    H9224374   3.157   1.058   1.767  0.9031 -0.0631 -0.1600
  172MOL    C9324375   3.371   1.148   2.089 -0.4581  0.1571 -0.2667
  172MOL    C9424376   3.347   1.043   2.198  0.3010 -0.0670 -0.8346
  172MOL    O9524377   3.510   1.144   2.049 -0.1957  0.6744  0.3831
  172MOL    H9624378   3.347   1.248   2.126 -0.3948 -1.2256  3.7485
  172MOL    H9724379   3.388   0.944   2.182 -1.0663 -0.7230 -0.3466
  172MOL    H9824380   3.240   1.032   2.219  0.5011 -0.4086  0.0426
  172MOL    H9924381   3.382   1.081   2.294 -1.5074  0.1878 -0.2581
  172MOL   C10024382   3.559   1.258   1.982 -0.1684 -0.0142  0.3319
  172MOL   C10124383   3.645   1.337   2.086 -0.0757 -0.8129 -0.3833
  172MOL   O10224384   3.634   1.228   1.859  0.5944  0.1275  0.0849
  172MOL   H10324385   3.482   1.332   1.958  0.9180  1.1228  0.2890
  172MOL   H10424386   3.674   1.435   2.048  0.0887 -0.1328  1.4751
  172MOL   H10524387   3.730   1.278   2.119  1.4135  0.1559 -2.3847
  172MOL   H10624388   3.591   1.367   2.175  0.0985 -0.1921 -0.4880
  172MOL   C10724389   3.548   1.176   1.761 -0.1425  0.1907 -0.2209
  172MOL   C10824390   3.533   1.288   1.657 -0.0246  0.2686  0.2545
  172MOL   O10924391   3.607   1.067   1.701 -0.2230 -0.3585  0.1250
  172MOL   H11024392   3.452   1.148   1.805  0.2452  0.2505  0.6670
  172MOL   H11124393   3.635   1.305   1.625 -0.0421  1.4004  0.7992
  172MOL   H11224394   3.485   1.378   1.694  0.9746  0.7887  0.2810
  172MOL   H11324395   3.481   1.243   1.572  0.6006 -1.2901  0.6820
  172MOL   C11424396   3.622   0.956   1.780 -0.1038 -0.0100 -0.6872
  172MOL   C11524397   3.501   0.857   1.770  0.1447  0.0964 -0.8490
  172MOL   O11624398   3.740   0.879   1.744 -0.1359 -0.0433 -0.3795
  172MOL   H11724399   3.648   0.969   1.885 -1.1735 -1.0607 -0.2746
  172MOL   H11824400   3.531   0.755   1.791 -1.0352 -0.3803 -1.4082
  172MOL   H11924401   3.472   0.868   1.666 -0.7589 -1.4365 -0.7746
  172MOL   H12024402   3.420   0.886   1.838  2.2296  1.9556  0.9117
  172MOL   C12124403   3.833   0.929   1.645  0.4441  0.1855 -0.5887
  172MOL   C12224404   3.920   1.040   1.707  0.1880  0.3131 -0.9301
  172MOL   O12324405   3.922   0.824   1.624  0.4288  0.1611  0.1114
  172MOL   H12424406   3.781   0.963   1.556 -0.8812 -0.6405 -0.1518
  172MOL   H12524407   3.975   1.080   1.621 -0.5808  0.4480 -1.3703
  172MOL   H12624408   3.984   1.002   1.786 -0.0546 -0.3946 -1.0784
  172MOL   H12724409   3.859   1.116   1.756 -1.6019 -0.9604 -1.1747
  172MOL   C12824410   3.857   0.710   1.575  0.6349  0.1054 -0.3445
  172MOL   C12924411   3.906   0.689   1.429  0.4414 -0.7184 -0.1860
  172MOL   O13024412   3.902   0.600   1.639 -0.4970  0.2997  0.1525
  172MOL   H13124413   3.748   0.707   1.577  0.6722 -0.5358  0.9197
  172MOL   H13224414   3.913   0.784   1.376 -2.0969 -1.3423 -1.6990
  172MOL   H13324415   3.851   0.617   1.369 -0.2985 -0.4220  0.1306
  172MOL   H13424416   4.009   0.653   1.432 -0.2547 -2.6806  0.8004
  172MOL   C13524417   3.847   0.593   1.769 -0.8803 -0.4573  0.9142
  172MOL   C13624418   3.897   0.452   1.819  0.7403  0.6867 -1.0005
  172MOL   O13724419   3.905   0.684   1.858  0.1493  0.3867  0.0265
  172MOL   H13824420   3.738   0.599   1.777 -0.9148  1.5094 -0.6947
  172MOL   H13924421   3.858   0.369   1.760 -0.2299  1.0985 -0.9528
  172MOL   H14024422   3.879   0.439   1.926  2.1943  0.8580 -0.7309
  172MOL   H14124423   4.006   0.452   1.822  0.6948  1.1495  1.2905
  172MOL   H14224424   3.872   0.767   1.827 -1.0430  0.5653  1.6813
  173MOL     C124425   7.165   7.137   2.072 -0.0543 -0.1285 -0.2744
  173MOL     C224426   7.088   7.221   1.972  0.4568  0.4043 -0.1270
  173MOL     O324427   7.118   7.007   2.066  0.0661  0.0896  0.2649
  173MOL     H424428   7.165   7.171   2.176 -0.5825  1.2992 -0.7264
  173MOL     H524429   7.122   7.323   1.985 -2.2250  0.8265  4.4364
  173MOL     H624430   6.982   7.233   1.993  0.7646  0.1949  1.5672
  173MOL     H724431   7.103   7.172   1.875  1.9081 -0.3224  0.4437
  173MOL     H824432   7.270   7.158   2.051 -0.3881  1.5109 -0.3638
  173MOL     C924433   7.198   6.906   2.117  0.3455 -0.3715  0.6572
  173MOL    C1024434   7.164   6.888   2.268  0.6809  0.1195  0.0539
  173MOL    O1124435   7.153   6.791   2.056 -0.1333  0.9490 -0.0873
  173MOL    H1224436   7.302   6.931   2.095 -0.2510  1.8617  0.3312
  173MOL    H1324437   7.211   6.796   2.306 -0.6074 -0.1213  1.1029
  173MOL    H1424438   7.058   6.868   2.276  0.2096  2.0146 -1.2777
  173MOL    H1524439   7.177   6.981   2.323 -1.6227  0.2377  0.4113
  173MOL    C1624440   7.188   6.785   1.923  0.0226 -0.2335  0.2449
  173MOL    C1724441   7.293   6.678   1.912  0.1182 -0.2312 -0.0759
  173MOL    O1824442   7.083   6.737   1.847  0.4869 -0.1518 -0.0733
  173MOL    H1924443   7.222   6.876   1.872  0.9027 -0.2977  0.7193
  173MOL    H2024444   7.305   6.636   1.813  0.8867 -0.3640  0.0656
  173MOL    H2124445   7.269   6.592   1.975 -2.4342  0.3173 -0.2475
  173MOL    H2224446   7.390   6.715   1.946 -0.8720  0.9308  1.5487
  173MOL    C2324447   6.981   6.831   1.824  0.5709 -0.0239 -0.1970
  173MOL    C2424448   6.988   6.855   1.676 -0.0430  0.0845  0.3650
  173MOL    O2524449   6.856   6.791   1.854  0.2335 -0.0939  0.0318
  173MOL    H2624450   6.989   6.921   1.886  0.1543  0.3670 -0.7044
  173MOL    H2724451   7.090   6.888   1.654 -0.1427 -0.0912 -0.3524
  173MOL    H2824452   6.909   6.926   1.653  1.5374  1.4345 -1.0353
  173MOL    H2924453   6.963   6.767   1.618  3.4661 -0.6120 -0.1957
  173MOL    C3024454   6.842   6.758   1.995 -0.0162  0.3543  0.5188
  173MOL    C3124455   6.733   6.844   2.048  0.2625 -0.5605 -0.2360
  173MOL    O3224456   6.797   6.629   2.000 -0.0855  0.0021  0.1034
  173MOL    H3324457   6.933   6.781   2.050 -1.6912  0.9056  3.1050
  173MOL    H3424458   6.641   6.843   1.990  0.1835  1.1579 -0.1759
  173MOL    H3524459   6.771   6.946   2.047 -0.9750 -0.1051 -1.1224
  173MOL    H3624460   6.701   6.809   2.147 -0.1252  1.0892  0.2348
  173MOL    C3724461   6.898   6.532   2.018 -0.2193  0.4861  0.1831
  173MOL    C3824462   6.896   6.481   2.166  0.0694  0.1002  0.0980
  173MOL    O3924463   6.884   6.428   1.931 -0.0017 -0.1987  0.3714
  173MOL    H4024464   6.993   6.584   2.010 -0.9266  1.7017 -0.5757
  173MOL    H4124465   6.805   6.423   2.185 -1.0132  1.5168 -0.6956
  173MOL    H4224466   6.882   6.565   2.234 -1.4499 -1.3190  1.6053
  173MOL    H4324467   6.978   6.415   2.193 -0.7451 -1.4226 -1.0414
  173MOL    C4424468   6.897   6.467   1.802  0.0681 -0.0128 -0.3483
  173MOL    C4524469   7.030   6.403   1.750 -0.0760 -0.8657  0.1230
  173MOL    O4624470   6.796   6.416   1.733 -0.6247  0.5489  1.0247
  173MOL    H4724471   6.903   6.574   1.783 -0.5075 -0.2234 -1.7613
  173MOL    H4824472   7.059   6.451   1.656 -1.3830  0.3747  0.3407
  173MOL    H4924473   7.003   6.299   1.729  0.2805 -0.5342 -2.1764
  173MOL    H5024474   7.117   6.420   1.813  0.6128  0.1445 -1.0695
  173MOL    C5124475   6.686   6.497   1.728  0.0799  0.2168 -0.2639
  173MOL    C5224476   6.691   6.557   1.598 -0.2737  0.2252  0.3481
  173MOL    O5324477   6.574   6.421   1.733  0.1422  0.3963 -0.3689
  173MOL    H5424478   6.683   6.574   1.805  0.6604 -0.2060  0.1857
  173MOL    H5524479   6.777   6.623   1.592 -0.1592  0.2654  2.2668
  173MOL    H5624480   6.599   6.615   1.590 -0.0337  0.8453  2.0450
  173MOL    H5724481   6.705   6.485   1.517  0.7422  2.4346 -1.4975
  173MOL    C5824482   6.543   6.384   1.864  0.3124  0.8591 -0.7247
  173MOL    C5924483   6.419   6.472   1.904 -0.3630  0.5064  0.7254
  173MOL    O6024484   6.498   6.253   1.871  0.2858  0.0905  0.6546
  173MOL    H6124485   6.625   6.396   1.935  0.4775 -2.5764 -0.2413
  173MOL    H6224486   6.331   6.440   1.848 -1.6455  3.7266  0.8070
  173MOL    H6324487   6.438   6.577   1.883  0.5024  0.3371  0.6349
  173MOL    H6424488   6.391   6.464   2.009 -0.7469  1.7918  0.7308
  173MOL    C6524489   6.600   6.160   1.877  0.0364  0.1707 -0.0891
  173MOL    C6624490   6.618   6.115   2.028 -0.5212  0.0296  0.3752
  173MOL    O6724491   6.555   6.051   1.816  0.0897 -0.2171 -0.0856
  173MOL    H6824492   6.696   6.197   1.841  2.0850 -3.7344  1.0049
  173MOL    H6924493   6.693   6.037   2.041  1.1439  1.7038  1.0772
  173MOL    H7024494   6.521   6.082   2.065 -0.9212  0.4442 -0.2868
  173MOL    H7124495   6.653   6.205   2.078  1.0542  0.2123 -0.9892
  173MOL    C7224496   6.549   6.067   1.676  0.5729  0.5974 -0.1594
  173MOL    C7324497   6.660   5.993   1.604  0.5197 -0.1848 -0.0492
  173MOL    O7424498   6.434   5.995   1.630  0.3024 -0.0916  0.2748
  173MOL    H7524499   6.549   6.170   1.641  3.4223  0.7089  0.0678
  173MOL    H7624500   6.662   6.026   1.500 -0.6488  0.3173  0.0819
  173MOL    H7724501   6.635   5.887   1.601 -1.1707  0.2019  0.0288
  173MOL    H7824502   6.752   6.014   1.659  1.4730 -0.1340 -1.6338
  173MOL    C7924503   6.319   6.085   1.643  0.0343 -0.5214  0.1917
  173MOL    C8024504   6.282   6.136   1.505 -0.7198  0.2738 -0.5337
  173MOL    O8124505   6.208   6.016   1.693  0.5423 -0.5756 -0.1239
  173MOL    H8224506   6.339   6.170   1.707 -1.5583 -0.0690  0.1087
  173MOL    H8324507   6.229   6.230   1.515  0.6343  0.8906  1.1022
  173MOL    H8424508   6.215   6.060   1.465  0.9941 -1.0855 -0.9233
  173MOL    H8524509   6.365   6.132   1.434  0.1130 -0.6943  0.4635
  173MOL    C8624510   6.226   5.947   1.815 -0.4506  0.3658 -0.1131
  173MOL    C8724511   6.234   6.052   1.934 -0.4041 -0.4515  0.1574
  173MOL    O8824512   6.109   5.871   1.841 -0.2944  0.9349 -1.0613
  173MOL    H8924513   6.313   5.881   1.816 -0.7003  0.0051 -1.1325
  173MOL    H9024514   6.232   6.005   2.032 -0.2395 -0.7238  0.0328
  173MOL    H9124515   6.148   6.116   1.917 -0.5137 -0.6786 -0.1599
  173MOL    H9224516   6.322   6.113   1.913  0.5756 -1.5809  0.9655
  173MOL    C9324517   6.096   5.761   1.762  0.4784 -0.4920  0.7616
  173MOL    C9424518   6.093   5.640   1.857 -0.2449  0.5112  0.2677
  173MOL    O9524519   5.966   5.758   1.712  0.6986  0.3917  0.3463
  173MOL    H9624520   6.166   5.756   1.678 -0.0235  2.0706  0.1568
  173MOL    H9724521   5.994   5.636   1.901 -0.3447  1.8682  0.1616
  173MOL    H9824522   6.173   5.647   1.931 -0.1465 -1.8867  0.4270
  173MOL    H9924523   6.120   5.555   1.794 -0.8531  0.2077  0.4175
  173MOL   C10024524   5.928   5.860   1.625  0.6024  0.3544  0.3973
  173MOL   C10124525   5.881   5.789   1.504 -0.8930 -0.6795  0.3155
  173MOL   O10224526   5.825   5.942   1.671 -1.0102 -0.3171 -0.7374
  173MOL   H10324527   6.014   5.919   1.594 -0.1915  1.6995  0.6770
  173MOL   H10424528   5.823   5.700   1.527 -2.0837  0.1810  0.7082
  173MOL   H10524529   5.966   5.746   1.451 -0.7869  0.5189 -0.4951
  173MOL   H10624530   5.820   5.848   1.435 -0.1540 -0.3388 -0.0583
  173MOL   C10724531   5.870   6.052   1.739 -0.2925  0.0062 -0.0683
  173MOL   C10824532   5.835   6.173   1.665 -0.1597 -0.3870  0.5539
  173MOL   O10924533   5.798   6.058   1.853 -0.4466  0.5366 -0.6212
  173MOL   H11024534   5.976   6.054   1.767 -0.1399 -1.3729 -0.4690
  173MOL   H11124535   5.907   6.187   1.585 -1.5381 -0.6520 -0.7618
  173MOL   H11224536   5.844   6.258   1.733  1.2837  0.4023 -0.6037
  173MOL   H11324537   5.732   6.169   1.630 -0.5471 -0.1324  1.6588
  173MOL   C11424538   5.825   5.962   1.953  0.0566 -0.0705  0.1364
  173MOL   C11524539   5.869   6.049   2.073  0.0115  0.4475  0.1304
  173MOL   O11624540   5.702   5.901   1.994  0.2891 -0.6159 -0.3979
  173MOL   H11724541   5.898   5.886   1.924 -1.4926 -0.4941 -2.8926
  173MOL   H11824542   5.893   5.984   2.156 -2.0796 -1.0785 -0.4307
  173MOL   H11924543   5.799   6.131   2.088  1.0352  1.2459  0.5903
  173MOL   H12024544   5.962   6.098   2.041  0.1430 -0.4927 -0.9739
  173MOL   C12124545   5.673   5.785   1.927 -0.2963  0.2524 -0.3666
  173MOL   C12224546   5.684   5.668   2.027 -0.5723  0.1322  0.5200
  173MOL   O12324547   5.542   5.783   1.886  0.0513 -0.7459 -0.3913
  173MOL   H12424548   5.738   5.774   1.840 -1.1462  1.2815 -1.1471
  173MOL   H12524549   5.622   5.689   2.114 -1.6859  2.2126 -0.7189
  173MOL   H12624550   5.790   5.647   2.039 -0.8959 -1.5074  0.6531
  173MOL   H12724551   5.654   5.575   1.979 -1.1528  1.3122 -1.4823
  173MOL   C12824552   5.516   5.873   1.786  0.6085  0.3590  0.5027
  173MOL   C12924553   5.498   5.788   1.659 -0.5068  0.5086  0.4683
  173MOL   O13024554   5.394   5.936   1.813 -0.0430  0.2132 -0.0967
  173MOL   H13124555   5.589   5.952   1.768 -0.6228  1.4995  0.4423
  173MOL   H13224556   5.450   5.853   1.585 -1.5981  1.9766  2.4388
  173MOL   H13324557   5.432   5.703   1.677  0.1874 -0.3125 -0.7289
  173MOL   H13424558   5.591   5.749   1.615 -0.1199  0.6701  1.1377
  173MOL   C13524559   5.401   6.055   1.887 -0.0637 -0.1313  0.2539
  173MOL   C13624560   5.432   6.179   1.801 -0.0120  0.0991 -0.1582
  173MOL   O13724561   5.280   6.080   1.948  0.6446 -0.4070 -0.2367
  173MOL   H13824562   5.475   6.037   1.965 -1.3224  1.8135  1.9441
  173MOL   H13924563   5.536   6.170   1.771 -0.2366 -0.3551 -0.8279
  173MOL   H14024564   5.395   6.272   1.843  1.2760  0.8443 -0.6424
  173MOL   H14124565   5.376   6.166   1.708 -0.4093 -1.2931  0.2522
  173MOL   H14224566   5.266   6.023   2.022 -2.5439  0.6314  0.0218
  174MOL     C124567   3.333   2.850   6.698  0.6713  0.0548 -0.0427
  174MOL     C224568   3.263   2.841   6.836 -0.1237  0.0712  0.0430
  174MOL     O324569   3.400   2.975   6.672  0.1621 -0.5950 -0.6525
  174MOL     H424570   3.251   2.841   6.626  0.3641  1.7270  0.0715
  174MOL     H524571   3.346   2.850   6.906  0.0603  0.2585 -0.1932
  174MOL     H624572   3.221   2.741   6.833  0.1717 -0.0118 -2.5662
  174MOL     H724573   3.183   2.913   6.851 -1.1827 -1.4363  1.8515
  174MOL     H824574   3.403   2.769   6.680  1.7106  0.7586  0.7715
  174MOL     C924575   3.518   2.965   6.599 -0.6691  0.0892  0.9167
  174MOL    C1024576   3.498   2.908   6.461  0.0787 -0.3337 -0.4666
  174MOL    O1124577   3.583   3.092   6.574  0.2567 -0.1503 -0.1384
  174MOL    H1224578   3.586   2.904   6.659  2.9792  1.4828 -1.6424
  174MOL    H1324579   3.464   2.804   6.465  0.3371 -0.3980  0.1247
  174MOL    H1424580   3.595   2.899   6.411  1.5318 -0.7946  2.3315
  174MOL    H1524581   3.426   2.964   6.402 -0.0350  0.2725  0.2379
  174MOL    C1624582   3.655   3.148   6.679  0.5495 -0.1076  0.1129
  174MOL    C1724583   3.802   3.125   6.653 -0.4144 -0.1173 -0.0260
  174MOL    O1824584   3.638   3.289   6.680 -0.9456  0.0892  1.1572
  174MOL    H1924585   3.611   3.121   6.775 -1.3717  0.3786 -0.5999
  174MOL    H2024586   3.841   3.050   6.722  1.3435 -0.7191 -1.6402
  174MOL    H2124587   3.861   3.216   6.666  0.4489 -0.3384 -2.1430
  174MOL    H2224588   3.827   3.100   6.550 -0.8600 -2.0569  0.3307
  174MOL    C2324589   3.506   3.327   6.719 -0.7356 -0.0938  0.2134
  174MOL    C2424590   3.512   3.373   6.863  0.1355  0.1713 -0.8227
  174MOL    O2524591   3.463   3.428   6.632 -0.3296 -0.0289  0.1168
  174MOL    H2624592   3.426   3.254   6.730 -0.0466 -0.7698  0.7497
  174MOL    H2724593   3.600   3.437   6.863  0.6009 -0.4573  0.2629
  174MOL    H2824594   3.531   3.287   6.927 -4.5308 -1.6908 -1.7553
  174MOL    H2924595   3.421   3.429   6.886 -0.9947 -1.5577 -1.0463
  174MOL    C3024596   3.451   3.391   6.499 -0.1126 -0.3453  0.1550
  174MOL    C3124597   3.315   3.327   6.485 -0.3110  0.3530  0.1179
  174MOL    O3224598   3.450   3.504   6.410 -0.2222 -0.0106 -0.3971
  174MOL    H3324599   3.518   3.310   6.471 -0.1707 -0.2391 -0.2934
  174MOL    H3424600   3.289   3.321   6.380 -0.7433  0.1004  0.2370
  174MOL    H3524601   3.240   3.381   6.542 -0.2028  2.3326 -1.5528
  174MOL    H3624602   3.314   3.223   6.520 -3.0498  0.4864  0.5730
  174MOL    C3724603   3.574   3.531   6.338 -0.1108  0.0119  0.0792
  174MOL    C3824604   3.538   3.525   6.182 -0.3892  0.2739  0.6070
  174MOL    O3924605   3.628   3.654   6.365 -0.1991  0.3287  0.4648
  174MOL    H4024606   3.650   3.454   6.348  0.5317  0.4287 -1.3713
  174MOL    H4124607   3.462   3.597   6.151 -1.6112 -1.7748 -1.3545
  174MOL    H4224608   3.491   3.428   6.165 -1.2764  0.6420  0.9128
  174MOL    H4324609   3.629   3.543   6.126 -0.7725 -2.1438 -0.8530
  174MOL    C4424610   3.715   3.649   6.474 -0.3678  0.0811  0.4684
  174MOL    C4524611   3.852   3.660   6.402 -0.0809 -0.4370 -0.9931
  174MOL    O4624612   3.696   3.768   6.547 -0.2273  0.4959  0.0808
  174MOL    H4724613   3.705   3.563   6.541 -1.6559  0.1420  0.3638
  174MOL    H4824614   3.873   3.563   6.357  3.9567 -0.3978  0.5251
  174MOL    H4924615   3.925   3.672   6.482  0.8091 -1.6549 -1.5934
  174MOL    H5024616   3.847   3.750   6.341  1.8404  0.7910  0.6120
  174MOL    C5124617   3.573   3.766   6.622  0.1660  0.2341  0.5859
  174MOL    C5224618   3.617   3.755   6.767  0.3531 -0.3984 -0.4271
  174MOL    O5324619   3.509   3.892   6.605 -0.1080  0.6605  0.1632
  174MOL    H5424620   3.505   3.692   6.579  0.9472 -0.7126  0.9342
  174MOL    H5524621   3.676   3.842   6.794 -0.8491  0.1813  0.3649
  174MOL    H5624622   3.682   3.669   6.786 -1.3357 -1.3675  1.2317
  174MOL    H5724623   3.523   3.754   6.823  0.3595  2.6714 -0.2773
  174MOL    C5824624   3.451   3.899   6.475 -0.1860 -0.2154  0.1203
  174MOL    C5924625   3.304   3.877   6.497  0.0553  0.2106 -0.1395
  174MOL    O6024626   3.461   4.021   6.411 -0.0213 -0.1046  0.2527
  174MOL    H6124627   3.488   3.821   6.408  2.8513  0.0669  1.3919
  174MOL    H6224628   3.265   3.964   6.550 -0.9611  0.9705 -2.1059
  174MOL    H6324629   3.285   3.784   6.551 -0.5773  0.8841  0.8175
  174MOL    H6424630   3.254   3.873   6.400  0.5773 -1.1377 -0.3612
  174MOL    C6524631   3.592   4.058   6.395  0.2275  0.0168  0.9005
  174MOL    C6624632   3.646   4.003   6.262  0.2522  0.1474  0.3918
  174MOL    O6724633   3.591   4.197   6.392 -0.4380 -0.6240  0.4012
  174MOL    H6824634   3.655   4.019   6.475  0.2647 -0.5115  0.6150
  174MOL    H6924635   3.577   4.031   6.182 -0.8771 -2.4285  0.3920
  174MOL    H7024636   3.653   3.894   6.255 -0.1523  0.2493 -2.1128
  174MOL    H7124637   3.739   4.057   6.248  0.3259  0.1556  0.8839
  174MOL    C7224638   3.599   4.254   6.520  0.3009  0.2201 -0.5788
  174MOL    C7324639   3.733   4.316   6.517  0.7743  0.2763 -0.2455
  174MOL    O7424640   3.508   4.362   6.535 -0.3733  0.0196 -0.5007
  174MOL    H7524641   3.587   4.181   6.599 -0.2029  1.7080  0.7481
  174MOL    H7624642   3.806   4.244   6.480 -0.9111 -1.9428  0.6774
  174MOL    H7724643   3.750   4.357   6.617  0.8845 -0.1787 -0.0785
  174MOL    H7824644   3.730   4.401   6.448 -0.6426  2.8653  2.8490
  174MOL    C7924645   3.383   4.312   6.552  0.4513 -0.0842 -1.1577
  174MOL    C8024646   3.340   4.353   6.695  0.6358  0.1526  1.0004
  174MOL    O8124647   3.302   4.377   6.464  0.1426 -0.0282  0.1326
  174MOL    H8224648   3.372   4.204   6.545  0.4488 -0.0367 -1.8999
  174MOL    H8324649   3.236   4.325   6.712 -0.1198  2.8257  0.9938
  174MOL    H8424650   3.333   4.462   6.700 -0.8214  0.2152 -1.4368
  174MOL    H8524651   3.406   4.301   6.763  0.1132  0.4301  1.7320
  174MOL    C8624652   3.306   4.323   6.334  0.3026  0.2829  0.9087
  174MOL    C8724653   3.164   4.269   6.312 -0.2396 -0.1101  0.2526
  174MOL    O8824654   3.329   4.425   6.239 -0.9214  0.0848 -0.1871
  174MOL    H8924655   3.376   4.242   6.312 -0.2165  0.1931 -0.4973
  174MOL    H9024656   3.092   4.339   6.354 -0.7179 -1.0090  0.9624
  174MOL    H9124657   3.148   4.175   6.366  2.2468 -1.5625 -1.4248
  174MOL    H9224658   3.153   4.253   6.204  2.1696 -0.6944  0.0638
  174MOL    C9324659   3.466   4.465   6.215  0.3911  0.1612 -0.3283
  174MOL    C9424660   3.516   4.382   6.095  0.5035  0.1471  0.3138
  174MOL    O9524661   3.462   4.604   6.177  0.1857 -0.0413  0.0706
  174MOL    H9624662   3.524   4.462   6.307 -1.8193 -0.7390  1.0810
  174MOL    H9724663   3.484   4.427   6.000 -0.4909 -0.1304  0.5145
  174MOL    H9824664   3.469   4.285   6.102 -3.0914  1.6445 -1.5815
  174MOL    H9924665   3.625   4.381   6.102  0.4998  0.7058  0.5009
  174MOL   C10024666   3.424   4.696   6.280  0.2666 -0.0805 -0.3092
  174MOL   C10124667   3.554   4.731   6.348 -0.1176 -0.0791 -0.0109
  174MOL   O10224668   3.372   4.819   6.237 -0.0444 -0.0815  0.2359
  174MOL   H10324669   3.348   4.648   6.341  0.0316 -2.1802 -2.2063
  174MOL   H10424670   3.629   4.763   6.276 -1.2773 -1.1712 -1.7554
  174MOL   H10524671   3.586   4.663   6.427 -2.1865 -1.6570 -0.5001
  174MOL   H10624672   3.549   4.822   6.407  0.3285  0.9724 -1.5650
  174MOL   C10724673   3.256   4.809   6.163  0.4928 -0.0297  0.4998
  174MOL   C10824674   3.142   4.899   6.239 -0.3771  0.3106 -0.0638
  174MOL   O10924675   3.268   4.869   6.038 -0.3386 -0.1128 -0.1691
  174MOL   H11024676   3.222   4.706   6.157  0.5439 -0.0759  0.9851
  174MOL   H11124677   3.146   4.869   6.343  0.6050  1.8995  0.3657
  174MOL   H11224678   3.041   4.881   6.201 -0.3838  2.6248 -1.2553
  174MOL   H11324679   3.166   5.004   6.221  2.8630 -0.2123  1.0537
  174MOL   C11424680   3.351   4.806   5.947 -0.0093 -0.1805 -0.2229
  174MOL   C11524681   3.253   4.711   5.865  0.0210 -0.6952  0.0890
  174MOL   O11624682   3.400   4.895   5.857  0.0311  0.1329 -0.1156
  174MOL   H11724683   3.426   4.744   5.996  0.4839  1.7130  1.4456
  174MOL   H11824684   3.150   4.745   5.856 -0.2912 -1.6975 -0.2123
  174MOL   H11924685   3.241   4.620   5.925  1.6805 -0.2585  1.1199
  174MOL   H12024686   3.283   4.693   5.762 -1.7461  2.9204 -1.1106
  174MOL   C12124687   3.519   4.948   5.893 -0.2486  0.6096  0.5934
  174MOL   C12224688   3.635   4.866   5.833 -0.1416  0.1182 -0.0628
  174MOL   O12324689   3.524   5.079   5.850  0.2644 -0.1651  0.3323
  174MOL   H12424690   3.549   4.948   5.997  1.5562  1.4652  0.0871
  174MOL   H12524691   3.631   4.852   5.725  1.8480 -1.0202 -0.0003
  174MOL   H12624692   3.627   4.764   5.871  0.4280  0.3671  0.7482
  174MOL   H12724693   3.729   4.906   5.869  0.0792 -1.5030  1.2549
  174MOL   C12824694   3.418   5.156   5.895 -0.4845 -0.5062  0.2128
  174MOL   C12924695   3.490   5.261   5.991 -0.0829 -0.2938 -0.1285
  174MOL   O13024696   3.357   5.223   5.794  0.0803 -0.6437  0.3131
  174MOL   H13124697   3.342   5.097   5.947  0.9295 -1.0801  1.6585
  174MOL   H13224698   3.411   5.329   6.024  1.0130  0.9412 -0.0053
  174MOL   H13324699   3.567   5.320   5.943 -0.7225  0.7049  0.0549
  174MOL   H13424700   3.538   5.212   6.076  0.4092  0.7594  0.1976
  174MOL   C13524701   3.284   5.146   5.701 -0.0755  0.3337 -0.4184
  174MOL   C13624702   3.136   5.142   5.748  0.5626  0.0121  0.1410
  174MOL   O13724703   3.285   5.210   5.573 -0.6092  0.2613 -0.2579
  174MOL   H13824704   3.321   5.045   5.681 -0.1015  0.6938 -2.3989
  174MOL   H13924705   3.103   5.245   5.758  0.5821 -0.0864  1.3093
  174MOL   H14024706   3.124   5.097   5.847  3.3629 -0.9532  0.0844
  174MOL   H14124707   3.070   5.085   5.682 -1.1109  1.3500  0.6256
  174MOL   H14224708   3.352   5.172   5.518 -1.3792 -0.2383 -0.8637
  175MOL     C124709   3.492   5.568   5.142 -0.0263  0.0550  0.0142
  175MOL     C224710   3.520   5.456   5.246  0.7490  0.1320  0.2736
  175MOL     O324711   3.412   5.675   5.208 -0.2552  0.1197 -0.6424
  175MOL     H424712   3.431   5.535   5.057 -0.6252 -0.8785  0.7991
  175MOL     H524713   3.432   5.406   5.285 -0.0704 -0.2236 -1.9809
  175MOL     H624714   3.564   5.495   5.338  0.2758 -1.2711  1.1069
  175MOL     H724715   3.583   5.386   5.191  0.9183 -1.4438  2.4137
  175MOL     H824716   3.584   5.605   5.096  1.5336 -1.8817  1.5017
  175MOL     C924717   3.380   5.777   5.122  0.1387 -0.0014  0.3452
  175MOL    C1024718   3.247   5.736   5.055 -0.5371  0.1152  0.1224
  175MOL    O1124719   3.343   5.904   5.178  0.2025 -0.3457 -0.0504
  175MOL    H1224720   3.456   5.800   5.048 -1.7066  0.7338 -1.3587
  175MOL    H1324721   3.209   5.825   5.004  0.3700  0.9353  0.8452
  175MOL    H1424722   3.167   5.706   5.122  0.4385 -1.1068  0.7815
  175MOL    H1524723   3.250   5.653   4.985 -0.0598  1.9125 -2.0574
  175MOL    C1624724   3.420   5.946   5.279  0.1932 -0.6984 -0.5926
  175MOL    C1724725   3.517   6.049   5.228  0.3263  0.3092  0.5120
  175MOL    O1824726   3.340   6.009   5.377 -0.0514  0.0034  0.1594
  175MOL    H1924727   3.471   5.875   5.344  2.3530  0.3989 -1.0721
  175MOL    H2024728   3.586   5.996   5.163  0.5567 -0.6188  1.4986
  175MOL    H2124729   3.564   6.098   5.313 -1.8890  0.9470  1.4283
  175MOL    H2224730   3.474   6.123   5.160  0.4978  0.3993  0.5015
  175MOL    C2324731   3.245   5.931   5.434  0.0481 -1.0426  0.2803
  175MOL    C2424732   3.293   5.906   5.579  0.5822  0.0709 -0.0519
  175MOL    O2524733   3.130   6.005   5.434 -0.3091  0.1815 -0.1697
  175MOL    H2624734   3.230   5.841   5.376 -1.4160 -0.7041  0.1203
  175MOL    H2724735   3.378   5.839   5.571  0.1810 -0.4163 -0.2103
  175MOL    H2824736   3.213   5.860   5.637 -2.4274  2.6221 -1.9733
  175MOL    H2924737   3.326   5.997   5.631  0.6164  0.7479 -1.2486
  175MOL    C3024738   3.073   6.025   5.310  0.3426 -0.0815 -0.0493
  175MOL    C3124739   2.965   5.924   5.310  0.2193 -0.0200  0.5505
  175MOL    O3224740   3.011   6.149   5.306  0.3280 -0.3558  0.0481
  175MOL    H3324741   3.141   6.013   5.226 -0.3558 -0.9276 -0.5068
  175MOL    H3424742   3.008   5.824   5.315 -0.1788 -0.1733  0.8709
  175MOL    H3524743   2.918   5.936   5.212 -3.1400  3.5798  2.4698
  175MOL    H3624744   2.886   5.932   5.384  0.5825 -2.5706  1.2819
  175MOL    C3724745   3.098   6.263   5.304 -0.3197 -0.8137  0.0560
  175MOL    C3824746   3.075   6.336   5.176 -0.6030 -0.5343 -0.4601
  175MOL    O3924747   3.077   6.346   5.413  0.1173  0.2672 -0.0218
  175MOL    H4024748   3.201   6.230   5.314 -0.9928 -1.9811  4.1888
  175MOL    H4124749   3.101   6.273   5.092  1.9034 -0.0247 -0.1023
  175MOL    H4224750   3.127   6.431   5.166 -1.6275 -0.2761 -3.6919
  175MOL    H4324751   2.968   6.351   5.162 -0.2990  0.1825 -2.0012
  175MOL    C4424752   3.153   6.310   5.530 -0.1798  0.4376  0.2728
  175MOL    C4524753   3.289   6.392   5.532  0.5409  0.2256  0.2797
  175MOL    O4624754   3.083   6.338   5.644 -0.0539  0.6549  0.4415
  175MOL    H4724755   3.177   6.204   5.528  1.1674  0.7236 -3.2734
  175MOL    H4824756   3.332   6.365   5.435 -0.3950 -2.9745  0.6873
  175MOL    H4924757   3.355   6.349   5.607 -1.5369  0.4342  2.2676
  175MOL    H5024758   3.274   6.500   5.535  3.1545  0.6250  0.1297
  175MOL    C5124759   2.984   6.245   5.670 -0.0438  0.2951 -0.3759
  175MOL    C5224760   3.025   6.160   5.797  0.1798  0.8771  0.1582
  175MOL    O5324761   2.859   6.301   5.699 -0.1190 -0.3111  0.1631
  175MOL    H5424762   2.960   6.186   5.582  0.8540  2.3928 -2.0756
  175MOL    H5524763   3.038   6.223   5.885  0.3871 -2.6630  2.7825
  175MOL    H5624764   3.117   6.108   5.772 -0.0856  0.8328 -0.7351
  175MOL    H5724765   2.945   6.095   5.831 -1.0006  2.5702  0.6950
  175MOL    C5824766   2.801   6.364   5.593 -0.4645  0.6513  0.5322
  175MOL    C5924767   2.685   6.273   5.546  0.0998  0.2185 -0.2841
  175MOL    O6024768   2.748   6.480   5.640 -0.2689 -0.2620 -0.0939
  175MOL    H6124769   2.859   6.377   5.502 -0.3991  1.0686  0.6336
  175MOL    H6224770   2.608   6.270   5.624  0.8381 -0.5786  0.4204
  175MOL    H6324771   2.723   6.175   5.520  1.8030  1.1852 -1.5168
  175MOL    H6424772   2.643   6.317   5.456 -1.2086 -0.7755 -0.1884
  175MOL    C6524773   2.843   6.586   5.636  0.0826  0.6253 -0.0251
  175MOL    C6624774   2.806   6.680   5.515  0.1853  0.8771 -0.3572
  175MOL    O6724775   2.829   6.670   5.750 -0.8792  0.0077 -0.6683
  175MOL    H6824776   2.948   6.560   5.625  0.4691  2.3611 -0.6717
  175MOL    H6924777   2.821   6.784   5.547  1.6579  1.0817 -1.6719
  175MOL    H7024778   2.701   6.658   5.498 -0.3070  1.2956  1.9493
  175MOL    H7124779   2.864   6.660   5.425 -0.3625 -0.5041 -0.4161
  175MOL    C7224780   2.886   6.614   5.857  0.1505  0.5417 -0.1570
  175MOL    C7324781   3.021   6.680   5.875 -0.1639 -0.2513 -0.0087
  175MOL    O7424782   2.817   6.623   5.980 -0.4021 -0.0312 -0.1568
  175MOL    H7524783   2.899   6.506   5.844  0.6672  0.7726 -1.6797
  175MOL    H7624784   3.075   6.640   5.961 -1.1511 -2.4551 -0.3734
  175MOL    H7724785   3.007   6.787   5.864  1.0693 -0.2478 -1.8464
  175MOL    H7824786   3.086   6.648   5.794 -0.2509  0.0139 -0.1844
  175MOL    C7924787   2.714   6.527   5.994 -0.5323 -0.6159  0.4848
  175MOL    C8024788   2.743   6.426   6.096  0.5915 -0.7807  0.5186
  175MOL    O8124789   2.593   6.588   6.023 -0.1293  0.1211  0.1583
  175MOL    H8224790   2.694   6.475   5.900  1.1898  0.9700 -0.8155
  175MOL    H8324791   2.655   6.361   6.100 -0.7364  0.7856 -1.9138
  175MOL    H8424792   2.754   6.466   6.197 -0.4499 -0.9356  0.7019
  175MOL    H8524793   2.832   6.367   6.076  1.2503  0.2540  0.3844
  175MOL    C8624794   2.524   6.655   5.917  0.2006 -0.2842  0.2652
  175MOL    C8724795   2.404   6.564   5.896 -0.2793 -0.1642 -0.6956
  175MOL    O8824796   2.484   6.786   5.949 -1.2082  0.0155 -0.0556
  175MOL    H8924797   2.575   6.659   5.821 -0.5863  0.9732 -0.1024
  175MOL    H9024798   2.329   6.602   5.826 -1.4802  1.0215  1.1920
  175MOL    H9124799   2.354   6.558   5.993  2.4950  1.2968  0.8874
  175MOL    H9224800   2.424   6.460   5.873 -0.5314 -0.8030  1.8040
  175MOL    C9324801   2.588   6.876   5.947  0.0362 -0.2437 -0.0082
  175MOL    C9424802   2.555   6.984   5.852 -0.0647  0.0299 -0.1258
  175MOL    O9524803   2.587   6.941   6.071  0.1993 -0.0426  0.5160
  175MOL    H9624804   2.681   6.828   5.915 -2.7747 -4.4958 -2.1181
  175MOL    H9724805   2.462   7.038   5.870  0.4021  0.8151 -0.0444
  175MOL    H9824806   2.551   6.939   5.753  0.0597  1.9008 -0.9985
  175MOL    H9924807   2.642   7.050   5.846 -0.0631 -0.1091 -1.9555
  175MOL   C10024808   2.677   6.880   6.160 -0.2697  0.7191 -0.7838
  175MOL   C10124809   2.805   6.960   6.166 -0.5489  0.3942  0.1255
  175MOL   O10224810   2.616   6.867   6.288  0.2429  0.6741  0.0271
  175MOL   H10324811   2.699   6.777   6.135 -1.8067 -0.0063  0.7936
  175MOL   H10424812   2.791   7.061   6.204  0.7406  0.7160 -0.2095
  175MOL   H10524813   2.848   6.961   6.066  1.3175 -0.8506  0.8742
  175MOL   H10624814   2.874   6.906   6.232 -1.8997 -0.1781  1.0946
  175MOL   C10724815   2.516   6.770   6.294  0.1080 -0.2733 -0.2136
  175MOL   C10824816   2.562   6.670   6.400 -0.5898 -0.9559  0.3936
  175MOL   O10924817   2.393   6.828   6.335  0.0744  0.1698  0.1380
  175MOL   H11024818   2.496   6.715   6.203 -0.1528  0.5066 -0.6355
  175MOL   H11124819   2.655   6.625   6.367 -0.9648 -2.2301  1.0241
  175MOL   H11224820   2.503   6.585   6.434  0.6507 -2.0212 -0.0897
  175MOL   H11324821   2.574   6.735   6.486  1.3092  0.8619 -1.2019
  175MOL   C11424822   2.300   6.862   6.236 -0.2527  1.0353  0.2855
  175MOL   C11524823   2.203   6.743   6.225 -0.1618 -0.3050  0.1462
  175MOL   O11624824   2.228   6.975   6.274 -0.0658 -0.0869  0.4195
  175MOL   H11724825   2.343   6.879   6.137 -0.7916 -1.5235 -0.4383
  175MOL   H11824826   2.134   6.750   6.309 -1.4177 -0.8719 -0.8224
  175MOL   H11924827   2.250   6.645   6.228  0.1038 -0.1406  1.5694
  175MOL   H12024828   2.142   6.752   6.135  1.0046  0.0925 -0.6149
  175MOL   C12124829   2.304   7.099   6.269  0.1099 -0.6439 -0.6385
  175MOL   C12224830   2.248   7.186   6.154  0.4959  0.1572  0.1157
  175MOL   O12324831   2.277   7.177   6.382 -0.5012  0.0557  0.0230
  175MOL   H12424832   2.412   7.086   6.261  0.3087  0.8322 -0.5446
  175MOL   H12524833   2.277   7.291   6.164 -1.8390  0.7392  1.1229
  175MOL   H12624834   2.139   7.190   6.164  0.4410 -0.4233 -0.2250
  175MOL   H12724835   2.268   7.139   6.058  0.5064 -1.6636  0.9840
  175MOL   C12824836   2.352   7.134   6.491  0.0921  0.0306  0.4180
  175MOL   C12924837   2.448   7.260   6.533 -0.0310  0.9995 -0.1266
  175MOL   O13024838   2.266   7.108   6.596  0.2032 -0.1564  0.1799
  175MOL   H13124839   2.422   7.053   6.469  0.3740 -0.0285  1.4658
  175MOL   H13224840   2.488   7.306   6.443  0.7672 -0.2234 -0.4169
  175MOL   H13324841   2.536   7.236   6.592  0.7509 -1.3568 -2.1428
  175MOL   H13424842   2.399   7.346   6.577  0.1037  0.9601  0.1025
  175MOL   C13524843   2.183   6.998   6.574 -0.6136  0.7852  0.7517
  175MOL   C13624844   2.125   6.953   6.706 -0.1439 -0.1593 -0.2228
  175MOL   O13724845   2.074   7.027   6.483 -0.2990 -0.0099  0.4628
  175MOL   H13824846   2.237   6.911   6.536 -0.0367  1.6158 -0.3903
  175MOL   H13924847   2.204   6.962   6.780  0.6061  1.6602 -1.2134
  175MOL   H14024848   2.091   6.850   6.693 -2.0440  0.3137  0.9154
  175MOL   H14124849   2.039   7.018   6.717  1.1866  1.8298 -1.2761
  175MOL   H14224850   2.108   7.059   6.401  2.2615  0.6512  1.7465
  176MOL     C124851   1.703   4.143   1.637  0.3960  0.2613  0.5276
  176MOL     C224852   1.555   4.174   1.601  0.4631  0.2578  0.0056
  176MOL     O324853   1.696   4.024   1.719  0.1452 -0.0319 -0.4094
  176MOL     H424854   1.761   4.224   1.682  1.4623 -0.6022  0.7382
  176MOL     H524855   1.514   4.086   1.552  2.5247 -1.6557  1.6382
  176MOL     H624856   1.543   4.254   1.528  1.7881  0.6477  0.2048
  176MOL     H724857   1.498   4.201   1.690  0.8771 -1.5375  0.8482
  176MOL     H824858   1.766   4.118   1.552 -0.1979  0.4255  0.0384
  176MOL     C924859   1.808   3.989   1.794 -0.7030  0.0530  0.0674
  176MOL    C1024860   1.834   4.085   1.918  0.2549 -0.0753  0.4430
  176MOL    O1124861   1.789   3.865   1.854  0.5029  0.4143  0.4693
  176MOL    H1224862   1.901   3.975   1.739  0.1619 -2.0533  2.0165
  176MOL    H1324863   1.883   4.171   1.874  0.5789  0.0716  1.0928
  176MOL    H1424864   1.910   4.031   1.974  0.2922 -1.5589 -1.0071
  176MOL    H1524865   1.742   4.114   1.971  0.4726  0.0092  0.7778
  176MOL    C1624866   1.804   3.757   1.769  0.1059  0.7926  0.1741
  176MOL    C1724867   1.937   3.687   1.798  0.0006 -0.1003 -0.3713
  176MOL    O1824868   1.701   3.662   1.790  0.0296 -0.1870 -0.9156
  176MOL    H1924869   1.816   3.778   1.663  0.3328 -1.4052 -0.2441
  176MOL    H2024870   2.025   3.751   1.786 -0.1053  0.0865 -0.1565
  176MOL    H2124871   1.937   3.597   1.736 -1.2105 -0.2414 -0.1675
  176MOL    H2224872   1.944   3.653   1.902  0.5703  0.6502 -0.1630
  176MOL    C2324873   1.581   3.690   1.729 -0.7534  0.6379  0.0012
  176MOL    C2424874   1.545   3.568   1.637 -0.4048  0.1444 -0.5489
  176MOL    O2524875   1.477   3.698   1.819 -0.6687 -0.0108  0.9033
  176MOL    H2624876   1.580   3.786   1.677 -0.9654  1.1256  0.8833
  176MOL    H2724877   1.622   3.569   1.560 -0.5007 -0.2983 -0.6560
  176MOL    H2824878   1.450   3.582   1.585 -1.0871  0.0376  0.6579
  176MOL    H2924879   1.533   3.479   1.698 -1.0674  0.2635 -0.5025
  176MOL    C3024880   1.472   3.818   1.893  0.3601  0.7349 -0.2703
  176MOL    C3124881   1.372   3.914   1.824 -0.2592 -0.0556 -0.1063
  176MOL    O3224882   1.413   3.784   2.015 -0.0886  0.3134  0.2738
  176MOL    H3324883   1.568   3.864   1.914  1.3924 -0.5851 -2.0349
  176MOL    H3424884   1.419   3.947   1.731 -0.7234  0.5646 -0.1263
  176MOL    H3524885   1.351   4.007   1.877 -0.2263 -0.2785  0.3025
  176MOL    H3624886   1.268   3.883   1.812 -0.5088  0.9206 -0.4686
  176MOL    C3724887   1.489   3.710   2.099  1.0417  0.2131  0.1180
  176MOL    C3824888   1.586   3.796   2.180  0.0332 -0.4988 -0.0275
  176MOL    O3924889   1.413   3.646   2.192  0.2525  0.6627 -0.0687
  176MOL    H4024890   1.537   3.632   2.040  0.8787  1.2476 -1.4283
  176MOL    H4124891   1.527   3.861   2.243 -0.1658 -0.7187  0.0138
  176MOL    H4224892   1.659   3.847   2.117  1.6474 -2.2201  0.4068
  176MOL    H4324893   1.629   3.722   2.248  2.1507 -0.9648 -1.8150
  176MOL    C4424894   1.335   3.538   2.151  0.6450  0.2633  0.0559
  176MOL    C4524895   1.384   3.416   2.236  0.1133  0.5778  0.3553
  176MOL    O4624896   1.200   3.557   2.181 -0.3327  0.6363 -0.0787
  176MOL    H4724897   1.349   3.514   2.045  0.7444 -2.3800  0.6323
  176MOL    H4824898   1.351   3.428   2.339  1.4757 -1.6095  1.0879
  176MOL    H4924899   1.491   3.405   2.221  0.1180 -1.5203  1.7559
  176MOL    H5024900   1.333   3.325   2.205  0.6019  0.6435 -0.6563
  176MOL    C5124901   1.128   3.633   2.084 -0.7888  0.6178  0.6785
  176MOL    C5224902   1.037   3.529   2.019 -0.6990  0.1175 -0.1513
  176MOL    O5324903   1.049   3.735   2.135 -0.3865  0.0409  0.4573
  176MOL    H5424904   1.193   3.675   2.008 -0.3345 -0.5804  0.3812
  176MOL    H5524905   0.985   3.472   2.096 -1.1808  1.4975  0.5521
  176MOL    H5624906   1.103   3.462   1.963 -0.4034  0.4375 -0.1876
  176MOL    H5724907   0.966   3.579   1.953  1.5582  3.4590 -0.1526
  176MOL    C5824908   1.118   3.859   2.164  0.0970 -0.5080 -0.4507
  176MOL    C5924909   1.060   3.958   2.071  0.7973  0.0249  1.0701
  176MOL    O6024910   1.092   3.903   2.293 -0.3274  0.1314 -0.0212
  176MOL    H6124911   1.223   3.836   2.148  0.4393  0.0425  0.9331
  176MOL    H6224912   1.119   4.049   2.084 -0.3664  0.8788  0.3618
  176MOL    H6324913   0.954   3.970   2.089  0.4955  0.7908 -1.1036
  176MOL    H6424914   1.073   3.936   1.966 -0.1843 -0.8637  1.1285
  176MOL    C6524915   1.170   3.839   2.390 -0.3166  0.1129 -0.8474
  176MOL    C6624916   1.282   3.927   2.437  0.0941  0.0818  0.4925
  176MOL    O6724917   1.099   3.800   2.505  0.1100 -0.7691  0.5696
  176MOL    H6824918   1.211   3.743   2.360 -0.2669 -0.7930  1.9222
  176MOL    H6924919   1.355   3.870   2.495  2.7401  2.7112 -0.0768
  176MOL    H7024920   1.239   4.009   2.494  1.0495  2.3506 -1.9108
  176MOL    H7124921   1.334   3.968   2.350 -0.8078 -0.8481 -0.4909
  176MOL    C7224922   1.003   3.711   2.470  0.2957  0.4975  1.0368
  176MOL    C7324923   1.052   3.575   2.520 -0.2996  0.9352 -0.0452
  176MOL    O7424924   0.882   3.740   2.531 -0.0246 -0.2918 -1.2968
  176MOL    H7524925   0.978   3.704   2.364  3.1973 -0.8670  0.3931
  176MOL    H7624926   1.057   3.578   2.629 -0.4121 -1.5478  0.0609
  176MOL    H7724927   1.156   3.569   2.486 -0.0753  1.3377  0.5536
  176MOL    H7824928   0.991   3.490   2.491  1.0021 -0.7796  2.0093
  176MOL    C7924929   0.806   3.852   2.478 -0.1244  0.4987 -0.0294
  176MOL    C8024930   0.697   3.798   2.378  0.2053  0.4374 -0.5004
  176MOL    O8124931   0.753   3.930   2.576 -0.3617 -0.9583 -0.0241
  176MOL    H8224932   0.879   3.916   2.430 -0.3804 -0.0465 -1.1599
  176MOL    H8324933   0.738   3.739   2.296  0.5632 -0.9393  0.6682
  176MOL    H8424934   0.649   3.889   2.341 -3.6356 -1.0748  0.5726
  176MOL    H8524935   0.632   3.743   2.445 -1.4308  2.9195  0.0412
  176MOL    C8624936   0.846   3.967   2.674  0.1978  0.6509 -0.3674
  176MOL    C8724937   0.886   4.108   2.646 -0.1693  0.5282 -0.4241
  176MOL    O8824938   0.779   3.979   2.795  0.3688 -0.2213 -0.4576
  176MOL    H8924939   0.937   3.908   2.684  0.3581  0.9983  0.2144
  176MOL    H9024940   0.953   4.116   2.561  0.6116 -0.1345  0.1233
  176MOL    H9124941   0.940   4.141   2.735  1.8802  1.4535 -1.9673
  176MOL    H9224942   0.802   4.177   2.639 -0.2761  0.2413 -2.1941
  176MOL    C9324943   0.759   3.857   2.861 -0.4833 -0.2182  0.1342
  176MOL    C9424944   0.830   3.874   2.997 -0.1836 -0.1180  0.1373
  176MOL    O9524945   0.624   3.834   2.888 -0.2016 -0.7577 -0.1494
  176MOL    H9624946   0.794   3.768   2.809 -1.1895 -1.4593  1.7346
  176MOL    H9724947   0.844   3.774   3.038 -0.1149 -0.6377 -1.1462
  176MOL    H9824948   0.769   3.938   3.061  0.2749  0.1660  0.2987
  176MOL    H9924949   0.933   3.909   2.986 -0.7108  1.4793  0.1047
  176MOL   C10024950   0.547   3.787   2.788 -0.1608 -0.0076 -0.0274
  176MOL   C10124951   0.524   3.651   2.831  0.2574  0.4489  0.1910
  176MOL   O10224952   0.432   3.861   2.777  0.2262 -0.6690 -0.7857
  176MOL   H10324953   0.593   3.780   2.689  2.3800 -0.8251  1.1697
  176MOL   H10424954   0.472   3.646   2.927 -1.0664  1.9140 -0.4301
  176MOL   H10524955   0.624   3.608   2.829  0.5694  1.1619  0.1476
  176MOL   H10624956   0.458   3.606   2.758  2.9651  0.9003 -2.6577
  176MOL   C10724957   0.448   3.983   2.707  0.0535 -0.0623  0.5154
  176MOL   C10824958   0.374   3.968   2.570  0.5455 -0.0546 -0.9294
  176MOL   O10924959   0.383   4.085   2.774  0.0649  0.1505 -0.4859
  176MOL   H11024960   0.555   4.001   2.700 -0.1557  1.4347  0.8845
  176MOL   H11124961   0.348   4.059   2.515  0.7688  0.1096 -0.7649
  176MOL   H11224962   0.273   3.927   2.579  1.0502 -1.5444 -1.8891
  176MOL   H11324963   0.430   3.912   2.496 -1.0911 -0.7970 -1.6237
  176MOL   C11424964   0.471   4.143   2.869 -0.5624  0.2515  0.3778
  176MOL   C11524965   0.501   4.285   2.835 -0.3698  0.4521  0.0245
  176MOL   O11624966   0.402   4.153   2.994 -0.8767  0.6120 -0.0174
  176MOL   H11724967   0.566   4.090   2.871  1.0014  2.6422 -4.0469
  176MOL   H11824968   0.406   4.338   2.829  0.8649  2.7083  0.0501
  176MOL   H11924969   0.554   4.295   2.740  0.1004  1.8430  0.4262
  176MOL   H12024970   0.563   4.323   2.915 -1.3575  1.8567  0.1435
  176MOL   C12124971   0.394   4.035   3.064 -0.1899 -0.3125 -0.5142
  176MOL   C12224972   0.490   4.058   3.182  0.5396  0.1739  0.4156
  176MOL   O12324973   0.269   4.014   3.117  0.0781 -0.3060 -0.6450
  176MOL   H12424974   0.429   3.954   3.002 -0.0737 -0.0415 -0.8036
  176MOL   H12524975   0.585   4.099   3.146  0.6059  1.0406  1.5338
  176MOL   H12624976   0.507   3.969   3.242  0.5445 -0.6377 -0.7736
  176MOL   H12724977   0.452   4.134   3.250  0.7497  2.2196 -1.6908
  176MOL   C12824978   0.176   3.963   3.032  0.6851 -0.2236 -0.3088
  176MOL   C12924979   0.176   3.810   3.031 -0.6275  0.3553  0.9960
  176MOL   O13024980   0.050   4.000   3.083  0.1336  0.4449 -0.1453
  176MOL   H13124981   0.174   3.999   2.929 -0.2735  0.1982 -0.1446
  176MOL   H13224982   0.090   3.774   2.974 -0.1298  3.2519 -1.7061
  176MOL   H13324983   0.185   3.776   3.134 -0.0552 -1.1184  0.4599
  176MOL   H13424984   0.252   3.767   2.967 -0.3732  0.6499  1.0991
  176MOL   C13524985   0.017   4.133   3.059 -0.0633 -0.4834  0.7434
  176MOL   C13624986   7.844   4.161   2.929  0.3971 -0.4912 -0.2254
  176MOL   O13724987   7.861   4.178   3.172 -0.6763 -0.1974 -0.0823
  176MOL   H13824988   0.108   4.193   3.067 -1.0122  1.1187 -0.2612
  176MOL   H13924989   7.804   4.262   2.928 -1.0902 -0.9969  3.0595
  176MOL   H14024990   7.763   4.090   2.945 -1.5002  1.4383 -1.1482
  176MOL   H14124991   7.904   4.138   2.840  1.3486  0.9854  0.0121
  176MOL   H14224992   7.899   4.130   3.244  0.5519 -3.3972 -2.7346
  177MOL     C124993   6.202   7.687   6.549  0.1825  0.4028  0.0474
  177MOL     C224994   6.068   7.658   6.487  0.8963 -0.4702 -0.2142
  177MOL     O324995   6.184   7.796   6.635 -0.3051  0.6652  0.5868
  177MOL     H424996   6.267   7.693   6.462  0.2190 -3.4932 -0.2779
  177MOL     H524997   6.044   7.726   6.405 -0.8349 -0.5325  0.2137
  177MOL     H624998   5.989   7.664   6.562  1.1621  1.9321 -0.0773
  177MOL     H724999   6.067   7.559   6.443  1.9288 -1.8215  2.6577
  177MOL     H825000   6.232   7.605   6.614 -0.7016 -0.1580 -0.2450
  177MOL     C925001   6.304   7.821   6.708  0.0653 -0.1895  0.5034
  177MOL    C1025002   6.375   0.023   6.641 -0.2865 -0.6322 -0.3571
  177MOL    O1125003   6.270   7.876   6.833 -0.3985 -0.5497  0.4498
  177MOL    H1225004   6.362   7.729   6.708 -0.9486 -0.8549 -0.9643
  177MOL    H1325005   6.472   0.042   6.685  0.0923 -0.9427 -1.0532
  177MOL    H1425006   6.302   0.102   6.625  0.0148 -0.0890  0.9478
  177MOL    H1525007   6.396   7.900   6.540 -0.4111 -0.7616 -0.3374
  177MOL    C1625008   6.260   7.779   6.918  0.2164 -0.1140 -0.0081
  177MOL    C1725009   6.369   7.801   7.029 -0.3133  0.0992 -0.3004
  177MOL    O1825010   6.141   7.789   6.993 -0.0605  0.2015  0.1848
  177MOL    H1925011   6.256   7.676   6.882  1.0184 -0.2166  0.1888
  177MOL    H2025012   6.350   7.731   7.110 -3.2561  1.9361  0.6887
  177MOL    H2125013   6.367   7.901   7.071 -0.6408 -0.8235  1.9268
  177MOL    H2225014   6.465   7.780   6.982 -0.5975 -2.0933  0.0616
  177MOL    C2325015   6.026   7.751   6.924 -0.0396  0.6600  0.0825
  177MOL    C2425016   5.969   7.629   6.992 -0.6393 -0.3595  0.2323
  177MOL    O2525017   5.927   7.847   6.915 -0.8932 -0.3736  0.1743
  177MOL    H2625018   6.039   7.719   6.821 -0.2015 -2.3086  0.9287
  177MOL    H2725019   5.955   7.662   7.095 -0.0369  0.9058 -0.0739
  177MOL    H2825020   6.040   7.548   7.000  1.1527  1.1274 -0.3022
  177MOL    H2925021   5.870   7.619   6.948 -0.0718  0.0090 -1.1409
  177MOL    C3025022   5.957   0.042   6.831 -0.6552  0.7188  0.5876
  177MOL    C3125023   5.853   0.041   6.715  0.6192  0.1942  0.7736
  177MOL    O3225024   5.936   0.162   6.896  0.3806 -0.2580 -0.0112
  177MOL    H3325025   6.053   0.031   6.783  1.0839  0.2362  4.0252
  177MOL    H3425026   5.754   0.035   6.761 -0.0244 -0.5491 -0.6707
  177MOL    H3525027   5.871   7.863   6.658 -0.3645  0.7530 -0.4463
  177MOL    H3625028   5.855   0.128   6.650 -0.5031 -0.7373 -0.5236
  177MOL    C3725029   6.029   0.193   6.989  0.5268 -0.4656 -0.0838
  177MOL    C3825030   6.113   0.302   6.924 -0.0975  0.9394  0.4296
  177MOL    O3925031   5.969   0.247   7.104  0.3538 -0.0395 -0.0968
  177MOL    H4025032   6.087   0.103   7.005 -0.5498 -0.9592  1.1111
  177MOL    H4125033   6.195   0.341   6.984 -0.3622  0.7950  0.8901
  177MOL    H4225034   6.051   0.386   6.892  0.7092  1.3558 -0.0533
  177MOL    H4325035   6.158   0.251   6.839 -0.5776 -0.6289  1.0850
  177MOL    C4425036   5.903   0.151   7.178  0.8964 -0.2998  0.6158
  177MOL    C4525037   5.968   0.124   7.307 -0.4903  0.4573  0.3330
  177MOL    O4625038   5.779   0.192   7.227 -0.4433 -0.9019  0.3087
  177MOL    H4725039   5.891   0.056   7.124  3.0503 -0.2161 -0.0551
  177MOL    H4825040   6.075   0.105   7.299 -0.9275 -1.4963 -1.6272
  177MOL    H4925041   5.924   0.036   7.354 -1.4965  0.7215 -0.0975
  177MOL    H5025042   5.967   0.211   7.372 -3.7874  1.8132 -1.3876
  177MOL    C5125043   5.679   0.185   7.129  0.3480 -0.4654  0.1251
  177MOL    C5225044   5.592   0.063   7.173 -0.0012 -0.0381  0.0325
  177MOL    O5325045   5.602   0.295   7.123 -0.4993 -0.0501  0.2728
  177MOL    H5425046   5.711   0.143   7.034  1.0755 -1.1645  0.6686
  177MOL    H5525047   5.645   7.886   7.143  2.8673  1.5674  0.0804
  177MOL    H5625048   5.508   0.057   7.103  1.4108  0.6346 -1.7813
  177MOL    H5725049   5.560   0.044   7.275  0.9424 -0.3590  0.2772
  177MOL    C5825050   5.659   0.387   7.026  1.0022  0.0747  0.2914
  177MOL    C5925051   5.586   0.368   6.887  0.4861  0.3545  0.2459
  177MOL    O6025052   5.636   0.518   7.070 -0.2721  0.0161 -0.1997
  177MOL    H6125053   5.765   0.367   7.010  0.6575 -0.3045 -1.6469
  177MOL    H6225054   5.609   0.267   6.854 -1.4737 -0.0441  0.0067
  177MOL    H6325055   5.629   0.434   6.812 -1.2377  0.3610 -0.7837
  177MOL    H6425056   5.480   0.390   6.906  0.2484 -0.3288 -0.2569
  177MOL    C6525057   5.715   0.566   7.175 -0.1647  0.4572 -0.4962
  177MOL    C6625058   5.783   0.697   7.117 -0.3494 -1.0713  0.2197
  177MOL    O6725059   5.648   0.605   7.286  0.2733 -0.5158  0.6866
  177MOL    H6825060   5.795   0.493   7.188 -0.0666  0.6148 -0.2242
  177MOL    H6925061   5.828   0.685   7.018 -0.3524  1.6157 -0.1459
  177MOL    H7025062   5.855   0.739   7.188  1.8865 -5.2213  0.5639
  177MOL    H7125063   5.699   0.765   7.102  0.1219 -0.6578 -0.5911
  177MOL    C7225064   5.649   0.505   7.385  0.4853 -0.0726  0.4729
  177MOL    C7325065   5.745   0.550   7.494  0.2555  0.2923 -0.3365
  177MOL    O7425066   5.524   0.495   7.442 -0.4347  1.0465 -0.4335
  177MOL    H7525067   5.676   0.406   7.348  1.7897  0.0735  1.0035
  177MOL    H7625068   5.734   0.653   7.527  0.8990  0.6216 -1.1381
  177MOL    H7725069   5.845   0.546   7.451  0.6588 -3.8775  0.7187
  177MOL    H7825070   5.739   0.475   7.572  2.1898 -0.9958 -1.3694
  177MOL    C7925071   5.415   0.483   7.356 -0.8084 -0.5464  0.5494
  177MOL    C8025072   5.342   0.348   7.391 -0.2169 -0.4163 -0.0497
  177MOL    O8125073   5.326   0.583   7.389  0.5618 -0.2941 -0.8536
  177MOL    H8225074   5.443   0.477   7.251  0.8802  1.0561  0.8804
  177MOL    H8325075   5.308   0.350   7.494 -2.1211  1.4264 -0.6813
  177MOL    H8425076   5.416   0.268   7.380  0.7286  0.7282 -2.5987
  177MOL    H8525077   5.258   0.341   7.321  0.7227 -1.0217 -1.1416
  177MOL    C8625078   5.330   0.686   7.294  0.0169 -0.3237 -0.2222
  177MOL    C8725079   5.207   0.679   7.209 -0.1503 -0.0657 -0.6204
  177MOL    O8825080   5.330   0.815   7.350 -0.3607  0.6616  0.1224
  177MOL    H8925081   5.417   0.686   7.229  1.5654 -1.9915  1.7791
  177MOL    H9025082   5.111   0.682   7.260  0.4024  2.4912  0.2968
  177MOL    H9125083   5.209   0.594   7.140 -0.7335 -0.2963 -0.3589
  177MOL    H9225084   5.204   0.762   7.139 -0.4436  0.1253 -0.3773
  177MOL    C9325085   5.445   0.842   7.422 -0.0937 -0.2789  0.4117
  177MOL    C9425086   5.524   0.952   7.356 -0.3137  0.1393  0.4063
  177MOL    O9525087   5.408   0.889   7.554 -0.1557 -0.6474  0.4012
  177MOL    H9625088   5.508   0.754   7.427  0.6879  0.3478  1.8427
  177MOL    H9725089   5.455   1.037   7.353  2.3402  2.2821 -3.3233
  177MOL    H9825090   5.547   0.910   7.259  2.1506  0.5588  0.7677
  177MOL    H9925091   5.611   0.967   7.421  0.1002  3.1643 -0.7337
  177MOL   C10025092   5.377   0.787   7.644  0.1154  0.0791 -0.4135
  177MOL   C10125093   5.505   0.744   7.722  0.1923 -0.0080 -0.3414
  177MOL   O10225094   5.277   0.820   7.736 -0.1865 -0.0243 -0.4444
  177MOL   H10325095   5.339   0.695   7.598  0.1210 -0.4613  0.6602
  177MOL   H10425096   5.567   0.833   7.738 -0.5973  0.4982 -0.0695
  177MOL   H10525097   5.570   0.684   7.659  2.0016  0.6180  0.8960
  177MOL   H10625098   5.479   0.692   7.813 -0.8553 -0.2187 -0.7563
  177MOL   C10725099   5.146   0.813   7.688  0.4465  0.0562 -0.0514
  177MOL   C10825100   5.064   0.717   7.774  0.1709  0.0719 -0.3624
  177MOL   O10925101   5.080   0.933   7.695  0.0618  0.4441 -0.3484
  177MOL   H11025102   5.132   0.787   7.584  2.7251  0.6350 -0.5448
  177MOL   H11125103   5.050   0.733   7.881 -0.9530  1.2531 -0.6790
  177MOL   H11225104   5.094   0.614   7.758  0.0763 -0.3277  1.9381
  177MOL   H11325105   4.965   0.712   7.727  0.8459  2.0424 -2.0906
  177MOL   C11425106   5.122   1.034   7.611 -0.1581 -0.2027  1.1128
  177MOL   C11525107   5.000   1.067   7.512  0.2364  0.0795 -0.2797
  177MOL   O11625108   5.137   1.149   7.683  0.5982 -0.2016  0.0728
  177MOL   H11725109   5.207   1.008   7.549 -0.8903 -1.1012  0.4659
  177MOL   H11825110   4.919   1.114   7.567 -0.1874  0.8991 -1.5893
  177MOL   H11925111   4.967   0.973   7.466  1.0844 -0.3766  0.0266
  177MOL   H12025112   5.029   1.132   7.429  1.7266  0.1065  0.2441
  177MOL   C12125113   5.259   1.156   7.751 -0.2826 -0.4804 -0.2618
  177MOL   C12225114   5.359   1.209   7.656 -0.6756  0.5034  0.1151
  177MOL   O12325115   5.245   1.245   7.862  0.9422 -0.3834  0.2328
  177MOL   H12425116   5.290   1.058   7.788 -0.8501 -0.2791  0.7675
  177MOL   H12525117   5.321   1.305   7.622  2.0321  1.3869 -0.5421
  177MOL   H12625118   5.381   1.137   7.577 -1.1008 -1.4427  1.7434
  177MOL   H12725119   5.454   1.225   7.707 -0.8453  0.2281  0.5138
  177MOL   C12825120   5.182   1.189   0.055  0.3401 -0.7699 -0.0134
  177MOL   C12925121   5.277   1.172   0.172 -0.0812 -0.0479  1.2557
  177MOL   O13025122   5.079   1.276   0.094 -0.0490 -0.3005  0.1436
  177MOL   H13125123   5.136   1.094   0.027 -1.9499  0.1902  0.3504
  177MOL   H13225124   5.242   1.120   0.261  1.3966 -1.6830  0.9028
  177MOL   H13325125   5.313   1.267   0.210 -3.3276  1.2001  1.3628
  177MOL   H13425126   5.369   1.126   0.135  1.4686  2.3444  1.9904
  177MOL   C13525127   4.967   1.285   0.005  0.0508 -0.3410  0.0626
  177MOL   C13625128   4.843   1.347   0.080  0.5357 -0.3189  0.1280
  177MOL   O13725129   5.001   1.381   7.819  0.1730  0.2345  0.2853
  177MOL   H13825130   4.941   1.191   7.869 -1.4030  1.2246 -2.1947
  177MOL   H13925131   4.749   1.353   0.024  0.2839  0.9545  0.6698
  177MOL   H14025132   4.864   1.452   0.098 -1.4561  0.5502 -2.3324
  177MOL   H14125133   4.832   1.309   0.182 -0.0170  0.5542  0.3964
  177MOL   H14225134   5.065   1.334   7.766  1.0070 -0.3738  1.8145
  178MOL     C125135   3.807   4.118   2.962 -0.0471 -0.8271 -0.0453
  178MOL     C225136   3.729   4.104   2.831 -0.5842  0.3076 -0.5769
  178MOL     O325137   3.891   4.003   2.986  0.2656  0.0668 -0.1255
  178MOL     H425138   3.749   4.117   3.054  1.5635  0.0443  0.9854
  178MOL     H525139   3.796   4.078   2.749 -0.4866 -1.2862 -0.0074
  178MOL     H625140   3.668   4.189   2.801  2.4780  1.4477 -4.0024
  178MOL     H725141   3.658   4.023   2.846 -1.3644  1.5294  2.6838
  178MOL     H825142   3.872   4.205   2.962 -0.9289 -0.1708  0.0300
  178MOL     C925143   3.987   4.027   3.083  0.9069  0.1357 -0.5987
  178MOL    C1025144   4.034   3.906   3.147  0.0653 -0.1078  0.3799
  178MOL    O1125145   4.095   4.098   3.022 -0.4721 -0.4724  0.1676
  178MOL    H1225146   3.948   4.086   3.165  0.1233  0.1154 -0.9589
  178MOL    H1325147   4.072   3.836   3.073 -1.2866 -1.0674  0.5544
  178MOL    H1425148   3.948   3.861   3.197  0.3579 -0.8244  0.2469
  178MOL    H1525149   4.102   3.929   3.229  2.6762  1.6535 -2.2114
  178MOL    C1625150   4.142   4.200   3.099  0.5693 -0.4375 -0.1247
  178MOL    C1725151   4.280   4.247   3.043  0.5633  0.2151  0.7662
  178MOL    O1825152   4.058   4.309   3.098 -0.0571 -0.2600 -0.5776
  178MOL    H1925153   4.150   4.156   3.199 -0.7016 -1.1937 -0.3543
  178MOL    H2025154   4.336   4.308   3.115 -1.3544  1.9007  0.8658
  178MOL    H2125155   4.263   4.298   2.949  3.2811  1.7156  1.0327
  178MOL    H2225156   4.346   4.162   3.024 -0.6343 -0.1968 -1.6955
  178MOL    C2325157   4.050   4.379   3.219  0.2536  0.1039 -0.4082
  178MOL    C2425158   3.931   4.471   3.201 -0.7123 -0.4725  0.5032
  178MOL    O2525159   4.037   4.299   3.340  0.2146  0.0219  0.0579
  178MOL    H2625160   4.144   4.430   3.237 -0.4477  0.2487  3.1414
  178MOL    H2725161   3.842   4.409   3.204  1.2587 -3.3416  0.7471
  178MOL    H2825162   3.930   4.510   3.099 -0.5026  0.9037  1.0154
  178MOL    H2925163   3.921   4.545   3.280 -0.5340 -0.0302  0.1196
  178MOL    C3025164   4.128   4.326   3.442 -0.0333  0.0053  0.5622
  178MOL    C3125165   4.107   4.214   3.547 -0.1396 -0.0152 -0.2354
  178MOL    O3225166   4.260   4.315   3.400 -0.1730 -0.1555 -0.0508
  178MOL    H3325167   4.097   4.422   3.484 -0.5138 -1.2604  3.1658
  178MOL    H3425168   4.138   4.115   3.512  2.1971  1.1136 -1.4957
  178MOL    H3525169   4.000   4.223   3.565 -0.3054 -0.6888 -0.8462
  178MOL    H3625170   4.162   4.224   3.641  2.4135  1.7573 -1.8580
  178MOL    C3725171   4.344   4.416   3.448 -0.4026 -0.0491 -0.3574
  178MOL    C3825172   4.492   4.371   3.431 -0.1495  0.2322  0.6277
  178MOL    O3925173   4.328   4.538   3.374  0.5088 -0.0529 -0.3905
  178MOL    H4025174   4.329   4.430   3.555  1.0126  0.8336 -0.2602
  178MOL    H4125175   4.531   4.362   3.330 -1.2372 -1.3213  0.3307
  178MOL    H4225176   4.503   4.272   3.474  4.1648 -0.0556 -0.8399
  178MOL    H4325177   4.557   4.433   3.493  0.6327  0.6997 -0.6297
  178MOL    C4425178   4.284   4.646   3.452 -0.8812  0.1759 -0.2893
  178MOL    C4525179   4.332   4.771   3.376 -0.1976  0.8893 -0.6090
  178MOL    O4625180   4.141   4.641   3.470  0.1510  0.2665  0.3222
  178MOL    H4725181   4.337   4.647   3.548 -0.0590 -0.9485 -0.7323
  178MOL    H4825182   4.441   4.776   3.371  0.0245 -1.5562  0.8519
  178MOL    H4925183   4.291   4.860   3.425 -2.3040 -0.8501  0.8889
  178MOL    H5025184   4.285   4.768   3.278 -0.8280  2.5577 -0.3843
  178MOL    C5125185   4.107   4.652   3.604 -0.0732  0.5380 -0.0036
  178MOL    C5225186   3.951   4.673   3.602 -0.4812  0.2470 -0.4975
  178MOL    O5325187   4.147   4.541   3.679  0.4191  0.1232 -0.0971
  178MOL    H5425188   4.136   4.748   3.648 -3.2419  2.1840 -1.3347
  178MOL    H5525189   3.906   4.656   3.699 -1.2080 -4.0508 -1.4453
  178MOL    H5625190   3.906   4.599   3.535 -0.5362  0.8675 -1.1494
  178MOL    H5725191   3.943   4.774   3.563 -4.1910  0.2748  0.1570
  178MOL    C5825192   4.221   4.564   3.798 -0.0569  0.2883 -0.4446
  178MOL    C5925193   4.227   4.423   3.866 -0.6017  0.2853 -0.7310
  178MOL    O6025194   4.355   4.598   3.778  0.4226 -0.4958 -0.0827
  178MOL    H6125195   4.166   4.630   3.864 -0.7421 -2.2128  1.5531
  178MOL    H6225196   4.125   4.386   3.877 -0.1003 -0.7876  0.4886
  178MOL    H6325197   4.282   4.439   3.959  0.0905  1.7881 -1.3945
  178MOL    H6425198   4.291   4.353   3.811  0.2015  1.6058 -1.4883
  178MOL    C6525199   4.397   4.725   3.836  0.1729  0.5061  0.3396
  178MOL    C6625200   4.551   4.721   3.823 -0.2335  0.1685  0.3204
  178MOL    O6725201   4.365   4.838   3.760  0.0762 -0.0891 -0.3645
  178MOL    H6825202   4.367   4.725   3.941  3.0500  2.4930  1.2186
  178MOL    H6925203   4.582   4.637   3.886  0.4599  0.3887  0.2798
  178MOL    H7025204   4.597   4.816   3.852  2.4721 -0.2035 -2.4042
  178MOL    H7125205   4.593   4.700   3.724 -0.4451  0.1942  0.2270
  178MOL    C7225206   4.281   4.936   3.821 -0.5495  0.2527 -0.5856
  178MOL    C7325207   4.300   5.063   3.734 -0.1383  0.1742  0.2175
  178MOL    O7425208   4.145   4.905   3.818  1.3774 -0.0959  0.9730
  178MOL    H7525209   4.318   4.961   3.921 -0.6245 -0.8522 -0.2790
  178MOL    H7625210   4.238   5.144   3.774 -1.6144 -0.7423 -0.1606
  178MOL    H7725211   4.275   5.040   3.630 -0.7449  0.9896  0.1782
  178MOL    H7825212   4.405   5.090   3.736  0.7223 -2.8097 -1.4972
  178MOL    C7925213   4.084   4.931   3.941 -0.7887  0.1759  0.0939
  178MOL    C8025214   3.931   4.920   3.937 -0.7112 -0.2079 -0.7078
  178MOL    O8125215   4.130   4.840   4.035  0.2494  0.0928 -0.3495
  178MOL    H8225216   4.097   5.034   3.973 -1.3716  1.3697 -3.3161
  178MOL    H8325217   3.892   4.832   3.886  1.5506 -2.4006  1.1957
  178MOL    H8425218   3.887   5.008   3.891  1.8174 -0.5343 -4.0033
  178MOL    H8525219   3.903   4.907   4.041  0.6904 -2.4416 -0.5739
  178MOL    C8625220   4.158   4.917   4.158 -0.3353  0.0519 -0.0684
  178MOL    C8725221   4.168   4.821   4.278  0.3700 -0.6230 -0.0164
  178MOL    O8825222   4.279   4.995   4.148  0.1551 -0.2627 -0.3795
  178MOL    H8925223   4.074   4.980   4.188 -1.1575 -1.0989  0.1000
  178MOL    H9025224   4.211   4.886   4.354  1.5380 -0.2694 -0.9561
  178MOL    H9125225   4.239   4.739   4.265  1.1390  0.0719 -0.2657
  178MOL    H9225226   4.070   4.784   4.305 -0.9922  1.5568 -1.7666
  178MOL    C9325227   4.272   5.131   4.190 -0.7608 -0.2377  0.1072
  178MOL    C9425228   4.416   5.174   4.218  0.6345  0.0893 -0.6244
  178MOL    O9525229   4.230   5.207   4.089  0.3712 -0.0728  0.3434
  178MOL    H9625230   4.214   5.130   4.282  2.7130  0.7090  2.4311
  178MOL    H9725231   4.415   5.282   4.226  2.6477  0.1483 -0.7049
  178MOL    H9825232   4.490   5.141   4.145  2.4755  1.7150  0.4433
  178MOL    H9925233   4.443   5.126   4.312  1.4169 -0.3224 -1.0526
  178MOL   C10025234   4.122   5.293   4.109  0.2550 -0.3819 -0.5342
  178MOL   C10125235   4.099   5.379   3.974  0.4655  0.8339  0.1333
  178MOL   O10225236   4.001   5.220   4.127  0.1413  0.5602 -0.5281
  178MOL   H10325237   4.143   5.374   4.179  0.2048 -0.9061  0.0816
  178MOL   H10425238   4.069   5.310   3.895  1.2838  0.7866 -0.1472
  178MOL   H10525239   4.194   5.423   3.942  1.5267 -0.7287  1.0127
  178MOL   H10625240   4.025   5.458   3.981  0.8465  1.3022 -1.0372
  178MOL   C10725241   3.927   5.263   4.232  0.2474  0.5752 -0.0297
  178MOL   C10825242   3.806   5.174   4.226  0.9320  0.1011  0.4558
  178MOL   O10925243   4.000   5.217   4.347  0.1618  0.0892  0.3638
  178MOL   H11025244   3.915   5.371   4.227 -0.0193  0.7054  2.5240
  178MOL   H11125245   3.745   5.198   4.313  2.5542  0.9817  1.3666
  178MOL   H11225246   3.822   5.069   4.249 -1.7067 -0.8275 -1.6423
  178MOL   H11325247   3.750   5.190   4.134 -0.8172  3.1324  1.9484
  178MOL   C11425248   3.958   5.243   4.474 -0.4688 -0.6458 -0.3927
  178MOL   C11525249   4.049   5.154   4.557 -0.9775  0.1290  0.2603
  178MOL   O11625250   3.988   5.374   4.507 -0.3104  0.1551  0.1050
  178MOL   H11725251   3.853   5.217   4.490 -0.9970  1.4809 -0.2912
  178MOL   H11825252   4.028   5.160   4.663 -1.3338  0.3843  0.1778
  178MOL   H11925253   4.151   5.188   4.540 -0.8525  0.8221  2.3189
  178MOL   H12025254   4.043   5.050   4.525  0.9147 -0.8054  2.8379
  178MOL   C12125255   3.882   5.450   4.548  0.2416 -0.3205 -1.0634
  178MOL   C12225256   3.937   5.591   4.578  0.6124 -0.0591  0.4015
  178MOL   O12325257   3.782   5.452   4.451  0.6372  0.3567 -0.1146
  178MOL   H12425258   3.843   5.400   4.637 -3.4810  1.6053 -1.5103
  178MOL   H12525259   3.969   5.641   4.487  1.3436  1.1349  1.3056
  178MOL   H12625260   4.016   5.579   4.652  0.0577  0.7483  1.1231
  178MOL   H12725261   3.856   5.648   4.623  0.7928  0.4642  0.0680
  178MOL   C12825262   3.659   5.492   4.495 -0.6160 -0.1297  0.5852
  178MOL   C12925263   3.567   5.487   4.373 -0.2249 -0.3805 -0.0723
  178MOL   O13025264   3.607   5.406   4.589  0.0490  0.9733 -0.2499
  178MOL   H13125265   3.665   5.595   4.531 -0.4847 -0.1619  0.6550
  178MOL   H13225266   3.464   5.488   4.409 -0.1244  0.9258  0.2276
  178MOL   H13325267   3.577   5.388   4.331  0.7197 -0.9244  1.4058
  178MOL   H13425268   3.581   5.569   4.302  0.4215 -3.8155 -4.0424
  178MOL   C13525269   3.580   5.453   4.717  0.3977 -0.0649  0.1392
  178MOL   C13625270   3.443   5.526   4.715  0.1694 -0.1330 -0.3965
  178MOL   O13725271   3.575   5.346   4.807 -0.2850 -0.8980  0.1604
  178MOL   H13825272   3.661   5.520   4.744  0.7342  0.2720 -1.6180
  178MOL   H13925273   3.448   5.556   4.820  0.7733 -2.3241  0.2198
  178MOL   H14025274   3.368   5.448   4.702  0.3529 -0.4749  0.5122
  178MOL   H14125275   3.440   5.603   4.638 -0.9640 -0.5621 -0.7980
  178MOL   H14225276   3.503   5.291   4.781  0.0050 -1.5909  0.8148
  179MOL     C125277   3.000   2.889   5.009 -1.2353 -0.1538 -0.2250
  179MOL     C225278   3.078   2.929   5.133  0.3946 -0.1271 -0.1842
  179MOL     O325279   2.924   2.779   5.039 -0.0745  0.1673 -0.2148
  179MOL     H425280   3.081   2.874   4.936 -0.4960 -1.1179  0.7819
  179MOL     H525281   3.146   3.013   5.119  0.1094  0.2249  0.5063
  179MOL     H625282   3.137   2.850   5.179 -1.1131 -0.5453  1.0721
  179MOL     H725283   3.008   2.958   5.211  0.2147 -2.7710  0.6968
  179MOL     H825284   2.946   2.972   4.964 -0.5929  0.7859  0.7211
  179MOL     C925285   2.868   2.716   4.937 -0.4990 -0.3502  0.0032
  179MOL    C1025286   2.797   2.597   5.004  0.0798 -0.0269  0.2501
  179MOL    O1125287   2.764   2.790   4.885  0.0457  0.2257  0.6693
  179MOL    H1225288   2.946   2.681   4.869  1.7343  0.1242  2.2552
  179MOL    H1325289   2.873   2.538   5.054  1.8941  1.1413 -1.0583
  179MOL    H1425290   2.737   2.530   4.943  1.4576 -1.6704  0.6648
  179MOL    H1525291   2.734   2.634   5.085  0.6229  1.6099 -0.0552
  179MOL    C1625292   2.788   2.807   4.747 -0.0485  0.2624  0.2796
  179MOL    C1725293   2.665   2.859   4.677  0.1360  0.0769 -0.0126
  179MOL    O1825294   2.887   2.898   4.722  0.1338  0.4338 -0.1680
  179MOL    H1925295   2.823   2.710   4.710 -0.0981  0.8179 -1.2910
  179MOL    H2025296   2.587   2.787   4.701  0.1860 -0.3912 -1.2232
  179MOL    H2125297   2.676   2.868   4.569  0.0803 -2.0441 -0.2230
  179MOL    H2225298   2.639   2.955   4.722 -0.0294 -0.0019  0.0609
  179MOL    C2325299   2.981   2.856   4.626 -0.7560  0.4732  0.2076
  179MOL    C2425300   3.053   2.979   4.575 -0.1554 -0.0619 -0.1948
  179MOL    O2525301   3.079   2.779   4.692  0.5983 -0.3011  0.2293
  179MOL    H2625302   2.946   2.807   4.535  1.8046  2.2060 -1.7764
  179MOL    H2725303   3.103   3.028   4.659 -0.3149 -0.7461  0.3035
  179MOL    H2825304   2.985   3.044   4.520  0.2687  0.1441 -0.4828
  179MOL    H2925305   3.128   2.948   4.502 -0.8023 -1.2924 -0.3430
  179MOL    C3025306   3.138   2.676   4.609  0.1921 -0.3570  0.4703
  179MOL    C3125307   3.239   2.598   4.690 -0.5934 -0.1694 -0.4391
  179MOL    O3225308   3.037   2.584   4.564  0.0952  0.2016  0.6699
  179MOL    H3325309   3.198   2.724   4.531  2.5393 -1.6883  1.4017
  179MOL    H3425310   3.183   2.535   4.760 -0.1578  0.4049  0.4407
  179MOL    H3525311   3.298   2.658   4.759 -2.6443 -1.2757  2.3888
  179MOL    H3625312   3.293   2.526   4.628 -1.2347 -1.9445  0.9960
  179MOL    C3725313   3.075   2.519   4.449 -0.5484 -0.9843  0.4611
  179MOL    C3825314   2.954   2.434   4.397  0.3621 -0.2868 -0.6810
  179MOL    O3925315   3.117   2.601   4.342 -0.4794  0.1917  0.1672
  179MOL    H4025316   3.147   2.442   4.476 -0.8027 -1.6897 -0.8474
  179MOL    H4125317   2.870   2.487   4.352  0.6253  2.2989  1.6940
  179MOL    H4225318   2.921   2.369   4.478 -2.5310  1.2912 -0.5226
  179MOL    H4325319   2.996   2.375   4.315  3.3142  0.5846  0.1282
  179MOL    C4425320   3.234   2.564   4.281 -0.7141  0.1638  0.3080
  179MOL    C4525321   3.249   2.658   4.159  0.2891  0.3170 -0.7666
  179MOL    O4625322   3.333   2.593   4.382 -0.6390  0.2088  0.0219
  179MOL    H4725323   3.233   2.458   4.258  0.6838  0.1709  0.2030
  179MOL    H4825324   3.258   2.761   4.191  1.4564 -0.3414  1.1293
  179MOL    H4925325   3.166   2.640   4.091  0.8707 -0.7730 -1.2110
  179MOL    H5025326   3.341   2.632   4.106  1.1104  1.8247 -0.0923
  179MOL    C5125327   3.444   2.502   4.376  0.0220  0.0645  0.5943
  179MOL    C5225328   3.560   2.564   4.459  0.3820  0.9692  0.0428
  179MOL    O5325329   3.408   2.377   4.421 -0.2543 -0.3530 -0.2873
  179MOL    H5425330   3.484   2.501   4.274  1.2164  1.7841  1.0165
  179MOL    H5525331   3.600   2.653   4.411  2.0702  0.1487 -0.1354
  179MOL    H5625332   3.647   2.499   4.444 -0.2365  0.3366 -0.8750
  179MOL    H5725333   3.531   2.577   4.563 -0.1569  0.4221 -0.0375
  179MOL    C5825334   3.461   2.274   4.352 -0.1622  0.1032  0.5711
  179MOL    C5925335   3.385   2.153   4.406  0.5011  0.1037 -0.2272
  179MOL    O6025336   3.427   2.284   4.214  0.7038  0.0601  0.5955
  179MOL    H6125337   3.566   2.276   4.381 -0.2211  2.2126  0.6694
  179MOL    H6225338   3.417   2.061   4.358  0.4738  0.6370 -1.2817
  179MOL    H6325339   3.283   2.175   4.374  0.7850  2.6879  0.4734
  179MOL    H6425340   3.404   2.147   4.513  0.7890 -0.4132 -0.3066
  179MOL    C6525341   3.517   2.217   4.127  0.8122  0.3137  0.1994
  179MOL    C6625342   3.473   2.247   3.974  0.4111 -0.1967 -0.2487
  179MOL    O6725343   3.648   2.257   4.136  0.0821 -0.1168 -0.4688
  179MOL    H6825344   3.507   2.109   4.139  0.2918  0.1767 -1.3571
  179MOL    H6925345   3.395   2.177   3.946  0.0704  0.0812  0.0029
  179MOL    H7025346   3.557   2.219   3.910  2.6351  2.3378  1.4734
  179MOL    H7125347   3.446   2.352   3.963 -2.2132 -0.6392  1.6013
  179MOL    C7225348   3.739   2.162   4.182  0.3122 -0.2874 -1.2128
  179MOL    C7325349   3.864   2.225   4.201 -0.6062 -0.9196 -0.6977
  179MOL    O7425350   3.707   2.114   4.311 -0.2588  0.3302 -0.4583
  179MOL    H7525351   3.742   2.083   4.106 -0.2528  0.5115 -2.0831
  179MOL    H7625352   3.859   2.273   4.298  0.2022 -0.5343 -0.8420
  179MOL    H7725353   3.882   2.290   4.115 -1.5493  0.4967  0.1577
  179MOL    H7825354   3.950   2.157   4.203  1.2078  1.2493 -2.2785
  179MOL    C7925355   3.727   1.976   4.330  0.0497  0.2130  0.3883
  179MOL    C8025356   3.695   1.937   4.475  0.1738 -0.3962 -0.3032
  179MOL    O8125357   3.638   1.908   4.246  0.4758 -0.3110  0.2973
  179MOL    H8225358   3.831   1.949   4.311 -0.3212 -1.0602  0.1287
  179MOL    H8325359   3.704   1.830   4.490 -1.7991 -0.2425  2.2768
  179MOL    H8425360   3.595   1.974   4.495 -0.2994 -0.7305 -1.9574
  179MOL    H8525361   3.768   1.996   4.531  0.7413  0.2360 -1.6754
  179MOL    C8625362   3.697   1.799   4.176  0.1117 -0.4286  0.0154
  179MOL    C8725363   3.602   1.680   4.153 -0.1685 -0.3794 -0.5047
  179MOL    O8825364   3.751   1.840   4.049 -0.0450 -0.1490  0.3673
  179MOL    H8925365   3.777   1.758   4.238 -0.0073 -0.7598 -0.0519
  179MOL    H9025366   3.517   1.704   4.088 -1.8477 -0.6935  1.5425
  179MOL    H9125367   3.561   1.673   4.253 -0.2830  0.8518 -0.4548
  179MOL    H9225368   3.648   1.591   4.111 -0.2376 -0.4662 -0.3942
  179MOL    C9325369   3.884   1.792   4.039 -0.2875  0.3851  0.3820
  179MOL    C9425370   3.934   1.846   3.905  0.3493 -0.1653  0.3939
  179MOL    O9525371   3.969   1.856   4.132  0.5313 -0.6623 -0.5577
  179MOL    H9625372   3.898   1.684   4.039 -0.7886  0.3173 -0.2492
  179MOL    H9725373   3.891   1.946   3.899 -1.3644 -0.9319 -0.4854
  179MOL    H9825374   3.889   1.792   3.822 -0.5771  0.2525  0.6071
  179MOL    H9925375   4.042   1.859   3.901  0.1475  1.1389 -1.1135
  179MOL   C10025376   4.068   1.774   4.188 -0.7001 -0.4328  0.5804
  179MOL   C10125377   4.174   1.868   4.248 -0.2530  0.4861 -0.3331
  179MOL   O10225378   4.016   1.701   4.302  0.1651 -0.0518 -0.2870
  179MOL   H10325379   4.111   1.715   4.107 -1.0537 -1.1474  0.9071
  179MOL   H10425380   4.208   1.946   4.180  0.2582 -1.3366 -2.2220
  179MOL   H10525381   4.263   1.810   4.272 -2.1920 -3.3540 -1.9061
  179MOL   H10625382   4.133   1.913   4.339  0.3557 -0.5032  0.4442
  179MOL   C10725383   4.046   1.564   4.295 -0.3146  0.2384  0.3608
  179MOL   C10825384   4.057   1.507   4.439  0.0728  0.0236 -0.4537
  179MOL   O10925385   3.947   1.502   4.230 -0.3441 -0.1156  0.0122
  179MOL   H11025386   4.143   1.559   4.245 -0.1326 -1.1043  0.8512
  179MOL   H11125387   4.067   1.400   4.424  0.8866  0.2214 -1.3894
  179MOL   H11225388   3.965   1.532   4.491 -0.5650 -2.7808 -0.1447
  179MOL   H11325389   4.144   1.550   4.489  0.5862 -0.3360 -1.0308
  179MOL   C11425390   3.986   1.398   4.145 -0.2773  0.3888 -0.0993
  179MOL   C11525391   3.851   1.319   4.120  0.3471 -0.4155 -0.4034
  179MOL   O11625392   4.021   1.460   4.024 -0.2429 -0.1448  0.1574
  179MOL   H11725393   4.054   1.323   4.186 -0.5350 -0.3050 -0.9233
  179MOL   H11825394   3.760   1.379   4.127  0.5081 -0.3598  1.2629
  179MOL   H11925395   3.837   1.242   4.196 -2.3962 -0.0585 -0.4863
  179MOL   H12025396   3.852   1.272   4.021  0.2275 -2.2931  0.4627
  179MOL   C12125397   4.125   1.391   3.958  0.4084  0.0466  0.2213
  179MOL   C12225398   4.135   1.440   3.817  0.3336 -0.4942 -0.3101
  179MOL   O12325399   4.252   1.412   4.009  0.2048 -0.0222  0.2585
  179MOL   H12425400   4.093   1.287   3.951  0.0391  0.2179 -0.8787
  179MOL   H12525401   4.172   1.543   3.822 -2.1056  0.3576  0.8398
  179MOL   H12625402   4.036   1.420   3.778 -0.1094 -0.4414  0.7830
  179MOL   H12725403   4.201   1.381   3.753 -2.9955 -0.7838 -3.5954
  179MOL   C12825404   4.337   1.306   4.012  0.6979  0.4757 -0.3738
  179MOL   C12925405   4.472   1.375   4.036  0.4059 -0.2047 -0.2481
  179MOL   O13025406   4.298   1.217   4.109  0.0193  0.2509 -0.3314
  179MOL   H13125407   4.343   1.261   3.913  1.4689  1.4154 -0.7609
  179MOL   H13225408   4.553   1.302   4.029 -0.0291 -0.6086 -1.2350
  179MOL   H13325409   4.473   1.418   4.137  1.1660  1.9317 -1.1394
  179MOL   H13425410   4.494   1.450   3.960 -0.6459 -0.5267 -0.8848
  179MOL   C13525411   4.315   1.083   4.076  0.7859 -0.3602 -0.0955
  179MOL   C13625412   4.263   1.004   4.199 -0.0082 -0.1846 -0.1109
  179MOL   O13725413   4.244   1.046   3.956 -0.3736  0.0106  0.1170
  179MOL   H13825414   4.419   1.054   4.060  1.1857  1.4328 -0.8441
  179MOL   H13925415   4.165   1.044   4.222 -0.5999 -1.2033 -0.7975
  179MOL   H14025416   4.338   1.011   4.278 -0.3207  0.2393  0.1498
  179MOL   H14125417   4.236   0.898   4.191  1.3724 -0.5851  0.3106
  179MOL   H14225418   4.237   0.952   3.959 -0.7891 -0.0446 -1.9234
  180MOL     C125419   4.722   1.438   1.992  0.0686  1.3447  0.3097
  180MOL     C225420   4.709   1.388   1.854  0.3787 -0.1790  0.0226
  180MOL     O325421   4.593   1.458   2.046 -0.1896  0.1487  0.2661
  180MOL     H425422   4.785   1.527   2.005  0.5407  1.2501 -1.2302
  180MOL     H525423   4.804   1.381   1.800 -0.0955 -3.4407 -0.4984
  180MOL     H625424   4.648   1.462   1.803  1.0180 -0.2125 -0.8105
  180MOL     H725425   4.662   1.290   1.850  1.6794 -0.7663 -2.0697
  180MOL     H825426   4.771   1.355   2.043  0.2950  0.1683 -1.7917
  180MOL     C925427   4.585   1.460   2.186 -0.7569  0.3929  0.1910
  180MOL    C1025428   4.597   1.605   2.232  0.5921 -0.1372 -0.8379
  180MOL    O1125429   4.460   1.410   2.222 -0.2909  0.1114 -0.3241
  180MOL    H1225430   4.668   1.405   2.231 -1.5828  0.7663  2.2356
  180MOL    H1325431   4.589   1.630   2.338  0.3021 -1.7650 -0.4508
  180MOL    H1425432   4.510   1.656   2.191  2.1017  2.5611 -0.7661
  180MOL    H1525433   4.691   1.652   2.206  0.9885  0.0331  0.8572
  180MOL    C1625434   4.457   1.274   2.209  0.1418  0.1936  0.1903
  180MOL    C1725435   4.352   1.228   2.313 -0.1572 -0.0324 -0.9783
  180MOL    O1825436   4.421   1.237   2.078  0.1952  0.0931 -0.1959
  180MOL    H1925437   4.552   1.228   2.235 -1.2155 -3.2184 -0.6590
  180MOL    H2025438   4.253   1.272   2.298 -1.1471 -1.4455  1.2721
  180MOL    H2125439   4.392   1.267   2.407 -0.4141 -0.7584 -0.5711
  180MOL    H2225440   4.338   1.120   2.317  2.7278 -0.4525 -0.9073
  180MOL    C2325441   4.472   1.108   2.044  0.4924  0.3942 -0.1002
  180MOL    C2425442   4.421   1.067   1.904  0.8935 -0.5654 -0.4381
  180MOL    O2525443   4.609   1.123   2.031  0.0176  0.1853  0.3865
  180MOL    H2625444   4.428   1.033   2.110 -0.3809  0.2991 -0.7807
  180MOL    H2725445   4.454   0.968   1.871 -1.6576 -2.9239  3.5821
  180MOL    H2825446   4.446   1.141   1.829 -0.9262  1.1515  0.6114
  180MOL    H2925447   4.313   1.053   1.904  0.4224  2.8316  0.1338
  180MOL    C3025448   4.680   1.025   2.098  0.1910  0.3606  0.7372
  180MOL    C3125449   4.830   1.061   2.085  0.9653 -0.2259  0.0034
  180MOL    O3225450   4.641   1.005   2.235 -0.1912 -0.2107  0.2979
  180MOL    H3325451   4.669   0.929   2.047  1.7938  1.7912 -2.4233
  180MOL    H3425452   4.864   1.046   1.983 -0.3628  1.2688 -0.6590
  180MOL    H3525453   4.889   0.994   2.149 -0.8227  0.2486  2.1990
  180MOL    H3625454   4.856   1.163   2.112 -0.7117  0.7541 -1.9711
  180MOL    C3725455   4.640   0.875   2.284  0.4817  0.8208  0.1186
  180MOL    C3825456   4.641   0.883   2.438  0.4044  0.8012 -0.2723
  180MOL    O3925457   4.520   0.818   2.244  0.6161  0.6444 -0.1586
  180MOL    H4025458   4.736   0.835   2.250 -0.4572  0.0405 -1.6468
  180MOL    H4125459   4.730   0.938   2.468  1.6700 -0.5833 -1.4613
  180MOL    H4225460   4.649   0.783   2.479 -2.3147  0.4294 -0.5667
  180MOL    H4325461   4.554   0.939   2.473 -0.0540  1.1177 -1.8812
  180MOL    C4425462   4.544   0.687   2.189 -0.4244  0.0044 -0.2214
  180MOL    C4525463   4.424   0.596   2.219 -0.8602  0.7764  0.1353
  180MOL    O4625464   4.563   0.696   2.051  0.2419 -0.1832 -0.1153
  180MOL    H4725465   4.625   0.633   2.238 -1.6689 -1.7830 -0.0939
  180MOL    H4825466   4.342   0.631   2.155 -2.8740 -2.7746  0.6354
  180MOL    H4925467   4.399   0.595   2.325 -1.6737 -2.2142 -0.0239
  180MOL    H5025468   4.439   0.492   2.190  1.5088  1.5645 -1.6107
  180MOL    C5125469   4.678   0.639   2.001 -0.4746  0.3290  0.6724
  180MOL    C5225470   4.680   0.664   1.850 -0.4950  0.1637 -0.5781
  180MOL    O5325471   4.782   0.711   2.059 -0.0775  0.4543  0.3156
  180MOL    H5425472   4.685   0.532   2.020  0.1266  0.3030  0.3376
  180MOL    H5525473   4.786   0.657   1.823 -0.3978 -0.8016  0.0493
  180MOL    H5625474   4.657   0.769   1.832  0.3462  0.8490  2.1799
  180MOL    H5725475   4.612   0.596   1.800 -1.5700 -0.7580  2.0935
  180MOL    C5825476   4.908   0.644   2.080  0.3086 -0.0357 -0.6637
  180MOL    C5925477   5.015   0.748   2.115 -0.4805 -0.4510 -0.3696
  180MOL    O6025478   4.896   0.563   2.192  0.3003  0.3673  0.1513
  180MOL    H6125479   4.934   0.587   1.990 -0.7916  0.5693 -1.3847
  180MOL    H6225480   4.994   0.800   2.208 -0.7835 -1.1310 -0.0602
  180MOL    H6325481   5.031   0.822   2.035  0.7232  0.7068  0.9017
  180MOL    H6425482   5.110   0.699   2.134 -0.7427 -0.9680 -0.4114
  180MOL    C6525483   4.960   0.429   2.189  0.3922  0.0973  0.7835
  180MOL    C6625484   4.985   0.387   2.336 -0.0507 -0.5994 -0.1848
  180MOL    O6725485   4.884   0.337   2.131 -0.2875 -0.0371 -0.4579
  180MOL    H6825486   5.060   0.450   2.151 -0.2310 -1.1419 -1.6294
  180MOL    H6925487   4.891   0.398   2.389  0.0265  0.4597 -0.2596
  180MOL    H7025488   5.060   0.459   2.370 -1.1469  0.8657 -0.8163
  180MOL    H7125489   5.028   0.286   2.338  1.0747 -0.1428 -0.5966
  180MOL    C7225490   4.926   0.273   2.010  0.5596 -0.1936  0.1010
  180MOL    C7325491   4.826   0.164   1.988 -0.5117  0.0724 -0.1665
  180MOL    O7425492   4.917   0.357   1.894 -0.1348 -0.0180 -0.5555
  180MOL    H7525493   5.018   0.226   2.044 -1.1170 -2.3608  1.7704
  180MOL    H7625494   4.721   0.193   1.989 -0.3977  0.5103 -0.7002
  180MOL    H7725495   4.846   0.096   2.071  0.2699 -0.8377 -1.0920
  180MOL    H7825496   4.857   0.095   1.910  1.7116  1.1127 -0.2591
  180MOL    C7925497   5.034   0.367   1.828  0.7293 -0.1150  0.5204
  180MOL    C8025498   5.007   0.425   1.690 -0.0282  0.7090  0.5519
  180MOL    O8125499   5.126   0.451   1.890 -0.4976  1.0120  0.5591
  180MOL    H8225500   5.077   0.271   1.800  0.2477 -0.1516 -0.0879
  180MOL    H8325501   4.984   0.532   1.696 -0.8842  0.4591  1.8759
  180MOL    H8425502   4.922   0.369   1.650 -0.1632  1.0574  0.3508
  180MOL    H8525503   5.090   0.409   1.621 -0.6541 -2.5668  0.4882
  180MOL    C8625504   5.254   0.410   1.892 -0.5499  0.2929  0.1910
  180MOL    C8725505   5.341   0.537   1.932 -0.6966 -0.6503 -0.0407
  180MOL    O8825506   5.264   0.310   1.992 -0.0668 -0.2709  0.0769
  180MOL    H8925507   5.273   0.364   1.795  0.4253 -3.6418  2.1283
  180MOL    H9025508   5.297   0.589   2.017 -0.0712  0.4350 -0.3731
  180MOL    H9125509   5.339   0.595   1.839 -1.5960 -0.0037  0.3784
  180MOL    H9225510   5.442   0.498   1.942 -0.1219  0.2164 -2.1053
  180MOL    C9325511   5.364   0.219   1.973  0.1150  0.1342  0.2108
  180MOL    C9425512   5.379   0.152   2.105 -0.9971  0.2420 -0.3097
  180MOL    O9525513   5.320   0.124   1.878 -0.1000 -0.0549  0.0713
  180MOL    H9625514   5.449   0.280   1.941 -1.2459  1.5053 -0.8882
  180MOL    H9725515   5.426   0.217   2.179  1.1061 -2.3210  0.6502
  180MOL    H9825516   5.440   0.065   2.083 -0.6594  0.6913 -1.1694
  180MOL    H9925517   5.277   0.129   2.137 -0.7355 -0.1836  0.2126
  180MOL   C10025518   5.415   0.101   1.778  0.3450  0.5582  0.6070
  180MOL   C10125519   5.378   7.891   1.696  0.4204 -0.0444  0.5195
  180MOL   O10225520   5.422   0.216   1.695 -0.2029 -0.1064  0.0581
  180MOL   H10325521   5.507   0.089   1.835  2.3063 -3.6508 -3.0922
  180MOL   H10425522   5.288   7.912   1.636  2.1588  2.1335 -1.4643
  180MOL   H10525523   5.351   7.809   1.762  0.5581 -0.1386  0.4586
  180MOL   H10625524   5.458   7.861   1.629  0.3797 -1.0727  0.9253
  180MOL   C10725525   5.544   0.279   1.674 -0.7235  0.0027  0.3814
  180MOL   C10825526   5.540   0.345   1.534 -0.1981 -0.5182 -0.2604
  180MOL   O10925527   5.567   0.385   1.767 -0.7369  0.2162  0.2217
  180MOL   H11025528   5.620   0.200   1.674 -1.1562 -0.4213  0.4890
  180MOL   H11125529   5.639   0.385   1.514 -1.8209  1.9134 -3.9637
  180MOL   H11225530   5.464   0.423   1.530  0.2294 -0.0879 -0.1472
  180MOL   H11325531   5.528   0.273   1.453 -2.3476 -0.9325  0.3893
  180MOL   C11425532   5.703   0.374   1.809  0.1450 -0.6926 -0.5285
  180MOL   C11525533   5.738   0.499   1.892 -0.2731 -0.0144  0.8920
  180MOL   O11625534   5.715   0.262   1.890 -0.3657  1.0904 -1.0142
  180MOL   H11725535   5.770   0.367   1.723  1.4878  0.7314  0.3636
  180MOL   H11825536   5.844   0.504   1.918 -0.6148  0.8282  2.1988
  180MOL   H11925537   5.672   0.502   1.978 -2.1814  0.4982 -0.5486
  180MOL   H12025538   5.706   0.592   1.844 -1.1280  1.3853  4.0514
  180MOL   C12125539   5.828   0.181   1.869  0.6886  0.6244 -0.0041
  180MOL   C12225540   5.874   0.112   1.997  0.3110  0.5541 -0.2901
  180MOL   O12325541   5.791   0.079   1.786 -0.3567  0.0413  0.4472
  180MOL   H12425542   5.905   0.246   1.825 -0.9275  1.0634 -2.2916
  180MOL   H12525543   5.909   0.191   2.064 -1.5180  1.8007 -0.7813
  180MOL   H12625544   5.946   0.033   1.976  0.9108  0.8490  0.5884
  180MOL   H12725545   5.787   0.064   2.043  1.6802 -1.3723  0.3799
  180MOL   C12825546   5.884   0.058   1.686  0.7659 -0.3034  0.0793
  180MOL   C12925547   5.871   7.824   1.661  0.5342 -0.6383  0.3033
  180MOL   O13025548   5.836   0.128   1.577 -0.3708  0.6140 -0.1755
  180MOL   H13125549   5.984   0.090   1.716  2.2467 -3.8029 -0.8758
  180MOL   H13225550   5.908   7.806   1.560  1.1390  0.5630  0.3035
  180MOL   H13325551   5.773   7.777   1.673  0.6936 -1.5998 -1.8743
  180MOL   H13425552   5.937   7.773   1.730  1.8238  1.5380  0.7330
  180MOL   C13525553   5.936   0.190   1.502 -0.3473  0.3860  0.1913
  180MOL   C13625554   5.873   0.218   1.363 -0.1391  0.3864  0.9593
  180MOL   O13725555   5.986   0.309   1.558  0.0715 -0.2251  0.2389
  180MOL   H13825556   6.023   0.124   1.492 -2.2320 -2.4926  1.9495
  180MOL   H13925557   5.845   0.125   1.314 -0.5703 -1.0012  3.7373
  180MOL   H14025558   5.941   0.266   1.293 -1.0406  3.1235  1.8871
  180MOL   H14125559   5.780   0.274   1.373 -0.8238 -1.1648  4.0311
  180MOL   H14225560   6.080   0.313   1.550  0.0322  0.8085  0.2024
  181MOL     C125561   5.639   2.556   5.525 -0.0054 -0.0438 -0.0865
  181MOL     C225562   5.761   2.575   5.615  0.3971  0.4081 -0.1901
  181MOL     O325563   5.528   2.646   5.557 -0.6606  0.2364 -0.2009
  181MOL     H425564   5.603   2.454   5.538 -2.4749  0.5480 -1.7742
  181MOL     H525565   5.796   2.679   5.610 -2.1844  1.2637 -1.4321
  181MOL     H625566   5.847   2.510   5.601  0.9750  0.9530  0.7440
  181MOL     H725567   5.717   2.556   5.713 -0.1461 -1.6131 -0.8157
  181MOL     H825568   5.666   2.557   5.419  0.7299 -0.6465  0.0929
  181MOL     C925569   5.410   2.649   5.489  0.3217  0.7662 -0.4166
  181MOL    C1025570   5.309   2.641   5.601 -0.6569  0.5314 -0.2312
  181MOL    O1125571   5.382   2.773   5.436 -0.6879  0.0543 -1.0357
  181MOL    H1225572   5.393   2.579   5.408 -0.5054  0.9869 -0.4418
  181MOL    H1325573   5.207   2.652   5.562  0.3785 -2.4173 -4.0657
  181MOL    H1425574   5.338   2.712   5.678 -2.7447 -0.6967  1.7523
  181MOL    H1525575   5.319   2.539   5.636  0.2858  0.5119 -0.5539
  181MOL    C1625576   5.468   2.802   5.333  0.7861  0.7090 -0.1014
  181MOL    C1725577   5.386   2.799   5.197 -0.0779 -0.5086 -0.4702
  181MOL    O1825578   5.510   2.929   5.357 -0.1366  0.3151  0.3681
  181MOL    H1925579   5.564   2.750   5.335  0.6086  0.3380 -1.0198
  181MOL    H2025580   5.308   2.875   5.191 -0.4675 -0.6741  2.1151
  181MOL    H2125581   5.335   2.703   5.187 -1.5902  0.2014  0.3095
  181MOL    H2225582   5.448   2.821   5.109 -1.5476  1.9207 -0.9579
  181MOL    C2325583   5.579   2.962   5.476  0.0917 -0.0772 -0.2567
  181MOL    C2425584   5.730   2.919   5.460  0.3790  0.5786  0.5913
  181MOL    O2525585   5.579   3.101   5.492 -0.4032 -0.3871 -0.3896
  181MOL    H2625586   5.527   2.916   5.559  2.6621  0.0952  1.4947
  181MOL    H2725587   5.784   2.979   5.386  1.4045  3.0419  3.2242
  181MOL    H2825588   5.742   2.813   5.441  1.1676  0.6342  0.7610
  181MOL    H2925589   5.780   2.930   5.557  0.5594 -3.6384  1.0677
  181MOL    C3025590   5.461   3.147   5.545 -0.0420 -0.2450  0.2264
  181MOL    C3125591   5.474   3.169   5.696 -0.1686 -0.5367  0.3496
  181MOL    O3225592   5.427   3.270   5.480 -0.3034 -0.1575  0.2589
  181MOL    H3325593   5.383   3.076   5.520  0.5715 -0.6049 -0.7062
  181MOL    H3425594   5.395   3.232   5.738  0.1823 -0.4932  0.9589
  181MOL    H3525595   5.556   3.242   5.700  0.4081 -1.1074 -0.7483
  181MOL    H3625596   5.492   3.082   5.760 -1.8513  0.1790  1.8262
  181MOL    C3725597   5.409   3.258   5.335  0.3146 -0.0823  0.4095
  181MOL    C3825598   5.273   3.326   5.308  0.4903 -0.2920 -0.4621
  181MOL    O3925599   5.496   3.345   5.265 -0.3666  0.2604 -0.2458
  181MOL    H4025600   5.409   3.156   5.297 -2.3024  0.2558 -0.6262
  181MOL    H4125601   5.203   3.256   5.354  0.8778 -0.9121 -0.7946
  181MOL    H4225602   5.268   3.330   5.199  3.8866 -2.0181 -0.7466
  181MOL    H4325603   5.282   3.430   5.339 -1.6711 -0.2288 -0.0274
  181MOL    C4425604   5.633   3.319   5.289  0.0095  0.3148  0.1347
  181MOL    C4525605   5.671   3.192   5.210 -0.2827 -0.0918  0.5451
  181MOL    O4625606   5.717   3.425   5.245 -0.1983 -0.0768  0.1831
  181MOL    H4725607   5.648   3.308   5.396 -0.4019  0.7550  0.2427
  181MOL    H4825608   5.621   3.098   5.232  0.7367 -0.6141  0.6704
  181MOL    H4925609   5.774   3.181   5.244 -0.2922 -0.3403  0.4929
  181MOL    H5025610   5.674   3.215   5.104  1.6132 -1.8617  0.1902
  181MOL    C5125611   5.697   3.547   5.310  0.1143  0.6089 -0.7062
  181MOL    C5225612   5.808   3.564   5.407 -0.5464  0.2661  0.5971
  181MOL    O5325613   5.685   3.654   5.220 -0.1745  0.5173  0.0505
  181MOL    H5425614   5.607   3.554   5.371  0.7072 -1.2059  0.4099
  181MOL    H5525615   5.806   3.492   5.490  0.3820 -1.8492 -1.1530
  181MOL    H5625616   5.801   3.658   5.461  1.3949  0.0009  1.3737
  181MOL    H5725617   5.898   3.546   5.348  0.6469  0.3108  2.3659
  181MOL    C5825618   5.568   3.648   5.148  0.5469  0.3375 -0.5129
  181MOL    C5925619   5.483   3.754   5.217 -0.6802 -0.0376  0.8680
  181MOL    O6025620   5.592   3.687   5.014  0.7414  0.1620  0.0979
  181MOL    H6125621   5.516   3.552   5.151  0.9380  0.1734  2.2946
  181MOL    H6225622   5.397   3.782   5.156 -1.2864 -1.8769  0.8327
  181MOL    H6325623   5.548   3.838   5.240  0.4700 -0.6732  0.0346
  181MOL    H6425624   5.440   3.713   5.308 -0.5297  0.8641  1.3484
  181MOL    C6525625   5.688   3.612   4.955  0.8005 -0.4506  0.3686
  181MOL    C6625626   5.621   3.515   4.863  0.4868 -0.1931  0.1503
  181MOL    O6725627   5.764   3.690   4.873 -0.2887 -0.8223 -0.0842
  181MOL    H6825628   5.750   3.548   5.017 -0.1767 -2.3762 -0.5901
  181MOL    H6925629   5.557   3.570   4.794 -1.0083 -0.0870  1.5977
  181MOL    H7025630   5.562   3.443   4.920  0.5659 -0.8347 -0.5669
  181MOL    H7125631   5.696   3.458   4.807 -0.0918 -2.0192  1.1959
  181MOL    C7225632   5.866   3.769   4.929 -0.2676  0.2264 -0.3777
  181MOL    C7325633   5.991   3.699   4.902  0.4379  0.0310  0.0485
  181MOL    O7425634   5.870   3.889   4.868 -0.2023  0.4344 -0.5033
  181MOL    H7525635   5.853   3.784   5.037 -0.6188  0.7552 -0.4893
  181MOL    H7625636   6.066   3.762   4.950  0.7448 -2.3028  2.7887
  181MOL    H7725637   6.019   3.676   4.800  1.0876  0.6880  0.0679
  181MOL    H7825638   5.988   3.606   4.959 -0.5429  0.3041  0.4518
  181MOL    C7925639   5.756   3.965   4.876  0.0742  0.0845 -0.0308
  181MOL    C8025640   5.784   4.089   4.961 -0.0856 -0.6195 -0.3671
  181MOL    O8125641   5.724   4.013   4.751  0.3086 -0.0671  0.2912
  181MOL    H8225642   5.670   3.910   4.913 -0.4680  0.7033 -0.3813
  181MOL    H8325643   5.689   4.131   4.993  0.4897  0.6398 -0.3074
  181MOL    H8425644   5.860   4.151   4.914  0.0978 -0.3933  0.2200
  181MOL    H8525645   5.830   4.058   5.055  0.4312  1.8953  0.2258
  181MOL    C8625646   5.682   3.917   4.663  0.0432  0.2468  1.0686
  181MOL    C8725647   5.524   3.914   4.667 -0.1535 -0.3249  0.1341
  181MOL    O8825648   5.712   3.961   4.535  0.3046 -0.0893  0.3156
  181MOL    H8925649   5.725   3.818   4.681 -0.5138  0.0832  1.5206
  181MOL    H9025650   5.491   4.012   4.632  1.6339 -0.3172 -1.6483
  181MOL    H9125651   5.490   3.883   4.765  0.2012 -2.0009 -0.2611
  181MOL    H9225652   5.498   3.833   4.599  2.2508  0.4818 -1.8228
  181MOL    C9325653   5.844   3.942   4.496  0.0481  0.0742  0.6237
  181MOL    C9425654   5.830   3.851   4.379  0.0487 -0.0629  0.6788
  181MOL    O9525655   5.899   4.062   4.453  0.2487 -0.5439 -0.4849
  181MOL    H9625656   5.911   3.903   4.574 -1.0617 -0.9961  1.0574
  181MOL    H9725657   5.931   3.847   4.339 -0.5361  2.1524 -1.1451
  181MOL    H9825658   5.771   3.910   4.309 -0.5580 -1.3213  0.1239
  181MOL    H9925659   5.793   3.750   4.391  0.3039 -0.2914 -0.4623
  181MOL   C10025660   5.925   4.153   4.561 -0.0509  0.2434  0.5155
  181MOL   C10125661   6.074   4.164   4.558 -0.1773  0.4895  0.6347
  181MOL   O10225662   5.873   4.278   4.545  0.2452  0.6047 -0.0506
  181MOL   H10325663   5.900   4.115   4.660  0.3918  0.1177  0.5796
  181MOL   H10425664   6.127   4.074   4.587  2.0467  0.5962 -2.7650
  181MOL   H10525665   6.092   4.241   4.633  1.7911  1.1650 -0.4948
  181MOL   H10625666   6.112   4.202   4.463 -1.2189  2.2536  0.9025
  181MOL   C10725667   5.739   4.291   4.566 -0.8745  0.5895 -0.1847
  181MOL   C10825668   5.717   4.370   4.697 -0.3774  0.1030  0.6717
  181MOL   O10925669   5.680   4.356   4.466  0.0611  0.2897 -0.3878
  181MOL   H11025670   5.694   4.194   4.586 -0.0856 -0.6619 -3.9506
  181MOL   H11125671   5.761   4.469   4.699 -1.9578  0.8722 -1.2105
  181MOL   H11225672   5.754   4.309   4.780  0.6791  0.5598  0.5493
  181MOL   H11325673   5.610   4.387   4.702 -0.3633 -0.1067  1.9847
  181MOL   C11425674   5.666   4.268   4.354 -0.3318 -0.6902  0.3576
  181MOL   C11525675   5.517   4.246   4.333 -0.9353  0.1413 -0.5710
  181MOL   O11625676   5.715   4.329   4.238 -0.1687 -0.2127  0.2398
  181MOL   H11725677   5.710   4.169   4.365  2.5671  0.5261  0.2480
  181MOL   H11825678   5.499   4.198   4.236 -2.1730  1.7101 -1.1552
  181MOL   H11925679   5.456   4.337   4.341 -1.4367 -0.3569  1.6660
  181MOL   H12025680   5.493   4.172   4.410  2.6023 -0.4292  0.0450
  181MOL   C12125681   5.851   4.351   4.236 -0.2622 -0.3600 -0.8079
  181MOL   C12225682   5.921   4.243   4.159 -0.3246  0.4103 -0.3336
  181MOL   O12325683   5.892   4.471   4.170 -0.4413  0.2083  0.0603
  181MOL   H12425684   5.899   4.356   4.334 -1.5420  1.4211 -0.2331
  181MOL   H12525685   5.940   4.152   4.215 -2.1468  0.6336  0.6720
  181MOL   H12625686   6.008   4.294   4.117 -0.8897  0.0920 -1.9555
  181MOL   H12725687   5.870   4.228   4.063 -0.3696 -0.0458 -0.2391
  181MOL   C12825688   5.904   4.578   4.256  0.1998 -0.1584 -0.6719
  181MOL   C12925689   6.033   4.651   4.232  0.1064  0.8079  0.3108
  181MOL   O13025690   5.800   4.672   4.231  0.8680 -0.1095  0.1666
  181MOL   H13125691   5.897   4.553   4.362  1.4657 -0.0691 -0.5641
  181MOL   H13225692   6.048   4.689   4.131  0.5905  1.9340  0.7929
  181MOL   H13325693   6.120   4.590   4.255  0.9765  1.7847 -0.3089
  181MOL   H13425694   6.042   4.728   4.310 -0.0845 -0.0792  1.2189
  181MOL   C13525695   5.674   4.626   4.259  0.4026  0.3250 -0.0811
  181MOL   C13625696   5.592   4.738   4.308 -0.0080 -1.2702  0.1746
  181MOL   O13725697   5.609   4.576   4.142  0.3460 -0.0141 -0.1748
  181MOL   H13825698   5.667   4.549   4.336 -1.1823  0.2942 -0.2451
  181MOL   H13925699   5.486   4.717   4.320 -0.0932 -1.9701 -1.5694
  181MOL   H14025700   5.605   4.821   4.238  0.6484 -0.5237  1.1633
  181MOL   H14125701   5.639   4.771   4.401  1.0506  2.8493 -1.7302
  181MOL   H14225702   5.636   4.485   4.142 -1.9774 -0.7579  2.2710
  182MOL     C125703   1.556   7.015   6.536 -0.1341  0.0158 -0.4392
  182MOL     C225704   1.409   7.003   6.573 -0.9752  0.3342  0.0519
  182MOL     O325705   1.581   7.004   6.400  0.3441  0.2614 -0.5388
  182MOL     H425706   1.601   6.928   6.585 -0.1741  0.7921  1.0197
  182MOL     H525707   1.374   6.914   6.521  0.0235  1.3428 -2.4538
  182MOL     H625708   1.344   7.088   6.549 -1.2162  0.1318 -0.0140
  182MOL     H725709   1.414   6.982   6.680 -0.8292  0.5660  0.0911
  182MOL     H825710   1.601   7.109   6.569  0.9141 -1.2782  1.9955
  182MOL     C925711   1.723   7.002   6.367  0.5476 -0.1631  0.0611
  182MOL    C1025712   1.782   6.867   6.386 -0.2547  0.3391 -0.2015
  182MOL    O1125713   1.736   7.033   6.231  0.0534  0.5377  0.0860
  182MOL    H1225714   1.781   7.075   6.424 -0.2188  1.1742 -0.8378
  182MOL    H1325715   1.890   6.877   6.380 -0.1631 -1.7086 -2.9171
  182MOL    H1425716   1.752   6.798   6.307  1.9156 -0.4872 -0.3233
  182MOL    H1525717   1.763   6.824   6.484 -0.0882 -1.0661 -0.7693
  182MOL    C1625718   1.706   7.165   6.202 -0.1580  0.0285  0.0657
  182MOL    C1725719   1.823   7.249   6.221  0.1326 -0.3653  0.0066
  182MOL    O1825720   1.674   7.184   6.064 -0.0176 -0.0894 -0.5049
  182MOL    H1925721   1.621   7.196   6.264 -0.7028 -1.4461  0.0729
  182MOL    H2025722   1.899   7.223   6.147 -0.0261  0.5493 -0.4883
  182MOL    H2125723   1.867   7.226   6.318  1.9665 -0.6486 -0.8725
  182MOL    H2225724   1.801   7.355   6.209 -2.3559 -0.7566  0.7898
  182MOL    C2325725   1.555   7.124   6.023 -0.0767  0.1442  0.6265
  182MOL    C2425726   1.466   7.243   5.987  0.0906 -0.2606 -0.4605
  182MOL    O2525727   1.565   7.040   5.916  0.0040  0.4507 -0.2663
  182MOL    H2625728   1.504   7.070   6.103 -2.7031 -0.3394 -1.3342
  182MOL    H2725729   1.461   7.303   6.078  2.9377  3.2285 -2.4399
  182MOL    H2825730   1.370   7.212   5.948 -0.1906  0.2649 -0.1914
  182MOL    H2925731   1.509   7.299   5.904  1.2076  2.2445  1.7360
  182MOL    C3025732   1.623   6.919   5.951 -0.1618  0.0106  0.1351
  182MOL    C3125733   1.510   6.814   5.923 -1.2066  0.6959  0.1679
  182MOL    O3225734   1.739   6.891   5.877  0.5123  0.0532 -0.3414
  182MOL    H3325735   1.656   6.916   6.055  1.7332 -1.2902 -0.4555
  182MOL    H3425736   1.513   6.816   5.814  2.1905  2.9677  0.2324
  182MOL    H3525737   1.412   6.840   5.963 -0.5067  1.9818  1.1037
  182MOL    H3625738   1.537   6.718   5.967 -0.1592  1.3245  0.9123
  182MOL    C3725739   1.853   6.967   5.914  0.7187 -0.1868 -0.8708
  182MOL    C3825740   1.939   6.884   6.010 -0.5950 -0.3255 -0.7364
  182MOL    O3925741   1.937   6.995   5.804  0.1403 -0.6324  0.2492
  182MOL    H4025742   1.838   7.060   5.969 -0.3621 -2.2380  2.5110
  182MOL    H4125743   2.030   6.938   6.035 -0.0206 -0.8893 -1.5669
  182MOL    H4225744   1.976   6.793   5.962 -1.0944 -1.2054  0.5222
  182MOL    H4325745   1.887   6.864   6.104 -0.8196  0.1818 -0.7506
  182MOL    C4425746   1.882   7.098   5.724  0.4620  0.9087 -0.3901
  182MOL    C4525747   1.983   7.214   5.732  0.3634 -0.4294 -0.7533
  182MOL    O4625748   1.889   7.059   5.592  0.4538 -0.0236  0.1510
  182MOL    H4725749   1.780   7.129   5.746 -0.3664 -4.1673  4.2509
  182MOL    H4825750   2.083   7.190   5.697 -0.0842 -1.7531 -1.1854
  182MOL    H4925751   1.990   7.247   5.835  0.8731 -0.1678 -0.8712
  182MOL    H5025752   1.938   7.295   5.674 -0.9451 -0.1282  0.6270
  182MOL    C5125753   1.798   6.959   5.547 -1.0753  0.1570  0.1268
  182MOL    C5225754   1.687   7.032   5.460  0.5457 -0.1733 -0.3486
  182MOL    O5325755   1.862   6.868   5.464 -0.5368 -0.2182  0.2417
  182MOL    H5425756   1.751   6.913   5.634 -0.9522  1.5605  0.9450
  182MOL    H5525757   1.636   7.109   5.518  1.8810  1.2240 -0.9979
  182MOL    H5625758   1.619   6.957   5.420 -0.0794 -0.4871  1.2441
  182MOL    H5725759   1.745   7.073   5.377  2.6455  1.6814  1.9745
  182MOL    C5825760   1.945   6.780   5.530 -0.0875  1.0165 -0.6094
  182MOL    C5925761   1.891   6.639   5.522  0.2069  0.1218 -0.2554
  182MOL    O6025762   2.070   6.781   5.464  0.3603  0.2428 -0.5512
  182MOL    H6125763   1.960   6.808   5.634 -1.3015  1.0631 -0.4343
  182MOL    H6225764   1.969   6.565   5.540  0.5865  1.1368  2.3898
  182MOL    H6325765   1.864   6.637   5.416 -2.3220 -0.0071  0.3758
  182MOL    H6425766   1.804   6.637   5.587  0.1061 -0.0565 -0.3939
  182MOL    C6525767   2.155   6.874   5.527 -0.0212 -0.4086 -0.2217
  182MOL    C6625768   2.232   6.794   5.634 -0.3615 -0.2127  0.1612
  182MOL    O6725769   2.256   6.911   5.431  0.2890 -0.5941  0.0782
  182MOL    H6825770   2.105   6.963   5.564 -0.7941 -1.3553  1.0267
  182MOL    H6925771   2.170   6.758   5.715  1.7348  0.1860  1.9938
  182MOL    H7025772   2.301   6.863   5.682  0.9104 -1.8511  0.7225
  182MOL    H7125773   2.265   6.705   5.580  0.0585  0.2259 -0.3228
  182MOL    C7225774   2.217   7.003   5.336  0.1459 -0.6395  0.4535
  182MOL    C7325775   2.220   7.145   5.397 -0.3202 -0.1151 -0.4220
  182MOL    O7425776   2.311   7.005   5.231  0.7444 -0.2510  0.0602
  182MOL    H7525777   2.120   6.982   5.291 -0.1861 -0.4584  1.0739
  182MOL    H7625778   2.168   7.139   5.493  0.5615 -0.1942  0.0615
  182MOL    H7725779   2.172   7.224   5.340 -0.8457  1.3628  1.9665
  182MOL    H7825780   2.324   7.166   5.420 -0.2240 -0.2012 -0.7804
  182MOL    C7925781   2.302   6.898   5.134 -0.6178 -0.8942  0.2101
  182MOL    C8025782   2.248   6.957   5.003 -0.4386 -0.5099 -0.0829
  182MOL    O8125783   2.437   6.847   5.111  0.3759  0.5881 -0.2898
  182MOL    H8225784   2.237   6.819   5.170 -1.5089  0.0302  0.6532
  182MOL    H8325785   2.247   6.874   4.932  0.5186 -0.6248  0.0349
  182MOL    H8425786   2.322   7.031   4.975 -0.2629 -0.7637 -0.2977
  182MOL    H8525787   2.148   6.989   5.033 -0.5692 -0.3897 -0.6341
  182MOL    C8625788   2.491   6.780   5.223  0.1802 -0.6041 -0.5808
  182MOL    C8725789   2.506   6.636   5.191  0.1565  0.2849 -0.2122
  182MOL    O8825790   2.618   6.832   5.258 -0.4525  0.7016 -0.1317
  182MOL    H8925791   2.433   6.794   5.314 -1.0819 -0.1239 -1.4450
  182MOL    H9025792   2.418   6.594   5.141  2.2121 -2.1560 -1.9179
  182MOL    H9125793   2.535   6.587   5.284  0.9127  0.8508 -0.1485
  182MOL    H9225794   2.580   6.614   5.114 -0.5898 -1.4384 -0.4734
  182MOL    C9325795   2.622   6.966   5.292 -0.2726 -0.6855 -0.6299
  182MOL    C9425796   2.615   6.986   5.446 -0.5247 -0.6842  0.8395
  182MOL    O9525797   2.733   7.035   5.244 -0.0444 -0.7947 -0.2250
  182MOL    H9625798   2.536   7.017   5.247  0.2301  0.7507 -0.0078
  182MOL    H9725799   2.612   7.092   5.469  1.4338 -0.0659 -1.5818
  182MOL    H9825800   2.710   6.946   5.484  1.6207  2.5031 -0.9611
  182MOL    H9925801   2.525   6.945   5.493 -0.1760 -1.0864  1.1743
  182MOL   C10025802   2.732   7.052   5.104  0.4670  0.4888 -0.2875
  182MOL   C10125803   2.724   7.195   5.067  0.3294 -0.1890  0.3007
  182MOL   O10225804   2.848   7.009   5.045 -0.3933  0.5674  0.3969
  182MOL   H10325805   2.646   7.004   5.058  0.3971  0.4058 -0.0751
  182MOL   H10425806   2.796   7.246   5.131  1.4129 -1.7405  0.3550
  182MOL   H10525807   2.627   7.232   5.102  0.4254  1.2235 -0.8976
  182MOL   H10625808   2.745   7.213   4.962  0.5130 -0.0795  0.3561
  182MOL   C10725809   2.867   6.870   5.052  0.4347 -1.1838  0.6925
  182MOL   C10825810   2.787   6.822   4.935 -0.1464 -0.6181 -0.6892
  182MOL   O10925811   3.005   6.836   5.034  0.2652 -0.2527  0.3552
  182MOL   H11025812   2.840   6.830   5.150  0.2366  1.8938  1.9528
  182MOL   H11125813   2.807   6.715   4.941  2.5191 -0.1774 -0.7886
  182MOL   H11225814   2.829   6.856   4.839  1.3637  1.9813  0.8301
  182MOL   H11325815   2.682   6.850   4.938 -0.2035 -0.7215 -1.4789
  182MOL   C11425816   3.086   6.888   5.139  0.4671  0.7159 -0.4773
  182MOL   C11525817   3.101   6.761   5.217 -0.1304  0.5167 -0.2831
  182MOL   O11625818   3.211   6.927   5.091 -0.0140 -0.1940  0.6824
  182MOL   H11725819   3.040   6.969   5.197 -1.6756  1.4502 -3.0731
  182MOL   H11825820   3.128   6.669   5.165 -0.8209 -0.6053  1.3191
  182MOL   H11925821   3.012   6.735   5.273  0.4204  0.2460  0.4757
  182MOL   H12025822   3.186   6.772   5.286 -1.6966 -1.3563  2.0239
  182MOL   C12125823   3.207   7.055   5.027  0.3914 -0.1985  0.0005
  182MOL   C12225824   3.284   7.154   5.117  0.4783 -0.3766 -0.4346
  182MOL   O12325825   3.275   7.063   4.910 -0.5828  0.1509  0.8809
  182MOL   H12425826   3.102   7.076   5.007  0.4541 -1.0476 -1.3058
  182MOL   H12525827   3.232   7.167   5.212 -0.7075  1.5893 -1.3028
  182MOL   H12625828   3.286   7.247   5.059  1.8083 -0.2696 -0.2196
  182MOL   H12725829   3.376   7.106   5.149  0.4788 -0.2332 -0.2186
  182MOL   C12825830   3.223   6.977   4.803  0.5354  0.2559 -0.3529
  182MOL   C12925831   3.170   7.060   4.686 -0.0813  0.2687  0.0626
  182MOL   O13025832   3.325   6.897   4.752 -0.5840 -0.5373  0.0428
  182MOL   H13125833   3.142   6.919   4.846  1.0172  0.1454  0.4110
  182MOL   H13225834   3.076   7.109   4.711  0.0214  1.2533 -1.4133
  182MOL   H13325835   3.143   6.999   4.600  1.8353 -1.4375  0.6165
  182MOL   H13425836   3.239   7.133   4.642  0.0254 -0.7641 -1.5439
  182MOL   C13525837   3.362   6.788   4.832 -0.0704  0.0615 -0.1175
  182MOL   C13625838   3.469   6.702   4.763 -0.3963  0.6605  1.1118
  182MOL   O13725839   3.421   6.839   4.948 -0.2809 -0.4273 -0.1196
  182MOL   H13825840   3.274   6.730   4.857 -1.2756  1.3958 -1.2022
  182MOL   H13925841   3.487   6.618   4.830 -2.2823  1.4269  2.6445
  182MOL   H14025842   3.561   6.754   4.737  0.0497  1.0426  3.3336
  182MOL   H14125843   3.437   6.672   4.663 -0.8450 -3.5540  2.4537
  182MOL   H14225844   3.351   6.861   5.008 -0.3413  0.6386 -0.5738
  183MOL     C125845   4.951   5.220   2.528 -0.0960  0.3808 -0.0915
  183MOL     C225846   4.929   5.111   2.635  0.4085  0.4096 -0.0247
  183MOL     O325847   4.849   5.321   2.549  0.0789 -0.0996  0.3215
  183MOL     H425848   4.945   5.175   2.429 -0.7460  1.1287 -0.3981
  183MOL     H525849   4.941   5.152   2.735 -0.2342 -0.7033  0.5148
  183MOL     H625850   4.998   5.027   2.627 -0.0236  0.1442 -0.9551
  183MOL     H725851   4.832   5.063   2.619  1.1533 -1.4875  0.9602
  183MOL     H825852   5.046   5.269   2.549 -0.6468  0.3541  2.6173
  183MOL     C925853   4.823   5.405   2.443  0.2086  0.9953  0.6039
  183MOL    C1025854   4.696   5.355   2.369 -0.0812 -0.0204 -0.1854
  183MOL    O1125855   4.791   5.539   2.485 -0.2804 -0.0105  0.3706
  183MOL    H1225856   4.912   5.411   2.380 -0.6126  1.0712 -0.5835
  183MOL    H1325857   4.692   5.411   2.275  1.1684 -0.9690 -0.8188
  183MOL    H1425858   4.609   5.357   2.435  0.3474  1.2586  0.3470
  183MOL    H1525859   4.704   5.254   2.329  2.1024 -0.1765  0.5963
  183MOL    C1625860   4.902   5.604   2.536 -0.3678 -0.0732 -0.3179
  183MOL    C1725861   4.910   5.727   2.449  0.0047 -0.5893 -0.0860
  183MOL    O1825862   4.876   5.662   2.663  0.2345  0.1556 -0.1143
  183MOL    H1925863   5.001   5.558   2.540 -0.6293 -0.6319 -0.2459
  183MOL    H2025864   4.981   5.801   2.485 -1.2443  0.3009  0.5660
  183MOL    H2125865   4.815   5.777   2.432  1.1260  1.0352 -1.7725
  183MOL    H2225866   4.928   5.698   2.345  0.3307  0.3435 -0.2887
  183MOL    C2325867   4.857   5.565   2.757 -0.1758 -0.8652 -0.4224
  183MOL    C2425868   4.998   5.531   2.810 -0.1450 -0.0850 -0.0656
  183MOL    O2525869   4.784   5.617   2.864  0.2598  0.3480 -0.5431
  183MOL    H2625870   4.797   5.481   2.721  2.2924 -2.5929 -0.6807
  183MOL    H2725871   5.061   5.619   2.824  2.3622 -2.3217  3.4080
  183MOL    H2825872   5.051   5.463   2.744  2.2879  1.1873  0.5357
  183MOL    H2925873   4.984   5.490   2.910 -1.1506 -1.1691 -0.6391
  183MOL    C3025874   4.649   5.624   2.844  0.7452  0.4484 -0.6372
  183MOL    C3125875   4.581   5.520   2.929  0.2439  0.6300 -0.3337
  183MOL    O3225876   4.606   5.751   2.886 -0.1914 -0.1867 -0.5756
  183MOL    H3325877   4.619   5.623   2.740 -1.0618 -2.2034 -0.1250
  183MOL    H3425878   4.601   5.523   3.036  0.1374 -0.9026 -0.2536
  183MOL    H3525879   4.610   5.421   2.894  0.1755 -0.0681  1.5233
  183MOL    H3625880   4.475   5.530   2.909  0.1217  0.6547  0.3174
  183MOL    C3725881   4.636   5.858   2.806 -0.5557 -0.4892 -0.1885
  183MOL    C3825882   4.511   5.926   2.752 -0.7272  0.6424 -0.0512
  183MOL    O3925883   4.710   5.953   2.882  0.2419  0.1368 -0.5033
  183MOL    H4025884   4.680   5.817   2.715 -0.3501 -0.8850  0.0899
  183MOL    H4125885   4.439   5.972   2.819  1.0537 -0.8726  2.9930
  183MOL    H4225886   4.453   5.847   2.705  1.7138 -0.6831 -0.9323
  183MOL    H4325887   4.529   5.996   2.670  0.6632 -1.6544 -1.7768
  183MOL    C4425888   4.848   5.933   2.877  0.2803  0.0833 -0.1342
  183MOL    C4525889   4.897   6.029   2.772 -0.4393 -0.4015 -0.0746
  183MOL    O4625890   4.907   5.956   3.000 -0.2532 -0.3934 -0.0457
  183MOL    H4725891   4.879   5.833   2.848 -0.0529  0.5418 -2.1502
  183MOL    H4825892   4.863   6.131   2.789 -1.1903 -0.7947  0.8149
  183MOL    H4925893   4.865   6.002   2.671  0.1698 -2.3168  0.2288
  183MOL    H5025894   5.003   6.015   2.752 -0.6514 -0.1044 -1.4599
  183MOL    C5125895   4.933   5.844   3.071  0.6461  0.9856 -0.8440
  183MOL    C5225896   5.079   5.803   3.053 -0.3720 -0.0839  0.0337
  183MOL    O5325897   4.917   5.880   3.205  0.3385  0.4118  0.1520
  183MOL    H5425898   4.863   5.763   3.051  0.7287  0.6926  0.0643
  183MOL    H5525899   5.095   5.790   2.946 -0.8106  1.5242 -0.2408
  183MOL    H5625900   5.106   5.705   3.092  0.0695 -0.3901 -1.0163
  183MOL    H5725901   5.147   5.877   3.096 -1.3185  1.9074 -1.8028
  183MOL    C5825902   4.781   5.896   3.239 -0.2407 -0.1130  0.4308
  183MOL    C5925903   4.724   5.777   3.309 -0.3104 -0.7583 -0.0045
  183MOL    O6025904   4.759   6.007   3.320  0.3981  0.6482  0.1718
  183MOL    H6125905   4.716   5.909   3.152 -0.7099  1.2836  0.9680
  183MOL    H6225906   4.735   5.689   3.246 -0.8490 -0.2997 -0.7403
  183MOL    H6325907   4.616   5.781   3.322 -0.9306  2.9733 -4.7523
  183MOL    H6425908   4.768   5.771   3.409 -1.3470 -2.4096  0.3745
  183MOL    C6525909   4.745   6.123   3.249  0.5187  0.6608  0.3216
  183MOL    C6625910   4.605   6.181   3.288 -0.8889  0.6379 -0.1994
  183MOL    O6725911   4.835   6.217   3.304 -0.2113  0.1946 -1.0347
  183MOL    H6825912   4.749   6.119   3.140  0.0759 -2.2480  0.3970
  183MOL    H6925913   4.600   6.279   3.240 -0.0680  2.4055  3.2055
  183MOL    H7025914   4.586   6.182   3.395 -3.2380  0.5523 -0.5908
  183MOL    H7125915   4.531   6.125   3.230  0.7610 -1.3099 -0.4717
  183MOL    C7225916   4.957   6.214   3.241 -1.0097  0.3883 -1.0656
  183MOL    C7325917   4.962   6.311   3.122 -0.7910 -0.5046  0.4333
  183MOL    O7425918   5.059   6.251   3.331 -0.5574 -0.2326 -0.4805
  183MOL    H7525919   4.970   6.113   3.202 -1.6264  0.0229 -0.3444
  183MOL    H7625920   4.879   6.299   3.052 -0.4140  1.0478 -0.3044
  183MOL    H7725921   5.059   6.321   3.073 -1.9424  1.9383 -1.4560
  183MOL    H7825922   4.949   6.412   3.159  0.3354 -0.2719  0.2024
  183MOL    C7925923   5.085   6.162   3.430 -0.4988  0.0417 -0.2110
  183MOL    C8025924   5.230   6.109   3.398  0.5410 -0.1866  0.6566
  183MOL    O8125925   5.088   6.228   3.551  0.3770  0.2185 -0.5509
  183MOL    H8225926   5.012   6.081   3.428 -0.9505  0.4577 -0.7707
  183MOL    H8325927   5.253   6.033   3.473 -0.7681 -1.2649 -0.0142
  183MOL    H8425928   5.294   6.197   3.408 -0.6745  0.8845 -0.7396
  183MOL    H8525929   5.237   6.071   3.296  0.0838  1.8775 -0.1647
  183MOL    C8625930   4.968   6.247   3.610 -0.3104  0.1489 -0.0987
  183MOL    C8725931   4.959   6.145   3.729  0.2459 -0.0495 -0.3631
  183MOL    O8825932   4.956   6.376   3.652 -0.5017  0.0556 -0.0366
  183MOL    H8925933   4.889   6.226   3.537  0.5243  1.1288 -1.3012
  183MOL    H9025934   4.858   6.160   3.768  0.7424  0.1194  0.8533
  183MOL    H9125935   5.031   6.162   3.808 -0.7447  1.2669  0.2875
  183MOL    H9225936   4.979   6.043   3.695 -2.7333 -1.1153  0.9410
  183MOL    C9325937   4.936   6.477   3.557 -0.1871  0.1116 -0.1659
  183MOL    C9425938   4.790   6.507   3.571 -0.5976  0.6333 -0.3144
  183MOL    O9525939   5.016   6.589   3.591 -0.0308 -0.3742  0.3047
  183MOL    H9625940   4.958   6.440   3.456  0.3824 -1.3121  0.4654
  183MOL    H9725941   4.764   6.519   3.676 -3.3236  1.1421 -1.0202
  183MOL    H9825942   4.739   6.420   3.528  1.7078  0.2996 -2.5031
  183MOL    H9925943   4.773   6.597   3.512 -0.2836  0.4333 -0.7150
  183MOL   C10025944   5.156   6.568   3.587  0.7091  0.5076 -0.1744
  183MOL   C10125945   5.221   6.630   3.459  0.3109 -0.1820 -0.3869
  183MOL   O10225946   5.216   6.637   3.688  0.3188  0.7121 -0.6432
  183MOL   H10325947   5.182   6.463   3.596 -0.2959  0.3967  1.6252
  183MOL   H10425948   5.201   6.737   3.451 -0.2567 -0.2991 -0.5471
  183MOL   H10525949   5.188   6.574   3.372  0.6064  0.3918 -0.8717
  183MOL   H10625950   5.329   6.625   3.463  0.3821  1.1097 -0.3478
  183MOL   C10725951   5.171   6.602   3.813  0.1909 -0.0025 -1.3749
  183MOL   C10825952   5.282   6.534   3.881 -0.0037 -0.0659 -0.3013
  183MOL   O10925953   5.148   6.717   3.889  0.3977 -0.2335 -0.2014
  183MOL   H11025954   5.081   6.541   3.804  0.4335 -0.1694 -2.8485
  183MOL   H11125955   5.303   6.433   3.845 -1.4650 -0.0098 -1.3594
  183MOL   H11225956   5.252   6.505   3.982  0.4666 -0.3319 -0.2330
  183MOL   H11325957   5.372   6.596   3.879  0.2017 -0.1130  3.3762
  183MOL   C11425958   5.041   6.793   3.843  0.4726 -0.3520  0.2787
  183MOL   C11525959   4.923   6.780   3.935 -0.0937 -0.0820 -0.5002
  183MOL   O11625960   5.082   6.925   3.853  0.3974  0.3657 -0.2236
  183MOL   H11725961   4.999   6.764   3.747  1.8797 -1.6605  0.0373
  183MOL   H11825962   4.835   6.834   3.902 -0.0260  0.2723 -0.0971
  183MOL   H11925963   4.949   6.819   4.034  0.8156  0.4122 -0.9288
  183MOL   H12025964   4.902   6.674   3.952 -0.6214  0.0162 -0.5367
  183MOL   C12125965   5.148   6.980   3.739 -0.4212  0.2649  0.6883
  183MOL   C12225966   5.045   7.046   3.651  0.0281 -0.2751  0.5943
  183MOL   O12325967   5.249   7.071   3.781 -0.3594  0.1236  0.3854
  183MOL   H12425968   5.194   6.895   3.689 -0.7614  1.1064 -1.0703
  183MOL   H12525969   5.091   7.100   3.569  0.7130  0.4614  1.4439
  183MOL   H12625970   5.002   7.123   3.715 -1.8322 -0.3664 -0.5162
  183MOL   H12725971   4.966   6.973   3.634 -2.3238  2.3856 -0.2283
  183MOL   C12825972   5.355   7.016   3.855 -0.0403 -0.1117  0.0735
  183MOL   C12925973   5.474   7.007   3.763 -0.0177 -0.1480 -0.5538
  183MOL   O13025974   5.395   7.100   3.962 -0.3663  0.4109  0.1885
  183MOL   H13125975   5.332   6.921   3.903  1.3073  0.5025  1.9810
  183MOL   H13225976   5.449   6.959   3.668  0.4042 -0.4605 -0.5033
  183MOL   H13325977   5.554   6.950   3.809 -1.8195 -2.6570 -0.3963
  183MOL   H13425978   5.509   7.108   3.742 -0.9922  0.5230  0.9836
  183MOL   C13525979   5.303   7.109   4.068  0.7120 -0.2146  0.5312
  183MOL   C13625980   5.351   7.201   4.177  0.4513  0.2227  0.3922
  183MOL   O13725981   5.173   7.149   4.028 -0.6946  0.6137 -0.0504
  183MOL   H13825982   5.296   7.011   4.117  3.1438  0.1434  1.6755
  183MOL   H13925983   5.459   7.183   4.183  0.1980 -2.2784 -1.5044
  183MOL   H14025984   5.305   7.185   4.274 -0.8906 -1.3820 -0.4856
  183MOL   H14125985   5.337   7.305   4.152 -0.0123  0.2894  0.9195
  183MOL   H14225986   5.117   7.081   3.995 -2.2066  1.2719  1.1210
  184MOL     C125987   1.697   2.576   0.272 -0.2727 -1.0468 -0.1633
  184MOL     C225988   1.749   2.688   0.357 -0.0421  0.6551 -0.0932
  184MOL     O325989   1.647   2.470   0.348  0.3369 -0.4510  0.3565
  184MOL     H425990   1.781   2.538   0.214  0.0558 -0.1799 -0.2620
  184MOL     H525991   1.829   2.669   0.428 -0.2589 -0.5535 -0.1661
  184MOL     H625992   1.666   2.735   0.409 -2.0748 -2.7613 -0.1432
  184MOL     H725993   1.795   2.764   0.294  0.3252 -0.7818 -1.6076
  184MOL     H825994   1.626   2.612   0.197  1.5041  1.8846 -0.5082
  184MOL     C925995   1.591   2.362   0.279  0.2032  0.6014  0.8376
  184MOL    C1025996   1.694   2.260   0.282  0.0072  0.1990  0.8306
  184MOL    O1125997   1.481   2.315   0.352  0.4401 -0.2653  0.2416
  184MOL    H1225998   1.548   2.380   0.180  3.0951 -0.3731 -0.6234
  184MOL    H1325999   1.654   2.183   0.215 -1.1751  2.2051 -0.8281
  184MOL    H1426000   1.704   2.216   0.381 -1.2772  1.8247  1.6877
  184MOL    H1526001   1.793   2.284   0.243 -0.3475  0.2880 -0.0185
  184MOL    C1626002   1.369   2.400   0.336  0.3132 -0.0102 -0.4312
  184MOL    C1726003   1.265   2.339   0.238  0.2722  0.3947  0.7118
  184MOL    O1826004   1.298   2.420   0.454  1.1320  0.6178 -0.1293
  184MOL    H1926005   1.403   2.499   0.306 -1.0414  0.4238 -0.5694
  184MOL    H2026006   1.316   2.309   0.146  0.9176 -0.5080  1.3494
  184MOL    H2126007   1.185   2.410   0.218  0.4760  0.5499  0.4448
  184MOL    H2226008   1.238   2.247   0.290  0.1438  1.4615  2.5531
  184MOL    C2326009   1.371   2.470   0.560 -0.4636 -0.3317 -0.1439
  184MOL    C2426010   1.347   2.624   0.572  0.0674  0.3871 -1.0197
  184MOL    O2526011   1.343   2.410   0.678  0.1834 -0.7367 -0.4042
  184MOL    H2626012   1.477   2.457   0.537 -0.7091 -2.9375  0.1185
  184MOL    H2726013   1.414   2.666   0.646  1.4926 -1.1511 -1.4074
  184MOL    H2826014   1.241   2.646   0.585 -0.3985 -2.1634 -0.1573
  184MOL    H2926015   1.370   2.660   0.472 -2.0082  0.3930 -1.5167
  184MOL    C3026016   1.366   2.272   0.690  0.0039  0.2698  0.5004
  184MOL    C3126017   1.496   2.254   0.775  0.6002  0.4453 -0.5132
  184MOL    O3226018   1.264   2.211   0.756  0.6242 -0.7333  0.2790
  184MOL    H3326019   1.374   2.226   0.591  1.8268  0.6010  0.4803
  184MOL    H3426020   1.577   2.314   0.733  2.0468 -0.9411  0.2530
  184MOL    H3526021   1.519   2.147   0.775 -0.8765  0.1162  0.1391
  184MOL    H3626022   1.483   2.275   0.881 -0.4464 -0.3092 -0.4774
  184MOL    C3726023   1.143   2.200   0.676 -0.3099  0.5129 -0.0580
  184MOL    C3826024   1.127   2.058   0.643  0.2370  0.6620  0.1821
  184MOL    O3926025   1.030   2.229   0.753  0.9029 -0.0278 -0.0295
  184MOL    H4026026   1.136   2.249   0.579 -0.4171 -0.1356 -0.3812
  184MOL    H4126027   1.121   1.991   0.728 -1.5875  1.9510  1.0976
  184MOL    H4226028   1.205   2.027   0.573  0.7880 -2.4126  2.0581
  184MOL    H4326029   1.026   2.056   0.601  1.1896  2.0682 -2.3078
  184MOL    C4426030   1.012   2.367   0.774  0.7854 -0.0667 -0.4055
  184MOL    C4526031   0.883   2.408   0.707  0.1509 -0.4162  0.4241
  184MOL    O4626032   0.989   2.391   0.907 -0.0368  0.1495 -0.5886
  184MOL    H4726033   1.097   2.426   0.741 -0.4446  0.4624 -2.7271
  184MOL    H4826034   0.840   2.490   0.766  0.8888 -0.8191  1.5319
  184MOL    H4926035   0.807   2.330   0.715 -0.2345 -0.2108 -1.0451
  184MOL    H5026036   0.907   2.436   0.604  2.0437  0.7682  1.1645
  184MOL    C5126037   1.108   2.394   0.985 -0.3061 -0.6870  0.9500
  184MOL    C5226038   1.106   2.530   1.052 -0.1893  0.0006 -0.0286
  184MOL    O5326039   1.099   2.302   1.089  0.1990 -0.4528  0.2245
  184MOL    H5426040   1.204   2.382   0.935  0.7916  2.7254  2.0757
  184MOL    H5526041   1.184   2.532   1.128  0.9466  3.7246 -1.1644
  184MOL    H5626042   1.006   2.543   1.093 -0.4574  0.5241 -0.8292
  184MOL    H5726043   1.123   2.609   0.978 -3.1991  2.5134  1.8145
  184MOL    C5826044   1.131   2.167   1.054  0.1905  0.1025  0.0500
  184MOL    C5926045   1.271   2.130   1.112  0.0251 -0.2063  0.0028
  184MOL    O6026046   1.047   2.069   1.096 -0.0826 -0.3067 -0.5949
  184MOL    H6126047   1.139   2.158   0.945  0.2805  1.6481 -0.0876
  184MOL    H6226048   1.339   2.216   1.107  1.3166 -1.1633  0.9615
  184MOL    H6326049   1.311   2.050   1.050 -1.9424 -2.5297  1.6499
  184MOL    H6426050   1.256   2.095   1.214  1.3900 -0.0164  0.2740
  184MOL    C6526051   0.922   2.072   1.025  0.0738  0.1510 -0.1801
  184MOL    C6626052   0.903   1.935   0.957  0.0340 -0.5406 -0.6898
  184MOL    O6726053   0.817   2.080   1.113  0.1769  0.0548 -0.2176
  184MOL    H6826054   0.913   2.150   0.949  3.5751 -0.3098 -1.1698
  184MOL    H6926055   0.911   1.862   1.037  1.3169 -0.9497 -1.1772
  184MOL    H7026056   0.962   1.910   0.869 -0.9587  1.1118 -1.8552
  184MOL    H7126057   0.797   1.919   0.934 -0.6145  0.5748  1.4124
  184MOL    C7226058   0.797   2.205   1.156  0.0548 -0.3421 -0.8428
  184MOL    C7326059   0.660   2.252   1.103 -0.3214 -0.0160 -0.2038
  184MOL    O7426060   0.792   2.218   1.293  0.1805  0.0517 -0.6347
  184MOL    H7526061   0.862   2.284   1.119 -0.1343 -0.8359 -2.2770
  184MOL    H7626062   0.575   2.190   1.131 -0.8631  1.4562  1.4785
  184MOL    H7726063   0.668   2.257   0.994  0.3907 -1.1739 -0.2260
  184MOL    H7826064   0.635   2.345   1.153  0.4316  0.7629 -1.2411
  184MOL    C7926065   0.912   2.198   1.360  0.3044 -0.3784  0.1402
  184MOL    C8026066   0.935   2.324   1.440 -0.7487 -0.6224 -0.0087
  184MOL    O8126067   0.895   2.101   1.460  0.3723 -0.5145  0.1382
  184MOL    H8226068   0.999   2.179   1.297  0.4297  0.1737  0.1473
  184MOL    H8326069   0.859   2.336   1.517 -0.1925 -1.9407  0.7781
  184MOL    H8426070   0.939   2.411   1.376 -2.8539 -0.2148  0.3992
  184MOL    H8526071   1.033   2.317   1.487  0.8545  3.1162 -2.6098
  184MOL    C8626072   0.916   1.971   1.409 -0.8525  0.2379 -0.5437
  184MOL    C8726073   1.043   1.922   1.477 -0.1794 -0.0913  0.1946
  184MOL    O8826074   0.811   1.883   1.430  0.0295 -0.0037 -0.5557
  184MOL    H8926075   0.921   1.966   1.300 -0.4866 -0.8507 -0.4797
  184MOL    H9026076   1.120   1.998   1.479 -1.8392  1.6851 -1.3577
  184MOL    H9126077   1.072   1.843   1.408 -0.6298 -2.5305  2.6949
  184MOL    H9226078   1.014   1.890   1.578 -2.5219  0.6679 -0.2018
  184MOL    C9326079   0.689   1.913   1.375  0.0128 -0.0442 -0.2972
  184MOL    C9426080   0.644   1.780   1.306 -0.2282 -0.5315  0.1142
  184MOL    O9526081   0.586   1.935   1.472 -0.0288 -0.3124 -0.6999
  184MOL    H9626082   0.687   1.989   1.297  1.0364  1.3630  1.0150
  184MOL    H9726083   0.733   1.741   1.256  1.4760  2.3093  0.8020
  184MOL    H9826084   0.578   1.794   1.221  0.4293 -0.8407 -0.4575
  184MOL    H9926085   0.598   1.708   1.373  0.0552 -1.0457 -0.2453
  184MOL   C10026086   0.575   2.060   1.527 -0.8908 -0.0187  0.0367
  184MOL   C10126087   0.475   2.140   1.444  0.0789  0.7672 -0.8504
  184MOL   O10226088   0.538   2.053   1.660  0.0541 -0.4548  0.2228
  184MOL   H10326089   0.673   2.107   1.515 -1.3641  0.9030 -0.2339
  184MOL   H10426090   0.507   2.173   1.346  0.5170 -0.6635 -1.2021
  184MOL   H10526091   0.455   2.233   1.497 -3.2417 -0.9883  1.1613
  184MOL   H10626092   0.392   2.074   1.421  1.4329 -1.1158 -0.4290
  184MOL   C10726093   0.626   1.991   1.745 -0.2654  0.1858  0.1354
  184MOL   C10826094   0.666   2.089   1.853  0.0118 -0.4527  0.2893
  184MOL   O10926095   0.576   1.881   1.812 -0.4377 -0.0148  0.2265
  184MOL   H11026096   0.713   1.955   1.692  0.2001 -0.5934  1.4031
  184MOL   H11126097   0.737   2.161   1.812  0.9079 -0.3041  2.0589
  184MOL   H11226098   0.710   2.036   1.937 -3.3199  0.9551  3.0446
  184MOL   H11326099   0.585   2.155   1.884 -0.4873 -1.2689  0.7284
  184MOL   C11426100   0.514   1.791   1.729 -0.3471 -0.5203 -0.0898
  184MOL   C11526101   0.611   1.672   1.725 -0.1130  0.1572 -0.2091
  184MOL   O11626102   0.397   1.742   1.789  0.1473 -0.7605  0.6406
  184MOL   H11726103   0.489   1.805   1.623 -0.3327 -1.2371 -0.1887
  184MOL   H11826104   0.637   1.656   1.829  0.1108  1.2448 -0.0893
  184MOL   H11926105   0.705   1.695   1.675 -0.7898  0.2223 -1.4850
  184MOL   H12026106   0.558   1.586   1.683  1.6723 -0.7740 -0.6222
  184MOL   C12126107   0.287   1.830   1.773  0.1304 -0.6383  0.0924
  184MOL   C12226108   0.202   1.763   1.667 -0.0301 -0.2889  0.5385
  184MOL   O12326109   0.203   1.827   1.886 -0.1296 -0.0124 -0.5767
  184MOL   H12426110   0.319   1.933   1.755 -0.2392 -0.2953  1.3420
  184MOL   H12526111   0.109   1.817   1.653 -1.2272 -2.1989  0.9349
  184MOL   H12626112   0.177   1.662   1.702  0.7313 -0.5807  0.2539
  184MOL   H12726113   0.260   1.751   1.575 -1.2158  0.6017 -0.3469
  184MOL   C12826114   0.251   1.896   1.998 -0.1056  0.4812  0.0358
  184MOL   C12926115   0.246   2.053   1.977 -0.5763  0.5282 -0.3137
  184MOL   O13026116   0.177   1.861   2.112 -0.5612 -0.1377  0.2696
  184MOL   H13126117   0.352   1.870   2.030  1.2047  2.3272 -2.3907
  184MOL   H13226118   0.272   2.108   2.067 -2.7517 -0.1595  0.7950
  184MOL   H13326119   0.142   2.067   1.947 -0.7640  0.8714  0.4790
  184MOL   H13426120   0.297   2.096   1.892 -0.5927  1.0248 -0.0758
  184MOL   C13526121   0.165   1.728   2.133  0.9992  0.0261  0.5436
  184MOL   C13626122   0.145   1.697   2.278 -0.1843  0.0068 -0.3105
  184MOL   O13726123   0.068   1.665   2.058 -0.1725  0.0824  0.2187
  184MOL   H13826124   0.258   1.680   2.101  0.4421 -0.6580 -0.0656
  184MOL   H13926125   0.047   1.737   2.305  0.7795  1.8933  0.5411
  184MOL   H14026126   0.209   1.761   2.339  0.6508  1.4422 -2.6301
  184MOL   H14126127   0.162   1.593   2.303 -0.6407 -0.5920 -2.4417
  184MOL   H14226128   0.064   1.707   1.973 -1.5982 -1.0831 -0.3039
  185MOL     C126129   1.259   6.639   2.004  0.1909 -0.7115 -0.3581
  185MOL     C226130   1.411   6.620   2.002  1.0096  0.1227 -0.0062
  185MOL     O326131   1.215   6.691   1.870 -0.1388 -0.3228  0.0194
  185MOL     H426132   1.226   6.702   2.086 -0.5399  0.3006 -1.4228
  185MOL     H526133   1.444   6.616   1.899 -0.2443 -2.3418 -0.3401
  185MOL     H626134   1.447   6.532   2.056  1.2301 -0.8460 -1.6975
  185MOL     H726135   1.448   6.710   2.051  0.4959 -1.1726  2.9318
  185MOL     H826136   1.199   6.551   2.028  2.8761 -2.4949  0.1702
  185MOL     C926137   1.073   6.720   1.858 -0.0266 -0.0934 -0.6507
  185MOL    C1026138   1.061   6.872   1.866  0.1885 -0.3665  0.3770
  185MOL    O1126139   1.031   6.683   1.733  1.0586  0.2231 -0.3509
  185MOL    H1226140   1.019   6.675   1.941 -1.7167  0.1071 -1.6284
  185MOL    H1326141   1.107   6.925   1.782 -1.5346  3.0810  1.4920
  185MOL    H1426142   1.115   6.909   1.954 -1.0827 -1.9168  1.8466
  185MOL    H1526143   0.956   6.901   1.864  0.3866  0.3165 -0.9471
  185MOL    C1626144   1.008   6.548   1.713  0.5664  0.1163 -0.4346
  185MOL    C1726145   0.855   6.526   1.715  0.5812  0.3065  0.2657
  185MOL    O1826146   1.055   6.502   1.590 -0.2766 -0.2689 -0.4137
  185MOL    H1926147   1.051   6.487   1.792 -0.8497 -0.7538 -0.3378
  185MOL    H2026148   0.814   6.524   1.614 -1.4123  1.6793  1.0102
  185MOL    H2126149   0.805   6.601   1.775  1.0667  1.6641 -1.0092
  185MOL    H2226150   0.839   6.428   1.760  0.2880 -0.9435 -2.4640
  185MOL    C2326151   1.195   6.491   1.595  0.3022  1.0738  0.9828
  185MOL    C2426152   1.230   6.339   1.557  0.4566  0.1592  0.2547
  185MOL    O2526153   1.257   6.568   1.496  0.4210 -0.5692 -0.1078
  185MOL    H2626154   1.240   6.519   1.690 -0.8054  0.5859  1.6514
  185MOL    H2726155   1.174   6.312   1.468 -1.1827  1.4119  0.8652
  185MOL    H2826156   1.190   6.266   1.628 -3.3615 -0.1239 -2.0433
  185MOL    H2926157   1.335   6.319   1.537  0.2645 -0.9325  0.3182
  185MOL    C3026158   1.255   6.707   1.519  0.0347  0.7391  0.3833
  185MOL    C3126159   1.394   6.753   1.567  0.0443 -0.1356 -0.1841
  185MOL    O3226160   1.232   6.773   1.388 -0.7845 -0.6763  0.0422
  185MOL    H3326161   1.187   6.753   1.590  0.3723  1.5134  0.2040
  185MOL    H3426162   1.414   6.711   1.665  2.2065 -0.0949 -0.5729
  185MOL    H3526163   1.400   6.862   1.567  0.8347 -0.1649 -1.4279
  185MOL    H3626164   1.469   6.716   1.497  0.0870 -0.7389  0.1818
  185MOL    C3726165   1.096   6.749   1.340  0.2131 -0.1446  0.0939
  185MOL    C3826166   1.016   6.883   1.355 -0.6526  0.5661 -0.3242
  185MOL    O3926167   1.094   6.715   1.205  0.0690 -0.3530  0.6296
  185MOL    H4026168   1.035   6.681   1.399 -0.9305  1.7138  1.0925
  185MOL    H4126169   1.023   6.917   1.458 -1.6467 -1.8028  0.5565
  185MOL    H4226170   0.912   6.864   1.331 -0.9436 -1.2950  2.2620
  185MOL    H4326171   1.054   6.956   1.283  1.0364 -0.6008 -0.6420
  185MOL    C4426172   1.150   6.580   1.179 -0.0512 -0.1978  0.5110
  185MOL    C4526173   1.031   6.489   1.159  0.2999  0.0825  0.4036
  185MOL    O4626174   1.218   6.594   1.057  0.2654  0.8908 -0.0686
  185MOL    H4726175   1.209   6.526   1.253 -0.9272 -0.7465  0.8228
  185MOL    H4826176   0.995   6.457   1.257 -1.6093  0.6671 -0.0815
  185MOL    H4926177   1.066   6.400   1.106  0.6872  0.2152  0.4351
  185MOL    H5026178   0.956   6.547   1.106  0.3222  1.1785  1.5625
  185MOL    C5126179   1.335   6.670   1.074 -0.5122  0.2931 -0.2774
  185MOL    C5226180   1.453   6.566   1.070 -0.2661  0.2519 -0.3021
  185MOL    O5326181   1.349   6.754   0.965  0.1133  0.5440 -0.1300
  185MOL    H5426182   1.341   6.716   1.172 -0.5337 -1.1355  0.4022
  185MOL    H5526183   1.422   6.481   1.130  2.1093 -0.6495 -0.2878
  185MOL    H5626184   1.548   6.612   1.099 -1.0609  2.0114 -0.3924
  185MOL    H5726185   1.458   6.529   0.968  0.0046  1.3024 -0.6736
  185MOL    C5826186   1.257   6.863   0.954 -0.7818  0.7046 -0.0573
  185MOL    C5926187   1.286   6.963   1.061 -0.4285  0.0844  0.2469
  185MOL    O6026188   1.275   6.926   0.830  0.3892 -0.4623 -0.2645
  185MOL    H6126189   1.160   6.816   0.970  0.0613 -1.6525 -1.5524
  185MOL    H6226190   1.280   6.914   1.158 -2.3470 -0.4785 -0.1352
  185MOL    H6326191   1.210   7.041   1.052 -0.3899 -0.0260 -1.0564
  185MOL    H6426192   1.387   7.003   1.048  0.4001 -1.6229  1.3009
  185MOL    C6526193   1.255   6.835   0.717 -0.2027  0.3142 -0.0028
  185MOL    C6626194   1.114   6.761   0.717  0.3308  0.1014 -1.1862
  185MOL    O6726195   1.258   6.906   0.600 -0.0322  0.4562  0.0796
  185MOL    H6826196   1.342   6.769   0.713  0.4628  1.2406 -1.0007
  185MOL    H6926197   1.084   6.731   0.617 -1.1803  1.3006 -1.0990
  185MOL    H7026198   1.037   6.826   0.757 -1.0537  0.1281 -3.7955
  185MOL    H7126199   1.131   6.668   0.772 -2.2089  0.9176  1.0565
  185MOL    C7226200   1.388   6.948   0.554 -0.8214  0.1714 -0.2039
  185MOL    C7326201   1.422   6.865   0.421 -0.5420  0.3278  0.4662
  185MOL    O7426202   1.389   7.085   0.519 -0.0756  0.0674 -0.1037
  185MOL    H7526203   1.471   6.929   0.621 -1.2548  0.4096  0.3973
  185MOL    H7626204   1.520   6.898   0.385 -1.0125  0.3937 -0.7477
  185MOL    H7726205   1.354   6.879   0.338  0.1489 -0.4792 -0.2498
  185MOL    H7826206   1.416   6.759   0.447  3.4322 -0.8702 -2.9602
  185MOL    C7926207   1.391   7.169   0.633 -0.0124 -0.0599  0.4518
  185MOL    C8026208   1.525   7.225   0.641  0.3855 -0.9109  0.3728
  185MOL    O8126209   1.305   7.276   0.606 -0.2161 -0.0132  0.3085
  185MOL    H8226210   1.371   7.121   0.729  0.6579 -0.2357  0.5073
  185MOL    H8326211   1.548   7.300   0.717  0.3023  0.8168 -1.2631
  185MOL    H8426212   1.553   7.269   0.545 -0.6560 -0.3061  0.3357
  185MOL    H8526213   1.590   7.140   0.662  2.3118  0.2210 -0.7634
  185MOL    C8626214   1.174   7.236   0.584 -0.2745 -0.2586 -0.5681
  185MOL    C8726215   1.084   7.330   0.666  0.0317 -0.2579 -0.3144
  185MOL    O8826216   1.137   7.236   0.450 -0.3082  0.1895 -0.1393
  185MOL    H8926217   1.162   7.141   0.636 -1.1889  1.0155  1.6507
  185MOL    H9026218   1.059   7.419   0.608 -1.5492  1.1394  2.3923
  185MOL    H9126219   1.126   7.373   0.757 -2.0108  1.3674 -0.1093
  185MOL    H9226220   0.988   7.283   0.689 -0.8385  0.9487 -1.3478
  185MOL    C9326221   1.094   7.112   0.397 -0.4808 -0.1911 -0.1309
  185MOL    C9426222   0.959   7.087   0.460 -0.2409 -0.1769 -0.2018
  185MOL    O9526223   1.069   7.121   0.262 -0.7453  0.5961 -0.4595
  185MOL    H9626224   1.165   7.033   0.421 -0.3568  0.3220  1.2211
  185MOL    H9726225   0.932   6.992   0.414 -1.2805 -0.0494  0.1411
  185MOL    H9826226   0.891   7.167   0.431  1.7538  1.5945 -0.0984
  185MOL    H9926227   0.958   7.070   0.568  1.6873  0.9744  0.0203
  185MOL   C10026228   1.183   7.120   0.175 -0.2487  0.0085 -0.1940
  185MOL   C10126229   1.190   6.989   0.096 -0.0937 -0.1335 -0.1702
  185MOL   O10226230   1.171   7.220   0.074  0.2446  0.2932 -0.2862
  185MOL   H10326231   1.274   7.143   0.230 -0.4141 -0.2821  0.2084
  185MOL   H10426232   1.097   6.980   0.040 -0.3804 -1.4331  0.4891
  185MOL   H10526233   1.210   6.903   0.160  0.8945  0.4757  0.3490
  185MOL   H10626234   1.276   7.005   0.032  0.6618  1.1950  1.1308
  185MOL   C10726235   1.176   7.344   0.127  0.5411 -1.3362  0.0471
  185MOL   C10826236   1.294   7.421   0.079  0.1076 -0.2353 -0.3113
  185MOL   O10926237   1.065   7.412   0.069  0.0215 -0.0952 -1.0820
  185MOL   H11026238   1.183   7.358   0.235 -0.2366  1.9240 -0.2701
  185MOL   H11126239   1.296   7.527   0.103 -2.4959 -0.0647 -0.6913
  185MOL   H11226240   1.299   7.415   7.884  0.9044  1.2892 -0.3741
  185MOL   H11326241   1.383   7.367   0.111  1.1632  1.4971 -0.2508
  185MOL   C11426242   0.943   7.391   0.132  0.2712  0.0127  0.5124
  185MOL   C11526243   0.917   7.524   0.209 -0.9389 -0.2134 -0.2670
  185MOL   O11626244   0.845   7.380   0.042  0.6612  0.3509 -0.2623
  185MOL   H11726245   0.947   7.312   0.206  4.2773 -1.4638 -1.1375
  185MOL   H11826246   0.975   7.530   0.301 -2.0086 -1.1365  0.4831
  185MOL   H11926247   0.820   7.548   0.252 -0.2971  0.5226  0.7839
  185MOL   H12026248   0.946   7.604   0.141 -0.6664 -0.2454 -0.1904
  185MOL   C12126249   0.831   7.243   0.004 -0.9536  0.3560 -0.4080
  185MOL   C12226250   0.703   7.190   0.064  0.5916  0.3738 -0.3302
  185MOL   O12326251   0.827   7.234   7.780  0.0030  0.3404 -0.5015
  185MOL   H12426252   0.906   7.173   0.040 -0.6768  0.6435 -0.4251
  185MOL   H12526253   0.698   7.192   0.173  0.0950 -0.0193 -0.3417
  185MOL   H12626254   0.686   7.085   0.040 -1.2109 -0.1275  2.8058
  185MOL   H12726255   0.621   7.248   0.021 -0.4931 -0.6316  0.3518
  185MOL   C12826256   0.949   7.222   7.715 -0.6096  1.0455 -0.0121
  185MOL   C12926257   0.960   7.071   7.674  0.5389 -0.1610 -0.0619
  185MOL   O13026258   0.962   7.298   7.604  0.3442  0.1712 -0.3887
  185MOL   H13126259   1.029   7.242   7.786 -0.1084  1.2146 -0.6233
  185MOL   H13226260   0.939   7.010   7.762  1.5013  0.6317  0.7253
  185MOL   H13326261   1.052   7.032   7.631 -0.8111 -0.6422 -2.6105
  185MOL   H13426262   0.878   7.056   7.604 -0.4711  2.2044  0.5493
  185MOL   C13526263   0.960   7.433   7.627 -0.1228 -0.1445  0.2455
  185MOL   C13626264   0.955   7.501   7.492 -0.4102  0.0687  0.4184
  185MOL   O13726265   0.850   7.492   7.699 -0.1532  0.2126  0.6427
  185MOL   H13826266   1.050   7.465   7.680  0.2699  2.5433 -1.9704
  185MOL   H13926267   0.853   7.480   7.458  0.2244 -0.2719 -1.3365
  185MOL   H14026268   1.027   7.463   7.419  0.7547  1.2394  0.9405
  185MOL   H14126269   0.958   7.609   7.499  1.4631  0.1672 -1.5735
  185MOL   H14226270   0.846   7.444   7.781  0.9301 -1.6000 -0.3551
  186MOL     C126271   0.847   2.282   2.619  0.0188 -0.1223 -0.6847
  186MOL     C226272   0.761   2.291   2.749 -0.2769  0.3387 -0.8201
  186MOL     O326273   0.773   2.227   2.508 -0.8520  0.7863  0.4469
  186MOL     H426274   0.926   2.211   2.642 -1.1644 -0.7393  1.6127
  186MOL     H526275   0.729   2.192   2.783  2.0998 -0.4618 -0.7609
  186MOL     H626276   0.688   2.370   2.767  0.1112  0.5351 -0.0908
  186MOL     H726277   0.835   2.311   2.827  0.2503 -1.3865 -0.8392
  186MOL     H826278   0.898   2.374   2.592  0.2575 -0.3123 -0.8726
  186MOL     C926279   0.841   2.228   2.384 -0.3265  0.4512  0.5318
  186MOL    C1026280   0.748   2.159   2.285 -0.0547 -0.4216  0.6461
  186MOL    O1126281   0.854   2.362   2.343 -0.1129  0.0640  0.2163
  186MOL    H1226282   0.934   2.171   2.382 -1.1486 -0.8974 -2.6031
  186MOL    H1326283   0.662   2.224   2.268  0.9042  0.6886 -0.0774
  186MOL    H1426284   0.730   2.060   2.327  3.7633 -1.0873  0.8783
  186MOL    H1526285   0.801   2.139   2.192  0.1087  2.7640 -0.0101
  186MOL    C1626286   0.951   2.378   2.252 -0.0554 -0.3143 -0.0402
  186MOL    C1726287   0.941   2.527   2.223  1.0450 -0.5479 -0.0178
  186MOL    O1826288   1.075   2.338   2.306  0.3476  0.3991  0.4886
  186MOL    H1926289   0.934   2.321   2.161  4.2477 -1.7691 -0.0771
  186MOL    H2026290   0.986   2.540   2.125 -1.4494 -2.7888 -1.5145
  186MOL    H2126291   0.999   2.589   2.291 -1.0230 -0.1484  1.4279
  186MOL    H2226292   0.836   2.550   2.235  0.8220 -1.8578  0.7249
  186MOL    C2326293   1.168   2.311   2.205  0.2182 -0.5914 -0.4591
  186MOL    C2426294   1.294   2.272   2.278  0.2059 -0.1144  0.2369
  186MOL    O2526295   1.127   2.190   2.138 -0.5863  0.2687 -0.0883
  186MOL    H2626296   1.185   2.395   2.137  0.3083 -0.9044 -0.8268
  186MOL    H2726297   1.338   2.351   2.340  0.2873  0.1897 -0.2043
  186MOL    H2826298   1.368   2.242   2.204  1.3137  1.0702  0.8206
  186MOL    H2926299   1.281   2.186   2.344 -1.4398  0.9339  1.3197
  186MOL    C3026300   1.149   2.193   1.999  0.2624 -0.7264  0.4275
  186MOL    C3126301   1.132   2.047   1.948 -0.3043 -0.0661 -0.3287
  186MOL    O3226302   1.051   2.270   1.933 -0.2991 -0.6278 -0.4398
  186MOL    H3326303   1.246   2.241   1.986 -1.0346  1.5013 -1.2840
  186MOL    H3426304   1.199   1.975   1.995 -0.9284 -0.3370  0.1639
  186MOL    H3526305   1.154   2.028   1.843 -0.4203 -2.2451  0.0029
  186MOL    H3626306   1.032   2.013   1.977  0.1887 -0.2349  1.2373
  186MOL    C3726307   1.099   2.348   1.825 -0.0499  0.1646 -0.1178
  186MOL    C3826308   0.974   2.430   1.773 -0.6759  0.5383 -0.8095
  186MOL    O3926309   1.207   2.435   1.870  0.3591 -0.8830  0.0923
  186MOL    H4026310   1.127   2.276   1.748 -2.9214 -0.2655 -0.8147
  186MOL    H4126311   0.944   2.498   1.852  0.3234 -2.7900  2.5744
  186MOL    H4226312   0.903   2.351   1.745  1.4021 -1.8859  0.5241
  186MOL    H4326313   1.002   2.482   1.682  3.1567 -1.9958 -1.2143
  186MOL    C4426314   1.328   2.431   1.800 -0.2343  0.0470 -0.9581
  186MOL    C4526315   1.434   2.502   1.891  0.1397  0.7485 -0.2886
  186MOL    O4626316   1.369   2.298   1.789  0.5028 -0.2880  0.0579
  186MOL    H4726317   1.310   2.479   1.704 -1.0911  1.4855 -0.0970
  186MOL    H4826318   1.417   2.610   1.894  1.2146  0.9493 -1.2387
  186MOL    H4926319   1.533   2.479   1.851 -0.2615 -1.5201 -0.0357
  186MOL    H5026320   1.427   2.460   1.992 -2.2320  2.0912  0.1341
  186MOL    C5126321   1.427   2.261   1.669  0.1931 -1.1057 -0.1269
  186MOL    C5226322   1.419   2.107   1.668 -0.0998 -0.3478  0.5300
  186MOL    O5326323   1.342   2.299   1.568 -0.4125 -0.3943 -0.1315
  186MOL    H5426324   1.531   2.293   1.666 -0.4740  1.0529 -1.5780
  186MOL    H5526325   1.476   2.070   1.583 -0.6667 -0.5828  0.2478
  186MOL    H5626326   1.315   2.081   1.645 -0.3892 -0.3074  1.7726
  186MOL    H5726327   1.460   2.063   1.759  1.0464  0.7868  0.5659
  186MOL    C5826328   1.402   2.364   1.461 -0.3913 -0.4633  0.8765
  186MOL    C5926329   1.280   2.404   1.370 -0.6724 -0.2016 -0.0095
  186MOL    O6026330   1.464   2.482   1.501  0.5182  0.0507  0.1876
  186MOL    H6126331   1.471   2.289   1.421 -0.1660 -0.8632  2.0111
  186MOL    H6226332   1.229   2.311   1.344 -1.5474 -0.1379  1.4739
  186MOL    H6326333   1.324   2.454   1.284 -0.7453  1.9735  1.1799
  186MOL    H6426334   1.219   2.474   1.427  2.9388  3.0717  0.0880
  186MOL    C6526335   1.573   2.510   1.426 -0.0163  0.4620 -0.1165
  186MOL    C6626336   1.621   2.650   1.470 -0.3917 -0.0584  0.5101
  186MOL    O6726337   1.666   2.411   1.450 -0.1395 -0.0430 -0.1250
  186MOL    H6826338   1.542   2.515   1.321 -2.7056 -0.0298  0.6260
  186MOL    H6926339   1.705   2.682   1.409  0.2863 -0.6343  1.1211
  186MOL    H7026340   1.656   2.643   1.573 -1.2888  0.9185  0.8883
  186MOL    H7126341   1.545   2.727   1.462 -0.1708  0.2622  1.4788
  186MOL    C7226342   1.761   2.397   1.349 -0.0345 -0.2333  0.2016
  186MOL    C7326343   1.889   2.347   1.415  0.0104 -0.0279  0.1882
  186MOL    O7426344   1.720   2.305   1.249 -0.1022  0.0604  0.6369
  186MOL    H7526345   1.773   2.498   1.311 -0.4558 -0.4178 -0.4341
  186MOL    H7626346   1.926   2.416   1.490 -0.1946  1.3260 -0.9236
  186MOL    H7726347   1.966   2.355   1.338  0.3889 -1.4186  0.4170
  186MOL    H7826348   1.883   2.251   1.465  0.6534  0.4878  1.2545
  186MOL    C7926349   1.722   2.348   1.118  0.0820 -0.3097 -0.0064
  186MOL    C8026350   1.725   2.221   1.027 -0.0404  0.3585 -0.0110
  186MOL    O8126351   1.603   2.425   1.091  0.3103  0.7792 -0.1087
  186MOL    H8226352   1.813   2.404   1.096  1.2554 -1.1456  2.4834
  186MOL    H8326353   1.719   2.253   0.923 -2.3536 -0.4265 -0.1638
  186MOL    H8426354   1.646   2.152   1.058 -1.1974  0.6742 -2.1738
  186MOL    H8526355   1.818   2.169   1.047 -0.9989 -1.4545 -0.1209
  186MOL    C8626356   1.625   2.547   1.019 -0.5364  0.3818 -0.2499
  186MOL    C8726357   1.492   2.603   0.969  0.2321  0.2903  0.4198
  186MOL    O8826358   1.679   2.649   1.102 -0.4823 -0.3423 -0.2592
  186MOL    H8926359   1.685   2.527   0.931  0.1443  0.9263  0.0897
  186MOL    H9026360   1.434   2.520   0.929  0.0845 -0.5965  2.3946
  186MOL    H9126361   1.503   2.688   0.903  0.2632 -0.9058 -1.1359
  186MOL    H9226362   1.433   2.624   1.059 -0.5544 -0.6321  0.1306
  186MOL    C9326363   1.805   2.691   1.063 -0.2419 -0.1158 -0.0289
  186MOL    C9426364   1.819   2.836   1.133  0.4288  0.5200  0.5953
  186MOL    O9526365   1.909   2.613   1.111  0.0699  0.2935 -0.0182
  186MOL    H9626366   1.809   2.700   0.955 -0.8735  0.6642  0.0054
  186MOL    H9726367   1.903   2.892   1.091  0.6554 -2.0703 -2.6026
  186MOL    H9826368   1.839   2.819   1.239 -0.9931 -2.0610  0.4841
  186MOL    H9926369   1.734   2.899   1.105 -0.0240  0.0559  0.9143
  186MOL   C10026370   2.022   2.606   1.022  0.5881 -0.4918 -0.3118
  186MOL   C10126371   2.124   2.517   1.078  0.3480 -0.7112 -0.0581
  186MOL   O10226372   1.987   2.556   0.904 -0.1204 -0.6597  0.4700
  186MOL   H10326373   2.062   2.707   1.007  0.8422 -0.3962  0.9708
  186MOL   H10426374   2.162   2.559   1.171 -0.1895  0.1477 -0.2233
  186MOL   H10526375   2.205   2.498   1.008  0.3451 -1.6481  0.1860
  186MOL   H10626376   2.076   2.419   1.088 -1.5856 -0.1110 -2.8267
  186MOL   C10726377   2.055   2.612   0.793  0.0919 -1.1013  0.1479
  186MOL   C10826378   1.989   2.547   0.672  0.2382  0.1830  0.0978
  186MOL   O10926379   2.028   2.743   0.769 -0.2847 -0.2538  0.1705
  186MOL   H11026380   2.160   2.586   0.801 -0.0253 -1.3209  0.9655
  186MOL   H11126381   1.894   2.599   0.662  0.6632  0.5171 -2.5409
  186MOL   H11226382   1.982   2.439   0.679  1.4445 -0.0486 -1.9242
  186MOL   H11326383   2.049   2.575   0.586 -0.9538  2.6440  0.0225
  186MOL   C11426384   2.140   2.820   0.759 -0.0571  0.0381  0.1327
  186MOL   C11526385   2.100   2.944   0.677  0.2866  0.3903  0.1707
  186MOL   O11626386   2.174   2.862   0.887 -0.1010 -0.3075  0.1806
  186MOL   H11726387   2.223   2.764   0.717 -0.5501 -2.1688  2.0164
  186MOL   H11826388   2.086   2.927   0.570 -0.1147  2.9688 -0.2385
  186MOL   H11926389   2.186   3.010   0.676  0.0212  0.7474  0.5866
  186MOL   H12026390   2.016   2.997   0.721  0.6775  0.3809  0.9300
  186MOL   C12126391   2.310   2.866   0.915  0.3134  0.4332 -0.0556
  186MOL   C12226392   2.332   2.943   1.043  0.8317 -0.6483 -0.3147
  186MOL   O12326393   2.348   2.738   0.947  0.2598  0.0432  0.2983
  186MOL   H12426394   2.373   2.908   0.837 -1.2245  1.7491 -0.6066
  186MOL   H12526395   2.292   3.044   1.027  1.7819 -0.2746 -0.3245
  186MOL   H12626396   2.435   2.964   1.071  0.3466  0.0151  1.0017
  186MOL   H12726397   2.275   2.899   1.125 -1.7047  1.0482 -1.0749
  186MOL   C12826398   2.454   2.682   0.872  0.3515  0.2179  1.0108
  186MOL   C12926399   2.501   2.552   0.941  0.2193  0.1682 -0.3868
  186MOL   O13026400   2.423   2.649   0.742  0.0570  0.4547  0.1644
  186MOL   H13126401   2.540   2.749   0.879  0.2359  0.7660 -2.0612
  186MOL   H13226402   2.571   2.496   0.880  1.2195 -0.0117  0.9093
  186MOL   H13326403   2.422   2.482   0.972  0.6823 -0.8767 -1.5602
  186MOL   H13426404   2.556   2.574   1.033 -0.5945  1.2675 -0.1465
  186MOL   C13526405   2.527   2.666   0.646  1.0905  0.3386  0.0001
  186MOL   C13626406   2.491   2.583   0.521 -0.5268  0.2782 -0.0150
  186MOL   O13726407   2.534   2.797   0.615 -0.1051  0.4106 -0.0420
  186MOL   H13826408   2.619   2.630   0.691  1.3934  2.0511  0.7837
  186MOL   H13926409   2.405   2.623   0.466 -0.6635  1.2393  0.8808
  186MOL   H14026410   2.473   2.477   0.540 -2.8245  0.8741  1.3934
  186MOL   H14126411   2.579   2.596   0.458 -0.4059  1.8667  0.4574
  186MOL   H14226412   2.623   2.824   0.630  0.2213 -0.5632 -0.2426
  187MOL     C126413   6.926   5.167   0.563 -0.6144 -0.5464  0.1580
  187MOL     C226414   6.825   5.049   0.571 -0.1697  0.3614 -0.3284
  187MOL     O326415   6.864   5.282   0.534  0.5440  0.1084 -0.2083
  187MOL     H426416   6.989   5.146   0.476  0.9579  0.7008  0.9596
  187MOL     H526417   6.742   5.068   0.640 -0.6116  0.1938 -0.8068
  187MOL     H626418   6.876   4.954   0.582  0.6414  0.7523 -0.6901
  187MOL     H726419   6.784   5.045   0.470 -1.8505  2.0399  0.2491
  187MOL     H826420   6.984   5.175   0.655 -2.6616  1.7800  1.3306
  187MOL     C926421   6.812   5.357   0.636  0.2046 -0.5218  0.2328
  187MOL    C1026422   6.919   5.453   0.681  0.3017 -0.4625  0.0578
  187MOL    O1126423   6.705   5.438   0.591 -0.3750 -0.5637 -0.2665
  187MOL    H1226424   6.763   5.294   0.710 -1.1109 -1.0490 -1.0583
  187MOL    H1326425   7.005   5.404   0.726  1.7451 -0.2141 -2.3787
  187MOL    H1426426   6.884   5.516   0.763 -0.4231  0.6702 -1.1007
  187MOL    H1526427   6.954   5.514   0.598  0.5601  0.3084  0.7282
  187MOL    C1626428   6.598   5.375   0.523 -0.2768 -0.6897 -0.6775
  187MOL    C1726429   6.474   5.378   0.621 -0.4141  0.5449  0.0838
  187MOL    O1826430   6.574   5.453   0.410  0.6414 -0.0509 -0.3377
  187MOL    H1926431   6.626   5.273   0.495  2.2673 -0.4338  0.7021
  187MOL    H2026432   6.443   5.478   0.650  0.4039  0.5868  0.8311
  187MOL    H2126433   6.485   5.306   0.702  0.0901  0.5836  0.0557
  187MOL    H2226434   6.385   5.340   0.572  0.4026 -3.7613  1.7189
  187MOL    C2326435   6.680   5.450   0.322 -0.1712 -0.1573 -0.5732
  187MOL    C2426436   6.648   5.333   0.226 -0.7760  0.0900 -0.3408
  187MOL    O2526437   6.677   5.562   0.238  0.5622 -0.1024  0.1268
  187MOL    H2626438   6.783   5.453   0.361 -0.1916  1.8710 -0.6067
  187MOL    H2726439   6.668   5.243   0.284  1.3079  1.0670  0.5249
  187MOL    H2826440   6.703   5.347   0.133  0.5502  0.5081  0.4892
  187MOL    H2926441   6.543   5.341   0.199 -0.8668 -1.0066 -0.3250
  187MOL    C3026442   6.721   5.679   0.296 -0.1360 -0.0405  0.4814
  187MOL    C3126443   6.869   5.704   0.251  0.6499 -0.0906  0.3626
  187MOL    O3226444   6.649   5.790   0.253 -0.0296  0.0503  0.8160
  187MOL    H3326445   6.707   5.666   0.403 -0.4517  1.4339  0.6247
  187MOL    H3426446   6.884   5.708   0.143  0.2793  0.0267  0.3139
  187MOL    H3526447   6.933   5.633   0.302 -0.7100  0.5249  3.0326
  187MOL    H3626448   6.894   5.803   0.290  2.6308 -0.4098 -0.0816
  187MOL    C3726449   6.515   5.783   0.294 -0.0673  0.1120 -0.5978
  187MOL    C3826450   6.486   5.878   0.410  0.0172  0.3555 -0.1855
  187MOL    O3926451   6.428   5.821   0.189 -0.2984 -0.5927  0.0920
  187MOL    H4026452   6.481   5.684   0.320 -1.2628  0.5083 -0.6240
  187MOL    H4126453   6.546   5.867   0.501 -1.6649  1.4921  1.0936
  187MOL    H4226454   6.383   5.888   0.444  0.6890  0.2824  1.9612
  187MOL    H4326455   6.514   5.974   0.366  0.1833 -0.2586 -1.4410
  187MOL    C4426456   6.375   5.705   0.120 -0.8750  0.0273  0.4456
  187MOL    C4526457   6.228   5.702   0.164  0.1947  0.0089  0.1796
  187MOL    O4626458   6.368   5.741   7.899 -0.3743 -0.2341 -0.0247
  187MOL    H4726459   6.423   5.607   0.124 -1.3593 -0.2261  0.0526
  187MOL    H4826460   6.171   5.618   0.125  0.3279  0.0839 -0.1816
  187MOL    H4926461   6.174   5.795   0.143 -1.0241 -0.8186 -0.4125
  187MOL    H5026462   6.216   5.696   0.272  0.3017  1.1267  0.2579
  187MOL    C5126463   6.486   5.724   7.829  0.2470  0.2302  0.4912
  187MOL    C5226464   6.461   5.599   7.741 -0.2505 -0.3772  0.4293
  187MOL    O5326465   6.510   5.836   7.747 -0.2079  0.0293  0.1195
  187MOL    H5426466   6.577   5.701   7.884  2.1240 -1.1460 -3.0720
  187MOL    H5526467   6.443   5.505   7.793  0.4672 -1.0151 -0.4633
  187MOL    H5626468   6.549   5.586   7.678 -0.3931  0.7611 -0.0301
  187MOL    H5726469   6.379   5.618   7.672 -0.7993  3.6568  2.0541
  187MOL    C5826470   6.580   5.938   7.814  0.8606  0.0798 -0.0293
  187MOL    C5926471   6.711   5.944   7.736 -0.8681  0.0906  0.2754
  187MOL    O6026472   6.513   6.055   7.799  0.2712  0.0016 -0.3149
  187MOL    H6126473   6.594   5.909   0.005 -0.6424 -0.6312 -0.0041
  187MOL    H6226474   6.742   5.843   7.708  0.1115  0.7308 -1.0257
  187MOL    H6326475   6.788   5.986   7.800  1.3159  0.0440 -2.2297
  187MOL    H6426476   6.707   6.010   7.649  2.4654 -1.2840 -1.0211
  187MOL    C6526477   6.425   6.087   7.905 -0.2563  0.2147  0.4169
  187MOL    C6626478   6.495   6.164   0.103 -0.0821 -0.5049 -0.1329
  187MOL    O6726479   6.321   6.162   7.859  0.7957  0.6819 -0.0971
  187MOL    H6826480   6.383   5.995   0.031  1.1506 -1.3957 -1.7592
  187MOL    H6926481   6.546   6.250   0.058 -0.5408 -0.4766 -0.6067
  187MOL    H7026482   6.564   6.112   0.168  3.8329 -0.2482 -3.8155
  187MOL    H7126483   6.416   6.212   0.160  0.3392 -1.3932  1.2138
  187MOL    C7226484   6.233   6.093   7.777  0.3454 -0.0062 -0.3863
  187MOL    C7326485   6.127   6.020   7.863 -0.6023  0.6416  0.1395
  187MOL    O7426486   6.163   6.189   7.707  0.5212 -0.5667 -0.5171
  187MOL    H7526487   6.289   6.028   7.710  1.4656 -0.1075  0.6474
  187MOL    H7626488   6.046   5.976   7.805  0.7208  0.6169 -1.7150
  187MOL    H7726489   6.071   6.084   0.017 -0.0250  1.3383 -0.0465
  187MOL    H7826490   6.177   5.945   0.011  2.2396  1.4102 -1.1422
  187MOL    C7926491   6.253   6.265   7.625 -0.2098 -0.0925 -0.6019
  187MOL    C8026492   6.256   6.206   7.487 -0.0309 -0.8557  0.6498
  187MOL    O8126493   6.205   6.393   7.613  0.1772  0.2394  0.0553
  187MOL    H8226494   6.355   6.271   7.662 -0.2364 -1.8655 -0.1708
  187MOL    H8326495   6.154   6.173   7.464 -0.5188 -0.8524  2.7258
  187MOL    H8426496   6.323   6.121   7.488  1.6714  0.4179 -1.2006
  187MOL    H8526497   6.282   6.279   7.410  0.9418 -1.3476  0.5081
  187MOL    C8626498   6.196   6.462   7.732  0.5110 -0.7514 -0.2614
  187MOL    C8726499   6.298   6.577   7.742 -0.3345 -0.3180  0.3620
  187MOL    O8826500   6.074   6.527   7.761 -0.1690  0.1423  0.6798
  187MOL    H8926501   6.205   6.394   7.817  0.6873 -0.8644 -0.3707
  187MOL    H9026502   6.272   6.650   7.820  0.5184 -0.2458  0.5842
  187MOL    H9126503   6.299   6.636   7.651 -0.3005 -1.9186 -0.6880
  187MOL    H9226504   6.401   6.541   7.741  0.0151  0.6304  1.3118
  187MOL    C9326505   5.968   6.450   7.730  0.5851 -0.3930  0.5086
  187MOL    C9426506   5.914   6.372   7.857  0.1263  0.1149  0.2634
  187MOL    O9526507   5.857   6.532   7.708 -0.2734  0.1099  0.2469
  187MOL    H9626508   5.975   6.373   7.653  1.1865  0.5494 -0.3969
  187MOL    H9726509   5.830   6.309   7.829 -2.1251  2.3660  1.6788
  187MOL    H9826510   5.896   6.431   0.033  0.0981 -1.1346  1.0900
  187MOL    H9926511   5.991   6.299   7.881 -0.2192  0.0328  1.1802
  187MOL   C10026512   5.848   6.597   7.586 -0.2785 -0.4521 -0.2294
  187MOL   C10126513   5.723   6.541   7.517 -0.0820  0.0666 -0.1389
  187MOL   O10226514   5.837   6.733   7.599  0.0119  0.8098  0.4894
  187MOL   H10326515   5.936   6.578   7.525  0.4737 -1.0568  1.0341
  187MOL   H10426516   5.645   6.553   7.592  0.6275 -1.7379  0.9245
  187MOL   H10526517   5.736   6.435   7.496 -0.3370  0.0845 -0.3845
  187MOL   H10626518   5.715   6.606   7.430  4.2293  0.9010 -0.0485
  187MOL   C10726519   5.954   6.795   7.640  0.0169 -0.6456  0.6143
  187MOL   C10826520   6.016   6.850   7.511 -0.2811 -0.0496 -0.1050
  187MOL   O10926521   5.919   6.898   7.725  0.5660 -0.0115 -0.0090
  187MOL   H11026522   6.029   6.734   7.691  1.7753  1.1827  0.3395
  187MOL   H11126523   6.071   6.943   7.523 -0.6073 -0.2744  3.7577
  187MOL   H11226524   5.923   6.882   7.464 -0.4860 -1.6047 -0.8124
  187MOL   H11326525   6.065   6.769   7.457 -0.0780 -0.8140  1.2040
  187MOL   C11426526   5.884   6.847   7.853  0.3517 -0.0289 -0.7282
  187MOL   C11526527   5.988   6.895   0.028 -0.1379 -0.3498  0.1747
  187MOL   O11626528   5.758   6.886   7.897 -0.1391  0.5522  0.4139
  187MOL   H11726529   5.880   6.738   7.855 -1.1803  0.0161 -0.6832
  187MOL   H11826530   5.972   6.840   0.120 -2.6553  1.2650  0.7574
  187MOL   H11926531   5.991   7.003   0.040 -2.6486 -0.1393 -0.9014
  187MOL   H12026532   6.084   6.868   7.896 -0.9922 -1.7951 -0.8236
  187MOL   C12126533   5.650   6.841   7.823  0.7112 -0.5774  0.4028
  187MOL   C12226534   5.615   6.690   7.868  0.4109 -0.0312  0.1560
  187MOL   O12326535   5.545   6.917   7.868 -0.8723  0.2939 -1.0151
  187MOL   H12426536   5.665   6.856   7.717 -1.5234 -0.9535 -0.0002
  187MOL   H12526537   5.578   6.678   0.056 -1.1293  1.6127 -0.1841
  187MOL   H12626538   5.705   6.630   7.876 -1.3567 -3.1105 -2.1122
  187MOL   H12726539   5.545   6.650   7.794  1.6951 -0.5328 -0.8007
  187MOL   C12826540   5.538   7.046   7.817  0.0747  0.1150 -0.1428
  187MOL   C12926541   5.400   7.042   7.739 -0.1061 -0.5525 -0.3520
  187MOL   O13026542   5.536   7.145   7.910 -0.4207 -0.0128 -0.7011
  187MOL   H13126543   5.622   7.073   7.753 -0.3315  0.9764 -0.3133
  187MOL   H13226544   5.391   7.134   7.682  0.0113 -1.0537 -1.1794
  187MOL   H13326545   5.318   7.021   7.808 -0.8283  0.7971 -0.7688
  187MOL   H13426546   5.391   6.960   7.668 -1.3381  1.2280 -2.3025
  187MOL   C13526547   5.633   7.141   0.091 -0.1172 -0.7915 -0.0205
  187MOL   C13626548   5.637   7.277   0.158  0.6204  0.0609  0.1957
  187MOL   O13726549   5.609   7.045   0.193  0.2464 -0.2350 -0.0442
  187MOL   H13826550   5.730   7.117   0.047 -0.3877  0.9984 -1.6870
  187MOL   H13926551   5.720   7.286   0.229  0.5305 -1.4388  0.5069
  187MOL   H14026552   5.545   7.293   0.215  0.1857  0.6842 -0.6881
  187MOL   H14126553   5.648   7.356   0.085  0.4816 -0.2155 -0.1232
  187MOL   H14226554   5.603   6.966   0.141  0.7785 -0.7022  0.6110
  188MOL     C126555   5.147   3.128   6.603 -0.6815 -0.3461  0.5033
  188MOL     C226556   5.131   3.095   6.455  0.7788  0.3689 -0.1405
  188MOL     O326557   5.094   3.260   6.620  0.7073  0.2148  0.4491
  188MOL     H426558   5.253   3.137   6.624 -0.2012 -1.1236 -1.4422
  188MOL     H526559   5.027   3.099   6.425  1.4747  1.8224 -2.5322
  188MOL     H626560   5.167   2.996   6.427  1.9485  0.8543 -0.4020
  188MOL     H726561   5.191   3.168   6.399  1.5342 -0.8721 -0.9729
  188MOL     H826562   5.107   3.052   6.671  0.6875  0.4343  2.2193
  188MOL     C926563   5.101   3.313   6.752 -0.5182  0.1387  0.2697
  188MOL    C1026564   5.230   3.392   6.758  0.4927 -0.6677 -0.1181
  188MOL    O1126565   4.996   3.393   6.775 -0.2127 -0.9719 -0.3031
  188MOL    H1226566   5.100   3.233   6.825 -1.7277 -1.7796 -1.7840
  188MOL    H1326567   5.319   3.331   6.740  2.2568  1.7650  0.0830
  188MOL    H1426568   5.239   3.427   6.861  0.9182 -1.0861 -0.0099
  188MOL    H1526569   5.224   3.480   6.695  0.8002  0.4226  1.3407
  188MOL    C1626570   4.873   3.332   6.800  0.3694 -0.2037  0.1974
  188MOL    C1726571   4.841   3.350   6.951 -0.3120 -0.3563 -0.3300
  188MOL    O1826572   4.766   3.389   6.723  0.4231  0.4542 -0.2672
  188MOL    H1926573   4.877   3.226   6.772  1.3063  0.0048 -0.4763
  188MOL    H2026574   4.738   3.316   6.965 -0.0431 -1.8741 -1.9364
  188MOL    H2126575   4.850   3.454   6.985  0.9380 -0.7395  0.5309
  188MOL    H2226576   4.914   3.300   7.015  0.5756  0.2541 -0.8579
  188MOL    C2326577   4.768   3.363   6.583  0.3120  0.6673  0.4029
  188MOL    C2426578   4.684   3.230   6.559  0.1381  0.0079  0.0812
  188MOL    O2526579   4.707   3.468   6.510 -0.7388 -0.0050  0.6506
  188MOL    H2626580   4.871   3.346   6.550  0.5796  3.3278 -0.2705
  188MOL    H2726581   4.726   3.142   6.605 -0.5944 -0.6581 -0.5079
  188MOL    H2826582   4.669   3.214   6.452 -2.3277  1.8181  0.1147
  188MOL    H2926583   4.581   3.245   6.592  0.2489  1.6722 -0.2477
  188MOL    C3026584   4.793   3.574   6.527  0.4333  0.0546 -0.1422
  188MOL    C3126585   4.878   3.602   6.409 -0.2839  0.8901  0.8620
  188MOL    O3226586   4.707   3.686   6.532 -0.1301  0.3510  0.1850
  188MOL    H3326587   4.851   3.585   6.618  1.4969 -0.9271 -0.6947
  188MOL    H3426588   4.809   3.624   6.327  0.0817 -1.0949  0.0010
  188MOL    H3526589   4.938   3.512   6.395  2.2238  2.6137  0.0882
  188MOL    H3626590   4.942   3.688   6.432  0.2698  0.7634 -0.1518
  188MOL    C3726591   4.607   3.681   6.628  0.6613 -0.1362 -0.5027
  188MOL    C3826592   4.667   3.721   6.762  0.0544  0.6520 -0.5233
  188MOL    O3926593   4.509   3.778   6.598 -0.1036 -0.1281  0.1056
  188MOL    H4026594   4.559   3.583   6.632 -1.9117  1.0412 -1.2729
  188MOL    H4126595   4.740   3.648   6.797 -0.3933  0.3693 -0.1813
  188MOL    H4226596   4.592   3.721   6.841  1.6970 -1.9744  1.0821
  188MOL    H4326597   4.713   3.820   6.753 -0.2889  1.1382  2.5146
  188MOL    C4426598   4.428   3.739   6.487  0.3877  0.2010  0.2380
  188MOL    C4526599   4.302   3.669   6.528 -0.6254  0.4177  0.4672
  188MOL    O4626600   4.393   3.851   6.414 -0.2686 -0.1778 -0.2022
  188MOL    H4726601   4.486   3.679   6.417  0.9976  3.7789 -2.4693
  188MOL    H4826602   4.335   3.569   6.556  0.8431  0.3757 -1.3345
  188MOL    H4926603   4.229   3.664   6.448 -0.1360 -0.8572  0.1030
  188MOL    H5026604   4.264   3.710   6.622 -0.6007  0.6231  0.3878
  188MOL    C5126605   4.505   3.899   6.351 -0.1916 -0.1697  0.2328
  188MOL    C5226606   4.492   3.846   6.206 -0.0015  0.2859  0.0643
  188MOL    O5326607   4.500   4.034   6.348  0.2937 -0.4681 -0.2161
  188MOL    H5426608   4.602   3.867   6.389  0.1317  1.3006  0.6954
  188MOL    H5526609   4.540   3.908   6.130  0.1974  0.8561  0.6506
  188MOL    H5626610   4.388   3.858   6.177 -0.9411 -1.7025  2.4228
  188MOL    H5726611   4.532   3.745   6.197  1.7500  0.7976  1.8398
  188MOL    C5826612   4.515   4.089   6.477  0.7306  0.7405 -0.2103
  188MOL    C5926613   4.664   4.109   6.520 -0.6101  0.6412  0.0414
  188MOL    O6026614   4.443   4.214   6.481  0.4846  0.1524 -0.1793
  188MOL    H6126615   4.469   4.028   6.555  0.9190  0.5874 -0.2177
  188MOL    H6226616   4.717   4.180   6.457  1.8317 -0.0230  1.2825
  188MOL    H6326617   4.705   4.010   6.541 -2.0850 -0.4204 -1.8823
  188MOL    H6426618   4.652   4.164   6.613  2.6073  1.6451 -0.0676
  188MOL    C6526619   4.303   4.192   6.496  1.1553 -0.3407 -0.2671
  188MOL    C6626620   4.257   4.261   6.624 -0.7794  0.1898  0.3896
  188MOL    O6726621   4.228   4.244   6.388 -0.2017 -0.1048  0.2233
  188MOL    H6826622   4.282   4.085   6.495 -0.1663 -0.0890 -1.8224
  188MOL    H6926623   4.315   4.216   6.705  2.7806  2.4199 -0.8127
  188MOL    H7026624   4.157   4.242   6.663 -0.5957 -0.3665  0.6044
  188MOL    H7126625   4.280   4.367   6.617 -2.5932  0.5101 -1.0084
  188MOL    C7226626   4.207   4.166   6.278  1.0656 -0.2490  1.1046
  188MOL    C7326627   4.062   4.097   6.279 -0.3478 -0.7085  0.4573
  188MOL    O7426628   4.218   4.241   6.160  0.5718 -0.0937 -0.3621
  188MOL    H7526629   4.275   4.080   6.280 -0.6827 -1.7330 -1.0210
  188MOL    H7626630   4.054   4.023   6.358 -0.7477 -1.1892 -0.0318
  188MOL    H7726631   4.050   4.048   6.183  1.3877  1.6602 -1.0319
  188MOL    H7826632   3.993   4.181   6.285  1.3718  0.8755 -1.1490
  188MOL    C7926633   4.339   4.307   6.142 -0.1271 -0.0850 -0.0217
  188MOL    C8026634   4.410   4.254   6.017  1.1102 -0.1369  0.6791
  188MOL    O8126635   4.333   4.450   6.117  0.1874  0.2216 -0.0573
  188MOL    H8226636   4.404   4.295   6.228  0.4269  3.0995  0.0730
  188MOL    H8326637   4.509   4.300   6.010  1.1816 -0.6829 -2.9218
  188MOL    H8426638   4.351   4.260   5.926  2.5520 -0.9357 -0.3341
  188MOL    H8526639   4.426   4.147   6.032  0.0938 -0.7722 -2.3610
  188MOL    C8626640   4.287   4.531   6.225 -0.1413 -0.3782 -0.3019
  188MOL    C8726641   4.407   4.614   6.263 -0.8177  0.0618  0.0011
  188MOL    O8826642   4.191   4.620   6.190  0.5430 -0.0893  0.3232
  188MOL    H8926643   4.246   4.484   6.314 -0.6615 -0.9446 -0.8435
  188MOL    H9026644   4.446   4.668   6.177  1.8341 -0.8293  0.5983
  188MOL    H9126645   4.486   4.557   6.310 -0.7974  0.6294  0.6542
  188MOL    H9226646   4.379   4.685   6.341 -1.1919 -0.3023  0.2046
  188MOL    C9326647   4.067   4.556   6.154  0.1008  0.7937  0.6593
  188MOL    C9426648   3.959   4.571   6.263 -0.1243  0.3774  0.0221
  188MOL    O9526649   4.017   4.621   6.043 -0.0190 -0.5497 -0.4970
  188MOL    H9626650   4.079   4.449   6.133 -1.6027  1.0692 -1.8611
  188MOL    H9726651   3.997   4.523   6.353 -1.3689  0.1349  0.4153
  188MOL    H9826652   3.877   4.511   6.224  1.0942 -1.9431  0.9294
  188MOL    H9926653   3.935   4.674   6.286  1.4044  0.3333  1.9938
  188MOL   C10026654   4.031   4.548   5.919  0.1168 -0.7249 -0.3009
  188MOL   C10126655   3.888   4.505   5.879 -0.2467 -0.6156 -0.4182
  188MOL   O10226656   4.075   4.639   5.828 -0.2286 -0.9533 -0.5295
  188MOL   H10326657   4.090   4.457   5.921  0.1009 -0.7373 -0.3775
  188MOL   H10426658   3.826   4.594   5.865  0.8363 -0.1290 -2.1905
  188MOL   H10526659   3.844   4.431   5.947 -2.8262 -0.6116 -2.0345
  188MOL   H10626660   3.894   4.461   5.780 -0.1813 -0.0518 -0.6634
  188MOL   C10726661   4.213   4.668   5.842 -0.3573 -0.0842 -0.2993
  188MOL   C10826662   4.288   4.575   5.743  0.3677  0.2575  0.9242
  188MOL   O10926663   4.249   4.795   5.804 -0.5098  0.0191 -0.0605
  188MOL   H11026664   4.257   4.655   5.941  0.3313  2.6686 -0.2037
  188MOL   H11126665   4.242   4.574   5.644  0.5403 -1.6677  0.8421
  188MOL   H11226666   4.295   4.471   5.773 -1.0965 -0.6383 -1.7055
  188MOL   H11326667   4.389   4.614   5.733  0.2806 -0.0323 -1.3401
  188MOL   C11426668   4.200   4.892   5.883 -0.0360 -0.3404  0.0883
  188MOL   C11526669   4.288   4.913   5.998 -0.9737  0.2337 -0.2162
  188MOL   O11626670   4.190   5.007   5.810 -0.8881  0.2289  0.0329
  188MOL   H11726671   4.108   4.852   5.926  0.0493 -0.2417  0.3582
  188MOL   H11826672   4.384   4.926   5.948 -2.8924 -0.7190 -4.3852
  188MOL   H11926673   4.297   4.824   6.059 -0.0594  0.7183  0.3713
  188MOL   H12026674   4.260   4.998   6.061  2.4439 -1.3533  3.7005
  188MOL   C12126675   4.097   5.000   5.715 -0.5100 -0.5599 -0.1811
  188MOL   C12226676   3.978   5.086   5.764  0.4936 -0.3272  0.9289
  188MOL   O12326677   4.145   5.060   5.598 -0.0115  0.1932  0.1015
  188MOL   H12426678   4.051   4.904   5.692  1.8910 -1.7226 -0.2881
  188MOL   H12526679   3.941   5.050   5.860 -2.0434  0.3067  0.2182
  188MOL   H12626680   3.902   5.055   5.692 -0.3232 -2.1799  2.5249
  188MOL   H12726681   4.002   5.192   5.764  2.1890 -0.6641 -0.9362
  188MOL   C12826682   4.256   5.001   5.545 -0.2772  0.3955  0.6016
  188MOL   C12926683   4.216   4.931   5.415 -1.2878  0.2288  0.0306
  188MOL   O13026684   4.344   5.105   5.513  0.2956 -0.5153  0.0709
  188MOL   H13126685   4.300   4.934   5.619  0.7170  0.7457  0.3324
  188MOL   H13226686   4.304   4.888   5.367  1.0813  0.5741  3.9038
  188MOL   H13326687   4.164   5.004   5.352  0.4693  0.9268 -0.6577
  188MOL   H13426688   4.145   4.849   5.427 -1.9431  0.7805  0.0176
  188MOL   C13526689   4.400   5.162   5.625 -0.1826 -0.4259  0.2737
  188MOL   C13626690   4.508   5.071   5.692 -0.3491 -0.0883 -0.6670
  188MOL   O13726691   4.462   5.281   5.585 -0.3139  0.0158 -0.1255
  188MOL   H13826692   4.331   5.188   5.705 -0.6227  0.7183 -0.4515
  188MOL   H13926693   4.448   5.012   5.761  0.4949  2.6080  2.4835
  188MOL   H14026694   4.570   5.133   5.757  1.6373 -0.6580 -1.9480
  188MOL   H14126695   4.566   5.017   5.617 -3.1217  0.2916 -3.1871
  188MOL   H14226696   4.417   5.311   5.507  1.5629 -1.8561 -1.9925
  189MOL     C126697   6.433   5.722   5.235 -0.2495  0.8579  0.0612
  189MOL     C226698   6.384   5.826   5.333 -0.1129  0.4481  0.3307
  189MOL     O326699   6.550   5.663   5.288 -0.9731  0.7767 -0.2523
  189MOL     H426700   6.469   5.771   5.145 -0.8369 -0.0849 -0.6971
  189MOL     H526701   6.287   5.870   5.306  0.1174  0.2075 -0.9111
  189MOL     H626702   6.465   5.899   5.335 -0.3159  0.6583  1.3760
  189MOL     H726703   6.372   5.790   5.435 -0.5903 -1.1593 -0.2884
  189MOL     H826704   6.360   5.642   5.224  0.4133  0.0310  1.4627
  189MOL     C926705   6.608   5.562   5.214  0.6319  0.4024 -0.3074
  189MOL    C1026706   6.742   5.519   5.277 -0.4101  0.0834 -0.1806
  189MOL    O1126707   6.532   5.445   5.208 -0.2523 -0.9418 -0.1593
  189MOL    H1226708   6.634   5.595   5.114 -1.9556  0.3083 -1.0450
  189MOL    H1326709   6.798   5.465   5.200 -0.3130 -0.2570  0.1290
  189MOL    H1426710   6.719   5.468   5.370 -0.8554 -0.9483 -0.8476
  189MOL    H1526711   6.800   5.609   5.298 -0.2312 -0.0520 -0.0957
  189MOL    C1626712   6.540   5.389   5.084  0.3320  0.2068  0.5626
  189MOL    C1726713   6.486   5.243   5.113 -0.2397  0.5414  0.5506
  189MOL    O1826714   6.459   5.460   4.995  0.2401  0.5293  0.1531
  189MOL    H1926715   6.642   5.381   5.045 -0.2392 -1.3726 -0.6936
  189MOL    H2026716   6.377   5.245   5.116 -0.2525 -1.4856  2.0817
  189MOL    H2126717   6.530   5.206   5.206 -0.1794  1.1645  0.7750
  189MOL    H2226718   6.514   5.164   5.043  0.8195 -0.8889  2.5471
  189MOL    C2326719   6.503   5.442   4.865 -0.2084  0.0927  0.3351
  189MOL    C2426720   6.395   5.495   4.772  0.0134 -0.0244 -0.1267
  189MOL    O2526721   6.615   5.524   4.857 -0.2620  0.5550 -0.0849
  189MOL    H2626722   6.523   5.337   4.846 -0.0421  0.2790 -0.5727
  189MOL    H2726723   6.434   5.490   4.670  0.5628 -0.6304  0.1105
  189MOL    H2826724   6.389   5.601   4.796 -2.2960 -0.2004  0.2125
  189MOL    H2926725   6.297   5.448   4.782  0.8431 -1.4844  1.3887
  189MOL    C3026726   6.712   5.471   4.776  0.4526  0.2075  0.1127
  189MOL    C3126727   6.831   5.576   4.787  0.5930  0.3260  0.4630
  189MOL    O3226728   6.761   5.347   4.825  0.2402 -0.2377  0.0220
  189MOL    H3326729   6.675   5.473   4.674  0.4680  2.0130  0.1276
  189MOL    H3426730   6.850   5.582   4.894 -0.3565 -0.3647  0.6836
  189MOL    H3526731   6.803   5.678   4.760  0.6365  0.2390  0.0900
  189MOL    H3626732   6.914   5.533   4.732  0.6010 -0.2110  0.8868
  189MOL    C3726733   6.764   5.254   4.715 -0.3164 -0.3355  0.1240
  189MOL    C3826734   6.847   5.133   4.755 -0.1480 -0.5157 -0.5706
  189MOL    O3926735   6.631   5.201   4.685  0.0307 -0.1507 -0.3375
  189MOL    H4026736   6.799   5.295   4.621 -0.5736  0.6904  0.4741
  189MOL    H4126737   6.955   5.143   4.738 -0.0407  2.2613  1.4304
  189MOL    H4226738   6.803   5.046   4.705 -0.9308 -1.7302  2.1213
  189MOL    H4326739   6.825   5.117   4.860  0.0404 -3.1374 -0.8773
  189MOL    C4426740   6.599   5.201   4.548 -0.0823  0.0451  0.7035
  189MOL    C4526741   6.460   5.136   4.533  0.3936  0.3375 -0.1120
  189MOL    O4626742   6.587   5.333   4.511  0.3783 -0.2701  0.6841
  189MOL    H4726743   6.658   5.143   4.476 -0.3117 -0.7166  1.1243
  189MOL    H4826744   6.460   5.034   4.570 -0.3375  0.1205 -0.7166
  189MOL    H4926745   6.424   5.138   4.430 -1.4311 -0.6364  0.4835
  189MOL    H5026746   6.390   5.186   4.601 -0.7556  0.4232 -1.3562
  189MOL    C5126747   6.635   5.369   4.391 -0.1012  0.3302  0.2514
  189MOL    C5226748   6.591   5.509   4.356  0.0970  0.1989  0.0546
  189MOL    O5326749   6.777   5.357   4.399  0.3505 -0.1526 -0.4343
  189MOL    H5426750   6.592   5.299   4.320  3.6762  0.4736 -2.3428
  189MOL    H5526751   6.620   5.534   4.254  0.9706  1.6524  0.6540
  189MOL    H5626752   6.637   5.582   4.422  1.6818 -2.8163  2.4022
  189MOL    H5726753   6.483   5.525   4.367 -0.5001 -3.3462  0.1285
  189MOL    C5826754   6.839   5.289   4.297 -0.4355 -0.1439  0.1716
  189MOL    C5926755   6.985   5.336   4.312 -0.8126  0.1326  0.0340
  189MOL    O6026756   6.837   5.148   4.326 -0.2507 -0.5717 -0.2742
  189MOL    H6126757   6.790   5.323   4.205  2.3769  1.7078 -0.6861
  189MOL    H6226758   7.020   5.328   4.415  0.2713  1.0311 -0.2444
  189MOL    H6326759   6.989   5.443   4.294 -2.5337  0.4693  1.5446
  189MOL    H6426760   7.052   5.273   4.253 -0.2960  0.1845  0.5634
  189MOL    C6526761   6.804   5.067   4.221 -0.4048  0.0922  0.1717
  189MOL    C6626762   6.829   4.921   4.246 -0.0890 -0.0338 -0.9708
  189MOL    O6726763   6.664   5.083   4.213  0.0734 -0.2874 -0.2451
  189MOL    H6826764   6.860   5.106   4.136 -2.0418  3.0431  0.3841
  189MOL    H6926765   6.933   4.890   4.262 -0.5193 -1.5930 -1.0744
  189MOL    H7026766   6.800   4.870   4.154  0.6321 -0.1680 -1.1265
  189MOL    H7126767   6.771   4.879   4.328  0.2993 -1.5606 -1.4682
  189MOL    C7226768   6.612   5.082   4.086 -0.2876 -0.4347  0.2860
  189MOL    C7326769   6.466   5.107   4.091  0.7452  0.3707  0.0178
  189MOL    O7426770   6.672   5.174   4.005 -0.2167 -0.1648 -0.5438
  189MOL    H7526771   6.634   4.981   4.053  1.7864  0.1410 -0.1479
  189MOL    H7626772   6.446   5.200   4.144 -0.5594  0.6692 -0.9916
  189MOL    H7726773   6.415   5.024   4.139  2.0303 -0.5883 -0.2433
  189MOL    H7826774   6.424   5.108   3.991 -2.4468  1.5647  1.3166
  189MOL    C7926775   6.659   5.133   3.871 -0.3808  1.2660  0.0495
  189MOL    C8026776   6.702   5.255   3.782 -0.5860  0.1382  0.2396
  189MOL    O8126777   6.752   5.035   3.847  0.4714 -0.1413  0.3673
  189MOL    H8226778   6.558   5.100   3.849  0.2993 -0.2753 -0.8641
  189MOL    H8326779   6.803   5.291   3.801 -0.4928 -0.5396  1.0638
  189MOL    H8426780   6.636   5.340   3.802  3.0826  2.7980  1.6574
  189MOL    H8526781   6.682   5.230   3.678  0.3339  0.3387  0.0058
  189MOL    C8626782   6.700   4.935   3.757 -0.8150  0.2087  0.0832
  189MOL    C8726783   6.803   4.830   3.723  0.0817 -0.4216  0.0838
  189MOL    O8826784   6.596   4.872   3.832 -0.4262 -0.0564  0.0554
  189MOL    H8926785   6.668   4.990   3.669  1.5678 -1.1102 -1.6488
  189MOL    H9026786   6.885   4.884   3.676  0.0224 -1.7113 -1.5647
  189MOL    H9126787   6.764   4.747   3.664  0.5630  0.6794 -1.8156
  189MOL    H9226788   6.850   4.793   3.815 -1.0004 -0.6068  0.5706
  189MOL    C9326789   6.489   4.824   3.754 -1.0925  0.0789 -0.0813
  189MOL    C9426790   6.403   4.732   3.836 -0.1088 -0.7542  0.0236
  189MOL    O9526791   6.402   4.918   3.691 -0.1851  0.2287 -1.1885
  189MOL    H9626792   6.536   4.758   3.681  2.3022  1.5499  0.6517
  189MOL    H9726793   6.333   4.779   3.906  0.6471 -0.8702  0.8621
  189MOL    H9826794   6.467   4.661   3.888  0.2256 -1.7931 -1.7568
  189MOL    H9926795   6.344   4.683   3.759 -0.9749 -0.9123  0.7709
  189MOL   C10026796   6.387   4.912   3.555 -0.5224  0.2275 -0.5158
  189MOL   C10126797   6.249   4.972   3.524  0.1269 -0.2556 -0.2037
  189MOL   O10226798   6.483   4.991   3.495 -0.5744 -0.0744 -0.2403
  189MOL   H10326799   6.387   4.807   3.529 -2.4072 -0.4865  2.1614
  189MOL   H10426800   6.171   4.902   3.555 -1.2817  1.9862  1.4987
  189MOL   H10526801   6.235   4.987   3.417 -1.8273  1.4784  0.2535
  189MOL   H10626802   6.231   5.071   3.568  1.0365  0.9854 -2.5359
  189MOL   C10726803   6.553   4.927   3.386  0.4969 -0.8017  0.2709
  189MOL   C10826804   6.643   5.035   3.328 -0.1140  0.1634 -1.1125
  189MOL   O10926805   6.632   4.817   3.429 -0.3968 -0.7815  0.0472
  189MOL   H11026806   6.484   4.902   3.305 -0.6728  2.6721  0.0971
  189MOL   H11126807   6.739   5.039   3.379 -0.0388  0.3374 -1.2679
  189MOL   H11226808   6.606   5.138   3.327 -0.3760  0.0883  0.2746
  189MOL   H11326809   6.644   4.985   3.231  1.0552 -2.4134  0.1829
  189MOL   C11426810   6.615   4.703   3.349  0.6596 -0.4461 -0.1754
  189MOL   C11526811   6.724   4.603   3.384  0.3232 -0.1202  0.0064
  189MOL   O11626812   6.489   4.645   3.386  0.1922 -0.6082  0.3139
  189MOL   H11726813   6.625   4.733   3.244  0.5170  0.5906  0.1023
  189MOL   H11826814   6.695   4.567   3.482 -0.2643  0.1324 -0.0766
  189MOL   H11926815   6.825   4.645   3.390  0.7907 -1.3760  1.2882
  189MOL   H12026816   6.717   4.512   3.324  0.0377 -0.1034  0.0153
  189MOL   C12126817   6.408   4.584   3.282  0.2463  0.5369 -0.3379
  189MOL   C12226818   6.297   4.495   3.350 -0.0680  0.3218 -0.2197
  189MOL   O12326819   6.340   4.680   3.203  0.1767 -0.1414 -0.1585
  189MOL   H12426820   6.479   4.527   3.222 -0.0406 -0.4639  0.2671
  189MOL   H12526821   6.346   4.430   3.423 -0.2336 -1.6965 -1.8314
  189MOL   H12626822   6.254   4.429   3.274  0.5332  0.7772 -0.9598
  189MOL   H12726823   6.215   4.558   3.385 -0.6965 -0.1379 -0.8402
  189MOL   C12826824   6.350   4.655   3.060 -0.1072 -0.4635  0.2702
  189MOL   C12926825   6.256   4.752   2.982  0.4688 -0.4585  0.0462
  189MOL   O13026826   6.482   4.678   3.023 -0.0341  0.1950  0.2222
  189MOL   H13126827   6.321   4.550   3.049 -0.8112 -0.2452  0.0082
  189MOL   H13226828   6.275   4.854   3.015  0.1414 -0.2655 -0.3573
  189MOL   H13326829   6.151   4.726   3.000  0.7587 -0.6252  1.6049
  189MOL   H13426830   6.290   4.748   2.879  0.3529  0.9830 -0.0495
  189MOL   C13526831   6.522   4.597   2.917 -0.3900 -0.3598  0.0560
  189MOL   C13626832   6.651   4.649   2.860 -0.3406 -0.2028 -0.5749
  189MOL   O13726833   6.552   4.466   2.957 -0.4435 -0.6483 -0.5767
  189MOL   H13826834   6.446   4.590   2.839 -0.8922 -0.0240  0.5127
  189MOL   H13926835   6.665   4.589   2.769  2.6479  1.1018 -1.0262
  189MOL   H14026836   6.735   4.627   2.925 -1.7409 -2.3376  0.5803
  189MOL   H14126837   6.638   4.755   2.837 -0.3800  0.0200  0.4840
  189MOL   H14226838   6.481   4.413   2.925  0.4876 -1.4117 -1.3878
  190MOL     C126839   4.737   6.296   2.369  0.7417  0.3043 -0.3658
  190MOL     C226840   4.721   6.285   2.518  0.0569  0.0684 -0.1966
  190MOL     O326841   4.610   6.263   2.308  0.0500 -0.1517  0.2256
  190MOL     H426842   4.823   6.241   2.332  0.1407 -1.4219  0.7762
  190MOL     H526843   4.810   6.310   2.576  0.0830 -0.5895  0.0457
  190MOL     H626844   4.698   6.180   2.534  0.6516 -0.3266 -1.7735
  190MOL     H726845   4.640   6.348   2.553 -0.4071 -1.5217  1.6166
  190MOL     H826846   4.758   6.403   2.366 -1.4577  0.7721 -0.6285
  190MOL     C926847   4.564   6.350   2.211 -1.2164 -0.1356 -0.3202
  190MOL    C1026848   4.629   6.313   2.079 -0.5853  0.0493 -0.7651
  190MOL    O1126849   4.426   6.346   2.203  0.1725 -0.1480 -0.2553
  190MOL    H1226850   4.592   6.452   2.236 -1.3349 -0.4893  1.3233
  190MOL    H1326851   4.730   6.352   2.071  0.6693 -2.6640  1.1735
  190MOL    H1426852   4.570   6.345   1.993 -0.0448  2.4951 -0.2561
  190MOL    H1526853   4.633   6.204   2.070 -3.4989 -0.1021 -0.7045
  190MOL    C1626854   4.358   6.385   2.320  0.2630 -0.2277 -0.0708
  190MOL    C1726855   4.297   6.522   2.287  0.4434 -0.8218 -0.8768
  190MOL    O1826856   4.262   6.288   2.363 -0.0982  0.3502 -0.6504
  190MOL    H1926857   4.427   6.394   2.404  0.0436  0.9196 -0.0073
  190MOL    H2026858   4.240   6.525   2.194 -1.9327 -2.7591  0.4628
  190MOL    H2126859   4.377   6.595   2.274 -0.1647  0.2930  1.4384
  190MOL    H2226860   4.229   6.558   2.364  1.6511  3.6427 -1.7136
  190MOL    C2326861   4.309   6.169   2.416  0.2379 -0.0900 -0.9680
  190MOL    C2426862   4.285   6.167   2.573 -0.3795 -0.2055  0.2465
  190MOL    O2526863   4.233   6.060   2.378  0.1715 -0.5579 -0.0755
  190MOL    H2626864   4.414   6.154   2.390  0.4104 -0.6730 -0.0013
  190MOL    H2726865   4.180   6.181   2.601 -0.3637 -2.7232  1.6571
  190MOL    H2826866   4.340   6.248   2.621  2.2241 -1.4284 -0.6121
  190MOL    H2926867   4.319   6.077   2.623 -0.5454 -0.5087 -0.1783
  190MOL    C3026868   4.277   6.003   2.258  0.3232 -0.1286  0.3976
  190MOL    C3126869   4.348   5.869   2.285  0.4277  0.2532 -0.0204
  190MOL    O3226870   4.172   5.971   2.175  0.0574 -0.2985  0.5063
  190MOL    H3326871   4.353   6.057   2.201  1.0070 -0.5456  0.9079
  190MOL    H3426872   4.275   5.801   2.328  0.6342  0.0569  0.0171
  190MOL    H3526873   4.429   5.879   2.357  1.3305  2.1665 -1.2555
  190MOL    H3626874   4.385   5.826   2.192  4.0840 -0.3367  1.6308
  190MOL    C3726875   4.123   6.083   2.110 -0.8626 -0.3081 -0.0643
  190MOL    C3826876   4.183   6.090   1.970  0.3447 -0.5248  0.6115
  190MOL    O3926877   3.993   6.064   2.082  0.2359  0.3393  0.5448
  190MOL    H4026878   4.150   6.177   2.158  0.9934 -1.2571  0.7899
  190MOL    H4126879   4.161   6.007   1.903 -1.8695 -0.3716  1.1090
  190MOL    H4226880   4.291   6.098   1.965  0.2805 -0.2169 -0.1685
  190MOL    H4326881   4.145   6.182   1.925 -0.9284 -1.0861  0.4975
  190MOL    C4426882   3.905   6.085   2.197 -0.2730  0.8974  0.8642
  190MOL    C4526883   3.887   6.239   2.209 -0.3656  0.3825 -0.6108
  190MOL    O4626884   3.781   6.023   2.167  0.1950  0.3307  0.5220
  190MOL    H4726885   3.950   6.051   2.290  3.1642  2.4789 -0.1397
  190MOL    H4826886   3.830   6.270   2.296  0.7748  1.2441 -0.1494
  190MOL    H4926887   3.845   6.285   2.119 -0.2955 -2.3270 -2.0673
  190MOL    H5026888   3.982   6.286   2.233 -1.9015  3.2702  0.0318
  190MOL    C5126889   3.787   5.878   2.165 -0.2510 -0.4298  0.5876
  190MOL    C5226890   3.716   5.827   2.290  0.3911  0.2887 -0.0246
  190MOL    O5326891   3.716   5.827   2.053 -0.5674 -0.3220  0.2324
  190MOL    H5426892   3.891   5.845   2.153 -0.3702 -0.0036 -1.9538
  190MOL    H5526893   3.608   5.838   2.291  0.2740 -0.6496 -2.0483
  190MOL    H5626894   3.748   5.877   2.382  0.0515 -0.5915  0.5828
  190MOL    H5726895   3.735   5.720   2.297 -2.7005 -0.3506 -0.9279
  190MOL    C5826896   3.778   5.841   1.923 -0.8609 -0.8834  0.9618
  190MOL    C5926897   3.850   5.717   1.888  0.0669 -0.3815  0.4332
  190MOL    O6026898   3.687   5.870   1.820 -0.1206  0.2824 -0.5587
  190MOL    H6126899   3.853   5.918   1.938  1.0106 -1.9191 -2.4993
  190MOL    H6226900   3.793   5.624   1.887 -0.9559  0.1786 -4.1196
  190MOL    H6326901   3.927   5.703   1.965  1.5106 -0.2123 -0.9441
  190MOL    H6426902   3.889   5.722   1.786  1.1583  1.4602  0.9263
  190MOL    C6526903   3.650   6.009   1.803  0.3425 -0.2582 -0.2053
  190MOL    C6626904   3.746   6.061   1.699  0.2622 -0.0802 -0.4315
  190MOL    O6726905   3.518   6.010   1.757 -0.2155  0.0596 -0.1771
  190MOL    H6826906   3.665   6.063   1.896 -1.9851 -0.5657  0.3552
  190MOL    H6926907   3.763   5.996   1.614  3.2845 -1.0815  0.8753
  190MOL    H7026908   3.842   6.065   1.750  0.8049  1.3841 -1.5352
  190MOL    H7126909   3.724   6.158   1.655  1.7657 -0.3189 -1.7453
  190MOL    C7226910   3.423   5.969   1.859 -0.3073 -0.3026  0.1147
  190MOL    C7326911   3.346   6.092   1.914  0.5835  0.8572  0.2336
  190MOL    O7426912   3.323   5.893   1.794  0.1906  0.1094 -0.1926
  190MOL    H7526913   3.474   5.915   1.938  1.7825 -1.5548 -2.0216
  190MOL    H7626914   3.321   6.166   1.838  2.3696 -1.2865 -2.5892
  190MOL    H7726915   3.384   6.150   1.998 -1.2470  1.5582  0.5923
  190MOL    H7826916   3.246   6.070   1.950  0.0209  1.5268 -0.8672
  190MOL    C7926917   3.361   5.767   1.754  0.2402  0.1435  0.3741
  190MOL    C8026918   3.293   5.664   1.840 -0.4224 -0.2683  0.5098
  190MOL    O8126919   3.329   5.742   1.621 -0.2914  0.1242 -0.3910
  190MOL    H8226920   3.469   5.751   1.762  0.1118  0.5872  3.5853
  190MOL    H8326921   3.188   5.669   1.811 -0.0971 -1.4830 -0.9148
  190MOL    H8426922   3.288   5.697   1.944  1.4251  1.1256  0.1630
  190MOL    H8526923   3.341   5.567   1.825  1.4293  0.3926  1.9586
  190MOL    C8626924   3.409   5.805   1.527 -0.2567 -0.2224 -0.3230
  190MOL    C8726925   3.477   5.686   1.448 -0.1588  0.3428 -0.6473
  190MOL    O8826926   3.324   5.866   1.431 -0.5083  0.9566  0.0616
  190MOL    H8926927   3.482   5.880   1.557  0.6764 -0.9244 -0.8382
  190MOL    H9026928   3.545   5.733   1.376 -1.4248  2.4368 -0.5286
  190MOL    H9126929   3.391   5.639   1.401 -0.5702  0.4398 -0.0027
  190MOL    H9226930   3.536   5.609   1.498 -0.5348 -0.9079 -2.1079
  190MOL    C9326931   3.301   6.000   1.457 -0.2908  0.7570  0.0220
  190MOL    C9426932   3.385   6.081   1.359 -0.0644 -0.4781  0.3199
  190MOL    O9526933   3.165   6.019   1.434 -0.8104  0.0662 -0.0591
  190MOL    H9626934   3.315   6.023   1.562  0.7672  2.3295 -0.4394
  190MOL    H9726935   3.488   6.047   1.353  0.5503  0.9745  2.0481
  190MOL    H9826936   3.385   6.188   1.380 -0.0777 -0.3804 -0.1793
  190MOL    H9926937   3.335   6.056   1.265  1.4294  0.7677 -0.8201
  190MOL   C10026938   3.074   5.960   1.521 -0.5841 -0.3119 -0.2783
  190MOL   C10126939   3.051   6.071   1.627  1.1330 -0.1468  0.0578
  190MOL   O10226940   2.953   5.933   1.472  0.6978 -0.3902 -0.1059
  190MOL   H10326941   3.120   5.872   1.566 -2.0973  0.1644  2.3151
  190MOL   H10426942   3.010   6.160   1.582 -1.7476 -0.9824  0.9218
  190MOL   H10526943   3.142   6.097   1.682  2.9141 -0.6059 -2.5710
  190MOL   H10626944   2.977   6.036   1.699  0.9773  0.6011  0.2658
  190MOL   C10726945   2.959   5.833   1.372  0.1105 -0.0819 -0.0705
  190MOL   C10826946   2.887   5.709   1.423  0.0848  0.6701 -0.9339
  190MOL   O10926947   2.890   5.871   1.258  0.1961 -0.6983  0.0324
  190MOL   H11026948   3.065   5.817   1.349  0.0392 -0.1156 -0.3678
  190MOL   H11126949   2.791   5.729   1.471  0.7213  0.9624  0.2409
  190MOL   H11226950   2.946   5.671   1.507 -0.3638  0.2211 -0.8204
  190MOL   H11326951   2.876   5.622   1.359  2.2768 -1.1093  0.9872
  190MOL   C11426952   2.956   5.964   1.181 -0.3276 -0.3072  0.1160
  190MOL   C11526953   2.975   5.893   1.047 -0.0201  0.2644  0.4507
  190MOL   O11626954   2.878   6.076   1.160 -0.0091  0.2390 -0.1584
  190MOL   H11726955   3.054   5.999   1.215  0.3361 -1.0096 -1.0548
  190MOL   H11826956   3.062   5.827   1.056 -0.7035 -0.9010 -1.2344
  190MOL   H11926957   3.002   5.963   0.968  0.1442 -0.3079 -0.0006
  190MOL   H12026958   2.894   5.827   1.019  0.6888 -0.7168  0.6901
  190MOL   C12126959   2.884   6.170   1.268 -0.5314 -0.4165 -0.4648
  190MOL   C12226960   2.951   6.291   1.211 -0.2914 -0.4828  0.5545
  190MOL   O12326961   2.757   6.216   1.297  0.6181  0.1291  0.0232
  190MOL   H12426962   2.934   6.141   1.360 -1.2749 -0.2677 -0.0136
  190MOL   H12526963   2.881   6.343   1.145 -0.0260 -1.1052 -0.2220
  190MOL   H12626964   3.044   6.265   1.159 -0.6303 -1.2981  0.3589
  190MOL   H12726965   2.974   6.356   1.295  1.8769 -3.7476  2.5691
  190MOL   C12826966   2.692   6.120   1.368  0.9005 -0.6994  0.2111
  190MOL   C12926967   2.684   6.172   1.509 -0.5277 -0.1595  1.1885
  190MOL   O13026968   2.561   6.089   1.326 -0.0021 -0.0519  0.0553
  190MOL   H13126969   2.742   6.024   1.360  1.9401 -0.1216 -0.3278
  190MOL   H13226970   2.674   6.088   1.578 -2.3409  0.6816  1.9619
  190MOL   H13326971   2.596   6.236   1.509 -1.0025 -0.8030 -0.3290
  190MOL   H13426972   2.770   6.232   1.540 -1.2879  2.8011 -2.1186
  190MOL   C13526973   2.553   6.009   1.212 -0.0493  0.5050  0.1850
  190MOL   C13626974   2.400   5.992   1.187 -0.6703  0.2396  0.1730
  190MOL   O13726975   2.616   6.062   1.102  0.2741 -0.1772 -0.7460
  190MOL   H13826976   2.594   5.909   1.227 -0.4949  0.4453  1.0418
  190MOL   H13926977   2.388   5.910   1.117 -0.9944 -0.6662  1.2692
  190MOL   H14026978   2.362   6.081   1.136  1.8256  1.1777 -0.1692
  190MOL   H14126979   2.345   5.965   1.277 -0.1379 -1.2607  0.0515
  190MOL   H14226980   2.709   6.050   1.114  0.7853  2.5650 -1.6564
  191MOL     C126981   0.839   2.435   3.695 -0.2740 -0.2432 -0.0844
  191MOL     C226982   0.936   2.549   3.667  0.3700  0.1371  0.4028
  191MOL     O326983   0.758   2.424   3.585 -0.2635  0.1240 -0.0925
  191MOL     H426984   0.792   2.440   3.793  0.6220  1.3250  0.2779
  191MOL     H526985   0.992   2.533   3.576  1.0961  0.0162  0.8710
  191MOL     H626986   1.005   2.560   3.751 -0.0396  0.0140  0.7596
  191MOL     H726987   0.883   2.645   3.666  1.7117  0.8956  1.1802
  191MOL     H826988   0.898   2.343   3.694 -0.0433 -0.1289  1.5589
  191MOL     C926989   0.636   2.356   3.615  0.0290  0.3440  0.2276
  191MOL    C1026990   0.568   2.365   3.473 -0.0713 -0.4768 -0.3128
  191MOL    O1126991   0.660   2.221   3.646 -0.0018 -0.2360  0.1352
  191MOL    H1226992   0.583   2.414   3.690  0.5114  0.3813  0.5430
  191MOL    H1326993   0.585   2.464   3.431 -0.8635 -0.2843 -0.1941
  191MOL    H1426994   0.466   2.326   3.477 -0.8622  1.4506 -1.2731
  191MOL    H1526995   0.625   2.294   3.413 -0.7200 -0.2632 -1.1780
  191MOL    C1626996   0.552   2.162   3.715  0.0001  0.0320 -0.1770
  191MOL    C1726997   0.586   2.016   3.722  0.0824  0.8971  0.2248
  191MOL    O1826998   0.543   2.215   3.851 -0.2662 -0.5303  0.1116
  191MOL    H1926999   0.462   2.178   3.657  0.2364  1.6021 -0.1398
  191MOL    H2027000   0.665   1.985   3.791  1.5578  3.2079 -0.3437
  191MOL    H2127001   0.615   1.988   3.621  2.7413 -0.8257  1.4133
  191MOL    H2227002   0.495   1.966   3.754  0.1754  0.8523  0.4235
  191MOL    C2327003   0.413   2.261   3.886  0.1854 -0.0067 -0.7514
  191MOL    C2427004   0.418   2.321   4.022  0.0571 -0.9845  0.3171
  191MOL    O2527005   0.380   2.360   3.796 -0.3603 -0.7188 -0.5639
  191MOL    H2627006   0.345   2.177   3.883  0.0122  0.0192  1.5831
  191MOL    H2727007   0.433   2.242   4.095  0.1626 -2.3177 -1.1278
  191MOL    H2827008   0.320   2.365   4.042 -0.2577 -0.5546 -1.9926
  191MOL    H2927009   0.497   2.396   4.026 -1.7952  1.2120 -1.8639
  191MOL    C3027010   0.252   2.347   3.741 -0.0228 -0.0116 -0.4121
  191MOL    C3127011   0.242   2.463   3.643  0.2275  1.0595 -0.0045
  191MOL    O3227012   0.238   2.230   3.673  0.2365  0.9968  0.3089
  191MOL    H3327013   0.179   2.361   3.821  0.0234 -1.4501 -0.1054
  191MOL    H3427014   0.275   2.560   3.679 -0.6837  0.7728  1.6705
  191MOL    H3527015   0.138   2.482   3.615 -0.1350  0.5362  0.9370
  191MOL    H3627016   0.313   2.438   3.564 -1.6143 -1.5202 -0.9493
  191MOL    C3727017   0.110   2.193   3.662 -0.0263  0.1846  0.1645
  191MOL    C3827018   0.113   2.067   3.581  0.4613 -0.0745  0.0216
  191MOL    O3927019   0.065   2.159   3.791  0.0318 -0.5195  0.0430
  191MOL    H4027020   0.051   2.264   3.604  0.5143 -1.1677 -2.0861
  191MOL    H4127021   0.008   2.043   3.563  0.8681 -0.2139 -2.4374
  191MOL    H4227022   0.162   1.979   3.622  0.4728 -0.5465 -0.9736
  191MOL    H4327023   0.156   2.088   3.483 -1.0135  0.1879 -0.5936
  191MOL    C4427024   7.854   2.219   3.833 -0.3025  0.1637  0.1597
  191MOL    C4527025   7.825   2.165   3.967 -0.2838 -0.2946 -0.5456
  191MOL    O4627026   7.859   2.355   3.838 -0.3116  0.6359 -0.0058
  191MOL    H4727027   7.787   2.182   3.756 -0.3204 -0.2871  0.3912
  191MOL    H4827028   7.728   2.206   3.997  0.1589  0.0708  0.4266
  191MOL    H4927029   7.903   2.200   4.034  0.9755 -0.1146 -2.1013
  191MOL    H5027030   7.821   2.057   3.956  1.8921 -0.4970  0.4057
  191MOL    C5127031   7.747   2.421   3.775  0.4050  0.5858 -0.5278
  191MOL    C5227032   7.747   2.574   3.809 -0.4146 -0.8614 -0.1238
  191MOL    O5327033   7.752   2.407   3.633 -0.1964  0.5530  0.0012
  191MOL    H5427034   7.657   2.374   3.815  1.1935  0.3806  1.0404
  191MOL    H5527035   7.837   2.616   3.765 -0.4391 -0.2480  0.4097
  191MOL    H5627036   7.759   2.589   3.917  0.5792 -1.5908 -0.1179
  191MOL    H5727037   7.663   2.627   3.765  2.6842  2.4278 -2.3477
  191MOL    C5827038   7.631   2.421   3.569  0.6317  0.5418  0.4331
  191MOL    C5927039   7.658   2.382   3.419 -0.0575 -0.3309 -0.1424
  191MOL    O6027040   7.541   2.329   3.622  0.3996 -0.7283  0.4714
  191MOL    H6127041   7.589   2.521   3.576 -2.4403 -0.5918 -0.7161
  191MOL    H6227042   7.712   2.462   3.368 -3.7792  1.9703 -0.6478
  191MOL    H6327043   7.574   2.370   3.351  1.6931  0.7004 -2.6008
  191MOL    H6427044   7.716   2.290   3.422  0.8374  0.0310 -3.7858
  191MOL    C6527045   7.410   2.363   3.619 -0.3530  0.3351 -0.4096
  191MOL    C6627046   7.329   2.240   3.674  0.5068 -0.1204  0.3618
  191MOL    O6727047   7.386   2.459   3.707  0.6197  0.3558 -0.3080
  191MOL    H6827048   7.382   2.372   3.514 -0.8066  0.1528 -0.3077
  191MOL    H6927049   7.330   2.156   3.603 -1.7053 -1.4163  1.8096
  191MOL    H7027050   7.224   2.267   3.677  0.8397  1.0058  2.4377
  191MOL    H7127051   7.366   2.210   3.772  1.3177  0.7259  0.3231
  191MOL    C7227052   7.298   2.559   3.660 -0.1461 -0.3108  0.1469
  191MOL    C7327053   7.250   2.648   3.776  0.4904 -0.0483  0.1017
  191MOL    O7427054   7.380   2.645   3.579  0.6017 -0.0798 -0.4413
  191MOL    H7527055   7.217   2.516   3.601 -0.7244  0.4686  0.3636
  191MOL    H7627056   7.207   2.579   3.849  0.5517 -0.9874 -0.7376
  191MOL    H7727057   7.175   2.713   3.731  0.6569  1.3826  1.8416
  191MOL    H7827058   7.327   2.712   3.820  0.6533 -0.8922  1.0759
  191MOL    C7927059   7.337   2.683   3.454  0.5231  0.2102  0.0432
  191MOL    C8027060   7.402   2.817   3.419  0.1432 -0.3226 -0.2980
  191MOL    O8127061   7.383   2.583   3.370 -0.0330  0.1183 -0.0699
  191MOL    H8227062   7.231   2.704   3.444  0.1445 -0.4915  2.4995
  191MOL    H8327063   7.358   2.895   3.480 -0.3220 -1.1521  0.4495
  191MOL    H8427064   7.395   2.841   3.313 -1.2363 -0.6165 -0.2805
  191MOL    H8527065   7.510   2.807   3.432  0.3445  0.5410 -1.2738
  191MOL    C8627066   7.287   2.533   3.285  0.4623  0.1031 -0.2004
  191MOL    C8727067   7.363   2.460   3.178  0.3519 -0.1451 -0.2399
  191MOL    O8827068   7.214   2.433   3.346  0.2566  0.1126 -0.3520
  191MOL    H8927069   7.232   2.615   3.239  1.9250  1.2357  0.0670
  191MOL    H9027070   7.415   2.368   3.203  0.9288 -0.2421 -1.7197
  191MOL    H9127071   7.436   2.535   3.146 -0.5044  0.2301 -1.3434
  191MOL    H9227072   7.296   2.444   3.094 -2.4849 -1.6884  2.2214
  191MOL    C9327073   7.081   2.454   3.328 -0.3955  0.2633 -0.3324
  191MOL    C9427074   7.013   2.333   3.368  0.5646  0.2282 -0.1994
  191MOL    O9527075   7.034   2.559   3.411 -0.0042  0.3773  0.0012
  191MOL    H9627076   7.057   2.482   3.226 -0.2629 -1.0067 -0.7224
  191MOL    H9727077   7.024   2.316   3.475  2.6109 -1.6375 -0.6723
  191MOL    H9827078   7.054   2.259   3.299 -0.2670  0.2310 -0.7123
  191MOL    H9927079   6.905   2.342   3.355 -0.1062 -1.1233  3.6701
  191MOL   C10027080   6.931   2.646   3.355 -0.4535  0.5545  0.1983
  191MOL   C10127081   6.865   2.707   3.481 -0.8680 -0.2761  0.3739
  191MOL   O10227082   6.992   2.757   3.285  0.4074  0.4906 -0.0660
  191MOL   H10327083   6.861   2.588   3.295 -0.3777 -0.9168  1.5092
  191MOL   H10427084   6.841   2.627   3.550 -1.5139 -0.4868 -0.0942
  191MOL   H10527085   6.772   2.755   3.448  0.0431  0.2955 -1.4513
  191MOL   H10627086   6.929   2.781   3.529  0.1078 -1.0426  0.2624
  191MOL   C10727087   6.971   2.751   3.138  0.1918 -0.5240 -0.8461
  191MOL   C10827088   7.030   2.879   3.090  0.1292 -0.4441 -0.4488
  191MOL   O10927089   7.042   2.647   3.080 -0.2679  0.0784  0.2229
  191MOL   H11027090   6.865   2.755   3.111  1.0388 -0.2809 -4.4164
  191MOL   H11127091   7.134   2.881   3.125  0.2941  0.0740 -0.9563
  191MOL   H11227092   6.967   2.957   3.132  0.6394  0.2802 -0.9990
  191MOL   H11327093   7.037   2.886   2.981 -1.9338  1.4585 -0.4840
  191MOL   C11427094   6.966   2.579   2.982 -0.4424 -0.0100 -0.0963
  191MOL   C11527095   7.055   2.518   2.876  0.7608 -0.2311 -0.2866
  191MOL   O11627096   6.892   2.467   3.035  0.0764 -0.0053  0.4911
  191MOL   H11727097   6.898   2.646   2.928 -2.5109 -2.0089 -0.0448
  191MOL   H11827098   7.112   2.601   2.834  1.2438 -0.5183 -0.2036
  191MOL   H11927099   7.005   2.463   2.797  0.9058 -2.0450  0.8624
  191MOL   H12027100   7.132   2.459   2.926  1.9902  0.7412 -0.9815
  191MOL   C12127101   6.751   2.470   3.021 -0.6635  0.0370 -0.2418
  191MOL   C12227102   6.697   2.332   3.073 -0.6049 -0.5799  0.3588
  191MOL   O12327103   6.699   2.575   3.101 -0.2907  0.2795  0.2368
  191MOL   H12427104   6.731   2.483   2.915 -1.4970  0.2521 -0.0599
  191MOL   H12527105   6.731   2.312   3.174 -0.5372  2.1344  0.9053
  191MOL   H12627106   6.733   2.242   3.022 -0.1230  0.6995 -1.6427
  191MOL   H12727107   6.589   2.336   3.063 -0.6403 -0.3190  0.8560
  191MOL   C12827108   6.610   2.658   3.034  0.0110  0.4970 -0.5163
  191MOL   C12927109   6.545   2.747   3.144 -0.1962 -0.1703  0.0329
  191MOL   O13027110   6.668   2.736   2.937  0.0417 -0.6298 -0.1102
  191MOL   H13127111   6.526   2.596   2.999 -0.4172 -0.3247  1.8618
  191MOL   H13227112   6.471   2.817   3.105 -1.7165 -0.9539  1.4643
  191MOL   H13327113   6.622   2.791   3.208 -0.6883  2.3838 -1.0499
  191MOL   H13427114   6.486   2.688   3.213  1.8071 -1.0057  1.0893
  191MOL   C13527115   6.585   2.801   2.850  0.4414 -0.4509  0.6050
  191MOL   C13627116   6.673   2.898   2.760 -0.1320 -0.0219  0.3056
  191MOL   O13727117   6.521   2.707   2.764 -0.3087 -0.2132  0.3599
  191MOL   H13827118   6.507   2.859   2.900  1.0265 -0.3985  1.4812
  191MOL   H13927119   6.599   2.970   2.725  0.2873 -0.8401 -2.3893
  191MOL   H14027120   6.725   2.839   2.684 -1.6768 -2.5043  1.1009
  191MOL   H14127121   6.742   2.954   2.822 -0.1068  1.0825 -0.6963
  191MOL   H14227122   6.568   2.713   2.683 -1.1763  0.9708 -0.0689
  192MOL     C127123   4.383   0.347   7.095  0.1546  0.3802  0.9899
  192MOL     C227124   4.238   0.307   7.134 -0.0885 -0.4132  0.5471
  192MOL     O327125   4.400   0.480   7.071  0.4017 -0.1965 -0.3802
  192MOL     H427126   4.426   0.283   7.017 -0.8380  0.3196  0.4743
  192MOL     H527127   4.186   0.368   7.208  0.4979  1.0184 -0.2052
  192MOL     H627128   4.227   0.205   7.172 -2.0251  0.2270  1.7510
  192MOL     H727129   4.175   0.322   7.046 -0.1293  0.9721  0.8130
  192MOL     H827130   4.440   0.335   7.186 -1.1357 -2.7404  1.4506
  192MOL     C927131   4.518   0.514   7.009 -0.1058  0.1806  0.3109
  192MOL    C1027132   4.504   0.503   6.856 -0.5492 -0.1764 -0.2554
  192MOL    O1127133   4.550   0.648   7.030  0.0138  0.3515 -0.0425
  192MOL    H1227134   4.605   0.462   7.049 -0.4282 -1.8181 -1.4567
  192MOL    H1327135   4.419   0.563   6.821  0.2823  0.5727 -1.0230
  192MOL    H1427136   4.475   0.401   6.829  1.2460 -0.8551  0.3257
  192MOL    H1527137   4.594   0.540   6.808 -0.9216 -0.6968 -1.3736
  192MOL    C1627138   4.578   0.685   7.164  0.0751 -0.4825 -0.3092
  192MOL    C1727139   4.727   0.679   7.202 -0.1541  0.3314  0.2924
  192MOL    O1827140   4.549   0.823   7.183  0.3086 -0.1024 -0.1229
  192MOL    H1927141   4.514   0.626   7.230  0.2186  0.4091  0.6373
  192MOL    H2027142   4.768   0.583   7.168  2.8652  1.8463 -0.5142
  192MOL    H2127143   4.747   0.691   7.309 -1.0156  0.7642  0.4086
  192MOL    H2227144   4.773   0.759   7.144 -0.3616  1.0424  1.0921
  192MOL    C2327145   4.412   0.846   7.180  0.7038  0.4112  0.4222
  192MOL    C2427146   4.376   0.887   7.329 -0.2404 -0.2686  0.3121
  192MOL    O2527147   4.380   0.955   7.100  0.2668 -0.3059 -0.0864
  192MOL    H2627148   4.351   0.764   7.145  1.1054  0.1370  0.3643
  192MOL    H2727149   4.268   0.882   7.324 -0.3073  2.0436 -1.8332
  192MOL    H2827150   4.414   0.989   7.343 -0.8211 -0.2111  1.5470
  192MOL    H2927151   4.412   0.814   7.401  0.8818  0.1224  0.1590
  192MOL    C3027152   4.383   0.923   6.966 -0.7917 -0.2703  0.0597
  192MOL    C3127153   4.235   0.905   6.925 -0.3788 -0.9598  0.0251
  192MOL    O3227154   4.430   1.029   6.889  0.0884  0.0785  0.3295
  192MOL    H3327155   4.439   0.834   6.938 -0.3271 -0.5289  1.8012
  192MOL    H3427156   4.168   0.987   6.949  0.5568 -0.1826  0.0199
  192MOL    H3527157   4.195   0.809   6.959 -1.5112  0.2730  2.2842
  192MOL    H3627158   4.239   0.892   6.817  1.6571 -0.2272 -0.0151
  192MOL    C3727159   4.562   1.078   6.918  0.2014 -0.8114  0.1881
  192MOL    C3827160   4.647   1.018   6.803  0.0395 -0.0217 -0.0564
  192MOL    O3927161   4.559   1.213   6.909  0.3074 -0.0425 -0.4000
  192MOL    H4027162   4.595   1.043   7.016  0.6757 -0.6607  0.0816
  192MOL    H4127163   4.605   1.039   6.704 -0.5102 -0.5417  0.0659
  192MOL    H4227164   4.652   0.910   6.815  2.3609  0.1021  0.1910
  192MOL    H4327165   4.748   1.057   6.812  0.6858 -1.8259  0.5436
  192MOL    C4427166   4.491   1.278   7.011  0.7710  0.7122  0.9717
  192MOL    C4527167   4.581   1.292   7.135 -0.3962 -0.0164  0.2871
  192MOL    O4627168   4.453   1.401   6.962  0.9610  0.1410 -0.0982
  192MOL    H4727169   4.402   1.221   7.039  0.2565  2.3630  2.9035
  192MOL    H4827170   4.533   1.360   7.207  0.5780 -0.8561  1.7595
  192MOL    H4927171   4.676   1.337   7.109 -1.0882  2.1348  1.3331
  192MOL    H5027172   4.601   1.191   7.170 -0.4351 -0.5072 -1.1131
  192MOL    C5127173   4.347   1.393   6.873 -0.3391 -0.4909  0.6380
  192MOL    C5227174   4.214   1.431   6.945 -0.3244 -0.3627  0.0258
  192MOL    O5327175   4.365   1.473   6.760  0.0149  0.2429 -0.0183
  192MOL    H5427176   4.334   1.292   6.834  0.7224  0.3412 -2.0314
  192MOL    H5527177   4.200   1.354   7.022 -0.2850 -0.6796 -0.2810
  192MOL    H5627178   4.125   1.443   6.883 -1.3200 -0.0414  1.5015
  192MOL    H5727179   4.232   1.524   6.998 -1.5459  0.4558 -0.9648
  192MOL    C5827180   4.487   1.453   6.693 -0.5597  0.6012 -0.0219
  192MOL    C5927181   4.457   1.350   6.581 -0.0234 -0.2589 -0.0402
  192MOL    O6027182   4.536   1.571   6.644 -0.1676  0.2534  0.0885
  192MOL    H6127183   4.569   1.416   6.755 -0.5892 -2.3516 -1.6287
  192MOL    H6227184   4.541   1.343   6.511  1.0508  1.2016  1.0657
  192MOL    H6327185   4.376   1.389   6.519  1.3113  2.4274 -0.1798
  192MOL    H6427186   4.433   1.253   6.624 -2.6489 -0.1549 -1.1917
  192MOL    C6527187   4.602   1.656   6.735 -0.5662  0.3099 -0.5769
  192MOL    C6627188   4.746   1.672   6.675  0.3966 -1.4234 -0.5631
  192MOL    O6727189   4.552   1.788   6.744 -0.3975 -0.1383 -0.1803
  192MOL    H6827190   4.604   1.615   6.837 -0.2410  3.0892  0.5818
  192MOL    H6927191   4.803   1.744   6.734  1.8395 -1.7154 -1.5568
  192MOL    H7027192   4.729   1.695   6.570 -0.1623  0.1134 -0.1424
  192MOL    H7127193   4.784   1.569   6.680  1.5916 -0.9081  1.8365
  192MOL    C7227194   4.419   1.797   6.802 -0.2735 -0.3277  0.7945
  192MOL    C7327195   4.447   1.858   6.943  0.1576 -0.1729  0.2311
  192MOL    O7427196   4.337   1.882   6.722 -0.7596  0.4637  0.3419
  192MOL    H7527197   4.373   1.698   6.804 -2.3138  0.5483 -0.7922
  192MOL    H7627198   4.546   1.829   6.979  1.5004  0.4289 -2.7798
  192MOL    H7727199   4.368   1.825   7.010 -1.1157  0.9732 -0.6700
  192MOL    H7827200   4.443   1.966   6.935  0.0253 -0.0734  1.5455
  192MOL    C7927201   4.284   1.806   6.613 -0.4126  0.2141  0.1376
  192MOL    C8027202   4.134   1.806   6.625  0.0844 -0.4493 -0.1343
  192MOL    O8127203   4.305   1.878   6.506 -0.2887 -0.1609  0.6373
  192MOL    H8227204   4.319   1.703   6.612 -0.5145  0.1808 -0.0480
  192MOL    H8327205   4.092   1.905   6.643 -0.3331 -0.2407 -2.0864
  192MOL    H8427206   4.099   1.747   6.709  0.2246  0.7903  0.8148
  192MOL    H8527207   4.080   1.779   6.534 -0.1737 -0.1463 -0.0717
  192MOL    C8627208   4.415   1.842   6.431  0.1421  0.8882 -0.0700
  192MOL    C8727209   4.366   1.749   6.314  0.6687  0.1610  0.0028
  192MOL    O8827210   4.490   1.948   6.383  0.1818 -0.2187  0.4776
  192MOL    H8927211   4.490   1.787   6.487 -0.8091 -0.6319 -0.2358
  192MOL    H9027212   4.314   1.662   6.352  2.5478 -1.5636 -1.2749
  192MOL    H9127213   4.458   1.712   6.268  1.3839  1.9336 -0.0556
  192MOL    H9227214   4.312   1.798   6.233  2.2439  0.1609 -1.0666
  192MOL    C9327215   4.554   2.027   6.480  0.1316  0.1150 -0.0064
  192MOL    C9427216   4.705   2.018   6.467  0.2007  0.5080 -0.0831
  192MOL    O9527217   4.529   2.164   6.451  0.1289  0.3955  0.8435
  192MOL    H9627218   4.518   1.996   6.578  1.7934 -1.4063  0.1528
  192MOL    H9727219   4.754   2.082   6.539  1.5924  1.8478 -2.1694
  192MOL    H9827220   4.746   2.055   6.373 -1.0921 -0.9088 -1.2440
  192MOL    H9927221   4.735   1.914   6.482 -2.0129  0.1707  2.3658
  192MOL   C10027222   4.403   2.203   6.446  0.8963  0.1809 -0.0816
  192MOL   C10127223   4.369   2.265   6.584  0.2751  0.0602 -0.2942
  192MOL   O10227224   4.386   2.309   6.355 -0.6148 -0.1802  0.1078
  192MOL   H10327225   4.333   2.123   6.424  1.6412 -1.0156  1.7104
  192MOL   H10427226   4.262   2.288   6.591  0.2343 -0.1621 -0.1731
  192MOL   H10527227   4.434   2.352   6.592  2.4916 -1.5190 -0.8691
  192MOL   H10627228   4.386   2.193   6.663 -0.5443  1.9039  1.6157
  192MOL   C10727229   4.401   2.261   6.225  0.1879 -0.1658  0.1016
  192MOL   C10827230   4.260   2.252   6.162 -0.1859 -0.8578 -0.4751
  192MOL   O10927231   4.482   2.359   6.154 -0.2896 -0.1558  0.3005
  192MOL   H11027232   4.443   2.160   6.228 -1.8507 -1.0384 -0.0416
  192MOL   H11127233   4.265   2.242   6.054  0.2397 -3.5309 -0.2324
  192MOL   H11227234   4.198   2.336   6.193  1.0041  0.4816 -1.6901
  192MOL   H11327235   4.214   2.163   6.205  1.2282 -1.5565 -0.3739
  192MOL   C11427236   4.616   2.337   6.167 -0.0458  0.2890 -1.3794
  192MOL   C11527237   4.666   2.282   6.034  0.2182 -0.1506  0.2845
  192MOL   O11627238   4.673   2.464   6.175 -0.2030  0.1902 -0.0304
  192MOL   H11727239   4.641   2.283   6.258  0.5017  3.0544  0.1897
  192MOL   H11827240   4.773   2.261   6.040  0.2535 -1.4023 -3.4253
  192MOL   H11927241   4.649   2.367   5.969  2.4914  0.5879  0.6130
  192MOL   H12027242   4.598   2.200   6.011 -0.4435  1.4955 -4.1040
  192MOL   C12127243   4.656   2.523   6.303 -0.7442 -0.0873 -0.2845
  192MOL   C12227244   4.779   2.492   6.383 -0.0953 -0.1420 -0.7178
  192MOL   O12327245   4.654   2.664   6.287 -0.1607 -0.1021 -0.4804
  192MOL   H12427246   4.562   2.490   6.348  0.2151  0.9332  2.5790
  192MOL   H12527247   4.873   2.520   6.336 -1.4868  0.7517 -3.0477
  192MOL   H12627248   4.781   2.393   6.429 -0.3801  0.7702  1.3116
  192MOL   H12727249   4.785   2.559   6.469  1.1281 -0.0457 -0.8612
  192MOL   C12827250   4.531   2.713   6.244 -0.2982  0.8593  0.3897
  192MOL   C12927251   4.501   2.821   6.351  1.1040 -0.1724  0.2113
  192MOL   O13027252   4.544   2.785   6.123 -0.2996  0.2539  0.3267
  192MOL   H13127253   4.466   2.626   6.244  0.3509  0.3713  0.0874
  192MOL   H13227254   4.583   2.891   6.364  1.0853  0.0294 -0.7121
  192MOL   H13327255   4.486   2.764   6.443  2.8576 -1.6033 -0.3699
  192MOL   H13427256   4.407   2.865   6.318 -0.4138 -1.9430  2.0058
  192MOL   C13527257   4.536   2.708   6.010 -0.0326  0.6173  0.0961
  192MOL   C13627258   4.505   2.793   5.895 -0.1990 -0.3561 -0.0939
  192MOL   O13727259   4.661   2.650   5.983  0.0157 -0.5464  0.3344
  192MOL   H13827260   4.460   2.630   6.018 -1.1739  1.9094  2.2481
  192MOL   H13927261   4.576   2.876   5.897  1.0106 -1.3849  1.6612
  192MOL   H14027262   4.400   2.821   5.907  0.1965  0.7131  0.9615
  192MOL   H14127263   4.516   2.735   5.803 -4.0838 -4.5147  1.9057
  192MOL   H14227264   4.675   2.577   6.041 -0.9249 -0.7735  0.2904
  193MOL     C127265   5.236   3.977   0.967 -0.4196  0.7673  0.2701
  193MOL     C227266   5.156   3.877   1.046 -0.3148  0.0876 -0.0950
  193MOL     O327267   5.160   4.066   0.890  0.1386 -0.2523  0.4585
  193MOL     H427268   5.309   3.926   0.903  0.3926 -1.3489  2.8062
  193MOL     H527269   5.107   3.928   1.129  1.7417  0.7968  0.7081
  193MOL     H627270   5.221   3.801   1.088  0.0232  0.1726 -0.4593
  193MOL     H727271   5.071   3.841   0.988 -1.0769  2.2475 -0.3415
  193MOL     H827272   5.293   4.032   1.042 -1.2950 -0.4678  1.8785
  193MOL     C927273   5.110   4.181   0.952 -0.0528 -0.2679  0.7628
  193MOL    C1027274   5.206   4.297   0.936 -0.3434  0.4819  0.0716
  193MOL    O1127275   4.997   4.230   0.886  0.0439 -0.0919 -0.5482
  193MOL    H1227276   5.090   4.155   1.057 -0.6347  0.6364  0.8828
  193MOL    H1327277   5.154   4.387   0.969 -2.0593 -0.3924 -0.1896
  193MOL    H1427278   5.245   4.300   0.834 -0.9249  0.5159 -0.1503
  193MOL    H1527279   5.292   4.280   1.001 -0.0461  0.4394 -0.3282
  193MOL    C1627280   4.892   4.137   0.884  0.0635  0.4050 -0.0305
  193MOL    C1727281   4.806   4.166   1.006 -0.1953 -0.2615 -0.5639
  193MOL    O1827282   4.815   4.164   0.774 -0.1267 -0.0753 -0.0526
  193MOL    H1927283   4.935   4.038   0.873  0.2610  0.6086 -1.1027
  193MOL    H2027284   4.803   4.273   1.023  0.3968 -0.5084  1.2110
  193MOL    H2127285   4.851   4.118   1.093  0.5148  0.5373 -0.4837
  193MOL    H2227286   4.703   4.136   0.991 -0.2149 -0.2331 -0.4796
  193MOL    C2327287   4.875   4.139   0.651 -0.1417  0.8292  0.2902
  193MOL    C2427288   4.814   4.007   0.602  0.5435 -1.0046  0.1861
  193MOL    O2527289   4.829   4.237   0.567  0.3116 -0.0158 -0.0881
  193MOL    H2627290   4.984   4.134   0.648 -0.1771 -0.9836  1.2690
  193MOL    H2727291   4.707   4.022   0.585  0.4900  0.3689  1.6615
  193MOL    H2827292   4.818   3.920   0.666  1.7481 -2.6810 -2.1002
  193MOL    H2927293   4.851   3.983   0.502 -0.9762  0.8392 -0.8525
  193MOL    C3027294   4.886   4.360   0.591  0.3558  0.1751  0.3993
  193MOL    C3127295   4.983   4.385   0.472  0.3580  0.7057  0.1180
  193MOL    O3227296   4.787   4.457   0.594 -0.1592 -0.0019 -0.2601
  193MOL    H3327297   4.949   4.359   0.680  3.6950  2.0087 -1.8245
  193MOL    H3427298   5.043   4.470   0.505 -0.5334  0.6143  2.0668
  193MOL    H3527299   4.933   4.408   0.378  1.5965  0.1723 -0.6791
  193MOL    H3627300   5.045   4.296   0.455 -1.3982 -0.1638 -1.8830
  193MOL    C3727301   4.720   4.469   0.714 -0.4159 -0.3044  0.0686
  193MOL    C3827302   4.754   4.605   0.782  0.2575  0.1743  0.8732
  193MOL    O3927303   4.583   4.467   0.698  0.1232 -0.1921  0.3812
  193MOL    H4027304   4.756   4.390   0.781  0.0486  0.7694  1.1086
  193MOL    H4127305   4.861   4.627   0.777  1.2788 -4.4819  0.0160
  193MOL    H4227306   4.725   4.605   0.887  0.3051 -3.2611  0.9401
  193MOL    H4327307   4.696   4.673   0.720  2.5393  0.2458 -1.2639
  193MOL    C4427308   4.534   4.340   0.691  0.2388  0.2781  0.1219
  193MOL    C4527309   4.476   4.304   0.825  0.0305 -1.0970 -0.2738
  193MOL    O4627310   4.421   4.341   0.607  0.2858  0.2308 -1.0105
  193MOL    H4727311   4.608   4.270   0.652  1.1509  1.0696  0.4078
  193MOL    H4827312   4.555   4.297   0.899 -0.4953 -2.2302  0.1955
  193MOL    H4927313   4.436   4.204   0.808 -2.0437 -0.0664 -1.6650
  193MOL    H5027314   4.398   4.372   0.860  1.1608  0.0855 -0.0396
  193MOL    C5127315   4.447   4.362   0.477 -0.4069  0.3559 -0.2188
  193MOL    C5227316   4.456   4.217   0.412 -0.0652 -0.5037  0.3288
  193MOL    O5327317   4.336   4.429   0.425  0.6484  0.0321 -0.0833
  193MOL    H5427318   4.539   4.418   0.462 -0.0625  0.5476  2.3900
  193MOL    H5527319   4.357   4.170   0.413  0.4929 -1.6814  1.3267
  193MOL    H5627320   4.532   4.163   0.469  3.0731  1.2265 -2.0794
  193MOL    H5727321   4.483   4.237   0.308 -0.6692  0.7533  0.4059
  193MOL    C5827322   4.324   4.563   0.460 -0.3867 -0.5552  0.9634
  193MOL    C5927323   4.354   4.641   0.329  0.1928 -0.5037  0.4894
  193MOL    O6027324   4.198   4.593   0.509 -0.6315 -0.3751  0.4391
  193MOL    H6127325   4.395   4.602   0.533 -0.9399 -0.1060  1.2602
  193MOL    H6227326   4.455   4.617   0.295  0.9346  1.0976  1.4620
  193MOL    H6327327   4.347   4.749   0.347  1.6695 -0.5737  1.5582
  193MOL    H6427328   4.276   4.604   0.262  0.9309  1.3217 -1.4390
  193MOL    C6527329   4.150   4.502   0.606  0.1330  0.1279 -0.2992
  193MOL    C6627330   4.140   4.583   0.737 -0.0633  0.3220  0.0591
  193MOL    O6727331   4.018   4.462   0.575  0.0261 -0.0729 -0.4766
  193MOL    H6827332   4.199   4.405   0.607 -0.7159 -0.3091 -0.6260
  193MOL    H6927333   4.244   4.608   0.756  0.2402  0.0153 -1.1645
  193MOL    H7027334   4.109   4.512   0.814  0.6161  0.3851  0.3990
  193MOL    H7127335   4.088   4.678   0.727  1.5701  1.1935 -0.3522
  193MOL    C7227336   4.003   4.400   0.454 -0.0600  0.3124  0.1032
  193MOL    C7327337   3.951   4.260   0.490 -0.0703 -0.0617 -0.2937
  193MOL    O7427338   3.898   4.459   0.382 -0.3894 -0.1866  0.6384
  193MOL    H7527339   4.092   4.386   0.393  0.5235  1.3908  0.6892
  193MOL    H7627340   4.019   4.193   0.543  0.8683  2.1655  1.3832
  193MOL    H7727341   3.929   4.201   0.401 -2.1463  1.7063 -0.9975
  193MOL    H7827342   3.858   4.265   0.547  1.3052  0.9491  1.9601
  193MOL    C7927343   3.938   4.567   0.307  0.3181  0.2529 -0.8389
  193MOL    C8027344   3.934   4.521   0.158  0.2932  0.2119 -0.1552
  193MOL    O8127345   3.847   4.674   0.319 -0.1547  0.6429 -0.2682
  193MOL    H8227346   4.039   4.603   0.325  0.4012 -0.3392 -0.0976
  193MOL    H8327347   3.854   4.448   0.142  0.5848  0.0524 -0.9105
  193MOL    H8427348   4.029   4.479   0.123 -0.0062 -1.3840  0.8841
  193MOL    H8527349   3.911   4.601   0.088 -0.4172  0.4974  0.4086
  193MOL    C8627350   3.857   4.738   0.441 -0.2181  0.1103 -0.1338
  193MOL    C8727351   3.916   4.869   0.412  0.0293  0.4583 -0.0060
  193MOL    O8827352   3.732   4.752   0.486 -0.0870 -0.0423 -0.4765
  193MOL    H8927353   3.917   4.690   0.517  2.0224  1.0271 -1.2845
  193MOL    H9027354   3.900   4.939   0.494  0.6314 -1.7677  2.0521
  193MOL    H9127355   3.872   4.917   0.324  1.9625  1.0366 -0.6807
  193MOL    H9227356   4.024   4.857   0.406 -0.2236 -2.9472  1.4760
  193MOL    C9327357   3.662   4.630   0.518  0.1894  0.6266 -0.0541
  193MOL    C9427358   3.697   4.583   0.660 -0.0058  0.3266  0.4952
  193MOL    O9527359   3.525   4.648   0.497  0.2882 -0.1916 -0.1891
  193MOL    H9627360   3.691   4.546   0.455  1.8692  1.4925 -0.4482
  193MOL    H9727361   3.802   4.553   0.671  0.0113  0.1070 -0.1826
  193MOL    H9827362   3.638   4.495   0.687 -0.9371  0.4119 -1.1758
  193MOL    H9927363   3.669   4.666   0.724 -0.0464  0.7469 -0.0587
  193MOL   C10027364   3.490   4.676   0.366  0.4508  0.7712 -0.2616
  193MOL   C10127365   3.429   4.552   0.302  0.2091 -0.3094  0.0407
  193MOL   O10227366   3.387   4.765   0.371  0.1068  0.3820  0.2105
  193MOL   H10327367   3.569   4.696   0.293  2.4488 -0.4160  1.5199
  193MOL   H10427368   3.451   4.551   0.195 -1.3502  0.2250 -0.3085
  193MOL   H10527369   3.322   4.543   0.320  0.0118  0.6989 -0.5687
  193MOL   H10627370   3.472   4.465   0.352  2.9066  1.7769  1.4802
  193MOL   C10727371   3.422   4.891   0.403 -0.5920  0.0387 -0.6647
  193MOL   C10827372   3.387   4.980   0.277 -0.0995  0.2794  0.3381
  193MOL   O10927373   3.344   4.934   0.503 -0.1815  0.2744 -0.1437
  193MOL   H11027374   3.528   4.908   0.419 -1.1602  3.1897  0.0319
  193MOL   H11127375   3.470   4.968   0.208 -0.7011  0.4339 -0.4120
  193MOL   H11227376   3.368   5.084   0.304  0.4888 -0.2951  3.1845
  193MOL   H11327377   3.296   4.950   0.227 -1.5369  2.0383  1.8091
  193MOL   C11427378   3.357   4.874   0.629 -0.0914  0.2651  0.0017
  193MOL   C11527379   3.485   4.927   0.704 -0.7294  0.1089 -0.3485
  193MOL   O11627380   3.246   4.916   0.707 -0.3699  0.0631 -0.2663
  193MOL   H11727381   3.358   4.765   0.632  1.5066  0.2836  2.6521
  193MOL   H11827382   3.573   4.894   0.649  0.0880  0.3242  0.8081
  193MOL   H11927383   3.500   4.870   0.796  4.5104 -1.2274 -1.8835
  193MOL   H12027384   3.492   5.036   0.712  1.6668 -0.0865  0.5106
  193MOL   C12127385   3.121   4.859   0.659 -0.4124 -0.2068 -0.3775
  193MOL   C12227386   3.083   4.746   0.758 -0.0659  0.3009 -1.0009
  193MOL   O12327387   3.017   4.957   0.680 -0.4485 -0.4617  0.5722
  193MOL   H12427388   3.128   4.828   0.554  1.4243  0.2257 -0.4049
  193MOL   H12527389   3.075   4.783   0.860 -0.7624  3.6785 -2.2295
  193MOL   H12627390   3.143   4.655   0.751 -0.7530 -0.1734 -0.7461
  193MOL   H12727391   2.978   4.722   0.744  0.1640 -2.8094  1.9029
  193MOL   C12827392   3.028   5.074   0.600 -0.2217 -0.1565 -0.6455
  193MOL   C12927393   2.981   5.030   0.459 -0.1328 -0.4358 -0.2609
  193MOL   O13027394   2.939   5.167   0.656  0.4039  0.2207  0.4075
  193MOL   H13127395   3.127   5.119   0.591  0.1239 -0.4320  1.4647
  193MOL   H13227396   3.059   4.971   0.411  1.5003 -0.6391  2.5397
  193MOL   H13327397   2.961   5.119   0.398  1.9569  0.5654  0.4653
  193MOL   H13427398   2.881   4.985   0.459 -0.1047 -0.5405 -2.1689
  193MOL   C13527399   2.992   5.253   0.753 -0.5361  0.7511  0.3310
  193MOL   C13627400   3.040   5.387   0.678  0.3840  0.5514  0.8718
  193MOL   O13727401   2.905   5.291   0.850 -0.2472  0.6601  0.4831
  193MOL   H13827402   3.068   5.202   0.812  1.1239  1.5142 -1.0807
  193MOL   H13927403   3.090   5.458   0.744  2.6116 -0.3097  0.1580
  193MOL   H14027404   2.958   5.443   0.633  0.4130  1.2512  1.6856
  193MOL   H14127405   3.102   5.354   0.595 -0.5723 -0.5903  0.5921
  193MOL   H14227406   2.958   5.333   0.917 -1.4664 -0.7651  2.4120
  194MOL     C127407   5.435   3.252   4.468 -0.5802 -0.4815 -0.0804
  194MOL     C227408   5.576   3.271   4.508  0.1713  0.0220 -0.0070
  194MOL     O327409   5.391   3.133   4.519  0.1494  0.1099  0.2304
  194MOL     H427410   5.434   3.248   4.359 -0.7319  0.8206 -0.1278
  194MOL     H527411   5.584   3.253   4.615  0.2776  1.7331  0.2822
  194MOL     H627412   5.621   3.365   4.477 -1.1099  0.5543 -0.2754
  194MOL     H727413   5.643   3.190   4.476  0.4901  0.3447 -0.1605
  194MOL     H827414   5.370   3.333   4.499  1.7836  1.2601  0.4854
  194MOL     C927415   5.271   3.085   4.456  0.2255  0.2895  0.5388
  194MOL    C1027416   5.300   2.945   4.416  0.1196  0.1014 -0.3736
  194MOL    O1127417   5.167   3.074   4.553 -0.3379  0.4221  0.3165
  194MOL    H1227418   5.236   3.144   4.372  0.4686  0.4471  0.5468
  194MOL    H1327419   5.371   2.899   4.485  1.4936  3.0948  0.2650
  194MOL    H1427420   5.345   2.941   4.317 -2.0154  1.5356 -1.4290
  194MOL    H1527421   5.207   2.888   4.417  0.0124  0.2720  0.9729
  194MOL    C1627422   5.098   3.192   4.565 -0.1733 -0.5717 -0.1776
  194MOL    C1727423   4.953   3.172   4.513 -0.3032  0.0982  0.5537
  194MOL    O1827424   5.080   3.224   4.704  0.1327  0.1946  0.1506
  194MOL    H1927425   5.145   3.277   4.515  1.6406  0.4518  3.0403
  194MOL    H2027426   4.894   3.130   4.594 -0.8356 -0.0809  0.0737
  194MOL    H2127427   4.948   3.122   4.416 -0.7010  0.2568  0.4927
  194MOL    H2227428   4.921   3.274   4.493 -0.5578 -0.4194 -1.7567
  194MOL    C2327429   5.197   3.261   4.778  0.7446 -0.1810 -0.0356
  194MOL    C2427430   5.182   3.402   4.836 -1.3776 -0.5600 -0.3051
  194MOL    O2527431   5.215   3.185   4.893 -0.6623 -0.3397 -0.2556
  194MOL    H2627432   5.288   3.261   4.717 -0.2195  1.8318 -1.5419
  194MOL    H2727433   5.110   3.407   4.917 -2.6839 -0.0980 -1.4758
  194MOL    H2827434   5.148   3.463   4.753 -2.5826 -3.0875 -1.7213
  194MOL    H2927435   5.275   3.450   4.866 -1.1723 -1.7187  0.9845
  194MOL    C3027436   5.279   3.064   4.864  0.5600  0.0837  0.0393
  194MOL    C3127437   5.419   3.078   4.923  0.2539  0.3626 -0.4860
  194MOL    O3227438   5.216   2.955   4.931  0.0597  0.2921  0.2123
  194MOL    H3327439   5.289   3.031   4.761  0.3479 -1.3504  0.4639
  194MOL    H3427440   5.425   3.099   5.030 -0.4864  0.8949 -0.5505
  194MOL    H3527441   5.478   3.150   4.867 -2.4877  1.2419 -2.3282
  194MOL    H3627442   5.470   2.981   4.918 -1.5336 -0.5832 -0.8467
  194MOL    C3727443   5.090   2.927   4.888  0.5956 -0.2001  0.4290
  194MOL    C3827444   5.089   2.805   4.802  0.1757  0.0497  0.7794
  194MOL    O3927445   4.997   2.906   4.994 -0.5531  0.0303  0.2009
  194MOL    H4027446   5.055   3.016   4.836 -0.1355 -0.6212  0.1860
  194MOL    H4127447   5.155   2.818   4.716 -1.3678  0.7416 -0.3215
  194MOL    H4227448   4.991   2.782   4.761  1.3524 -0.2792 -1.9157
  194MOL    H4327449   5.125   2.720   4.861  1.5648 -0.1351 -0.3055
  194MOL    C4427450   4.987   3.010   5.093 -0.4359  0.9746 -0.2923
  194MOL    C4527451   4.899   3.122   5.036 -0.2714  0.2236 -0.0854
  194MOL    O4627452   4.920   2.968   5.211  0.4451  0.8615  0.1956
  194MOL    H4727453   5.087   3.041   5.121 -0.2580 -0.6061  0.9414
  194MOL    H4827454   4.803   3.076   5.013 -0.4735 -1.7031  4.0096
  194MOL    H4927455   4.931   3.158   4.939 -0.6136 -1.8246 -0.9933
  194MOL    H5027456   4.875   3.203   5.105 -2.5471  0.1745 -0.7802
  194MOL    C5127457   4.996   2.881   5.285  0.7234  0.5720  0.1079
  194MOL    C5227458   5.046   2.961   5.405 -0.4885  0.4245 -0.4366
  194MOL    O5327459   4.925   2.778   5.332 -0.0511  0.7054 -0.4328
  194MOL    H5427460   5.079   2.838   5.230  0.2722 -0.2044  0.0243
  194MOL    H5527461   5.099   3.049   5.368  0.6168  0.5074  1.3381
  194MOL    H5627462   5.108   2.893   5.463 -0.0519  0.9688 -0.2670
  194MOL    H5727463   4.959   2.993   5.463 -1.2629 -1.1377 -0.6983
  194MOL    C5827464   4.903   2.676   5.238  0.1383 -0.2612 -0.2823
  194MOL    C5927465   5.016   2.571   5.262 -0.2595 -0.1378  0.1734
  194MOL    O6027466   4.776   2.612   5.262  0.5498  0.1545 -0.2242
  194MOL    H6127467   4.903   2.712   5.136 -2.0914 -1.4618 -0.7431
  194MOL    H6227468   5.107   2.615   5.222  0.8912 -0.7429  2.0370
  194MOL    H6327469   4.999   2.477   5.210 -1.3755  0.4469 -0.5043
  194MOL    H6427470   5.017   2.544   5.368  1.1300  0.4093  0.3123
  194MOL    C6527471   4.663   2.695   5.248  0.3528 -0.2896  0.2671
  194MOL    C6627472   4.606   2.680   5.106  0.2867  0.5366 -0.8961
  194MOL    O6727473   4.554   2.668   5.338 -0.9797  0.5843 -0.4809
  194MOL    H6827474   4.692   2.800   5.257 -1.7889  0.4532 -1.0348
  194MOL    H6927475   4.686   2.704   5.036 -0.9236  0.4968 -2.3345
  194MOL    H7027476   4.528   2.752   5.080  1.3043  1.3965 -1.6028
  194MOL    H7127477   4.580   2.576   5.082  0.2412  0.7230 -1.6852
  194MOL    C7227478   4.585   2.673   5.473  0.2235 -0.6953 -0.1663
  194MOL    C7327479   4.536   2.807   5.519 -0.0880  0.1730 -0.6311
  194MOL    O7427480   4.520   2.572   5.548  0.4755 -0.0021  0.3198
  194MOL    H7527481   4.690   2.663   5.499  0.3605  0.1581 -0.3655
  194MOL    H7627482   4.573   2.892   5.463 -1.3770  1.1246 -0.0753
  194MOL    H7727483   4.572   2.816   5.621  2.3178  1.7315 -1.5879
  194MOL    H7827484   4.428   2.802   5.532 -0.2371  1.0129 -1.4572
  194MOL    C7927485   4.574   2.447   5.520 -0.6035 -0.1351  0.8150
  194MOL    C8027486   4.658   2.396   5.634 -0.0622 -0.9930  0.2538
  194MOL    O8127487   4.467   2.366   5.484  0.6572 -0.3560  0.0462
  194MOL    H8227488   4.635   2.443   5.430  2.3841 -1.9894  2.8418
  194MOL    H8327489   4.673   2.291   5.609  0.0669 -0.8140 -0.4529
  194MOL    H8427490   4.603   2.401   5.727  3.2413 -1.3573  2.3132
  194MOL    H8527491   4.754   2.447   5.646  0.0789 -1.3032  0.4292
  194MOL    C8627492   4.419   2.373   5.356 -0.5358  0.6896  0.4653
  194MOL    C8727493   4.429   2.231   5.316  0.4074  0.2732  0.0577
  194MOL    O8827494   4.283   2.412   5.354 -0.2918  0.2336 -0.1186
  194MOL    H8927495   4.483   2.435   5.292  1.0141 -0.5152  0.8136
  194MOL    H9027496   4.372   2.174   5.388  0.4940 -0.0786 -0.1542
  194MOL    H9127497   4.535   2.208   5.310  0.3097 -0.0440 -0.5553
  194MOL    H9227498   4.388   2.209   5.217 -0.3669 -1.3227  0.7247
  194MOL    C9327499   4.259   2.550   5.369  0.1919  0.2732 -0.1678
  194MOL    C9427500   4.222   2.603   5.229 -0.1764 -0.2476  0.1197
  194MOL    O9527501   4.148   2.573   5.446 -0.4567  0.1426 -0.0662
  194MOL    H9627502   4.344   2.605   5.411  1.5998 -1.2936 -0.8989
  194MOL    H9727503   4.162   2.533   5.172  2.0184 -1.7149 -0.4654
  194MOL    H9827504   4.315   2.630   5.180  1.6265 -2.5420  2.1339
  194MOL    H9927505   4.165   2.695   5.241 -1.2662 -0.9156  0.1708
  194MOL   C10027506   4.177   2.556   5.588  0.1753  0.4515  0.0290
  194MOL   C10127507   4.147   2.695   5.649  0.2682  0.6058  0.6349
  194MOL   O10227508   4.092   2.470   5.660 -0.6869 -0.0302  0.0404
  194MOL   H10327509   4.280   2.532   5.616 -0.0176 -0.1182  0.2689
  194MOL   H10427510   4.160   2.696   5.757  2.7990  1.0708  0.3413
  194MOL   H10527511   4.042   2.716   5.629  0.4280  2.6143  1.8855
  194MOL   H10627512   4.210   2.772   5.606  1.3677 -1.6109 -1.8633
  194MOL   C10727513   4.133   2.337   5.643  0.1451 -0.5046 -0.2664
  194MOL   C10827514   4.156   2.279   5.785 -0.5906  0.4091  0.7163
  194MOL   O10927515   4.024   2.257   5.599 -0.5372  0.1977 -0.4675
  194MOL   H11027516   4.216   2.324   5.574 -0.9455  0.3447 -1.7774
  194MOL   H11127517   4.147   2.171   5.774  1.8693  0.2895 -0.4770
  194MOL   H11227518   4.088   2.324   5.857 -0.4782  2.4069 -0.3889
  194MOL   H11327519   4.259   2.288   5.821  0.1155 -2.4815 -0.4986
  194MOL   C11427520   4.005   2.257   5.462 -0.5407  0.6122 -0.0127
  194MOL   C11527521   4.023   2.115   5.425 -0.1407 -0.9207  1.1699
  194MOL   O11627522   3.876   2.287   5.421 -0.2413 -0.1372 -0.1060
  194MOL   H11727523   4.075   2.322   5.409 -0.7699 -0.4594 -1.6619
  194MOL   H11827524   3.961   2.055   5.491  1.6574 -0.0040  3.7577
  194MOL   H11927525   4.126   2.081   5.438  0.1388 -1.0713 -1.2222
  194MOL   H12027526   3.986   2.099   5.324  2.0515 -0.1248  0.2176
  194MOL   C12127527   3.851   2.428   5.430 -1.1931 -0.1126 -0.0301
  194MOL   C12227528   3.850   2.478   5.284  0.6548 -0.3529 -0.0904
  194MOL   O12327529   3.727   2.454   5.483  0.2519 -0.0417 -0.1210
  194MOL   H12427530   3.928   2.487   5.480 -1.3794  1.1355 -1.1809
  194MOL   H12527531   3.822   2.584   5.287 -0.5429 -0.4495 -4.4675
  194MOL   H12627532   3.769   2.425   5.234  0.4307 -1.7685  1.7181
  194MOL   H12727533   3.947   2.463   5.239  0.7985 -0.1380  0.1458
  194MOL   C12827534   3.713   2.448   5.619 -0.3610 -0.3340 -0.4583
  194MOL   C12927535   3.661   2.589   5.666 -0.2317  0.1237  0.0285
  194MOL   O13027536   3.613   2.356   5.659  0.8014 -0.2428 -0.5278
  194MOL   H13127537   3.803   2.423   5.675  0.0087 -2.0026 -1.7709
  194MOL   H13227538   3.740   2.659   5.637 -0.2101  0.3498  0.6224
  194MOL   H13327539   3.625   2.588   5.769  0.3950 -0.9082  0.2421
  194MOL   H13427540   3.576   2.615   5.602  0.2904 -0.4910 -0.9103
  194MOL   C13527541   3.645   2.219   5.643 -0.0700 -0.3636 -0.1148
  194MOL   C13627542   3.538   2.128   5.712 -0.0621  0.6384  0.3278
  194MOL   O13727543   3.651   2.179   5.509  0.5054  0.2857 -0.1855
  194MOL   H13827544   3.744   2.205   5.686  1.3225  2.6765 -2.1407
  194MOL   H13927545   3.553   2.020   5.701 -2.0752  0.5853 -2.3484
  194MOL   H14027546   3.442   2.152   5.667  0.8105 -0.0666 -1.9770
  194MOL   H14127547   3.525   2.160   5.815  1.4358 -1.1712  1.1103
  194MOL   H14227548   3.731   2.212   5.472  0.1591  1.2213 -0.1368
  195MOL     C127549   5.084   5.557   5.227 -0.9702  0.7763  1.1180
  195MOL     C227550   5.086   5.681   5.141  0.7697  0.4874  0.6000
  195MOL     O327551   5.060   5.454   5.140  0.5998 -0.4291 -0.3119
  195MOL     H427552   5.004   5.550   5.301 -0.0008 -1.3486  2.0107
  195MOL     H527553   4.992   5.706   5.091 -0.1548 -2.2052  0.9379
  195MOL     H627554   5.166   5.682   5.067 -0.3057  0.8318 -0.5975
  195MOL     H727555   5.099   5.761   5.213 -0.9236  0.5546  0.8649
  195MOL     H827556   5.182   5.546   5.273 -0.8083 -0.3848  0.5135
  195MOL     C927557   5.072   5.329   5.195 -0.2309 -0.0833 -0.8759
  195MOL    C1027558   5.027   5.230   5.087 -0.8478  0.0462  0.3666
  195MOL    O1127559   5.204   5.303   5.222 -0.1584  0.4482  0.1600
  195MOL    H1227560   5.006   5.315   5.281  1.5980 -3.5447  0.0454
  195MOL    H1327561   5.039   5.131   5.132 -0.9383 -0.3288 -0.4324
  195MOL    H1427562   5.088   5.244   4.998  0.2085  1.3898  1.2766
  195MOL    H1527563   4.924   5.243   5.054 -0.0345  3.0705 -1.2174
  195MOL    C1627564   5.216   5.235   5.345  0.0384 -0.1504  0.2950
  195MOL    C1727565   5.360   5.185   5.373 -0.7665  0.1429  0.4503
  195MOL    O1827566   5.176   5.320   5.453 -0.3092 -0.2958  0.4630
  195MOL    H1927567   5.158   5.145   5.326  1.4372 -1.1993  0.8917
  195MOL    H2027568   5.351   5.094   5.433  1.9637 -0.4632  0.0390
  195MOL    H2127569   5.412   5.259   5.433 -0.5236 -0.7460  1.3709
  195MOL    H2227570   5.414   5.165   5.280 -1.0711  2.0740 -0.1493
  195MOL    C2327571   5.096   5.250   5.544  0.1541  0.2142  1.0591
  195MOL    C2427572   5.104   5.322   5.675  0.6271 -0.1636  0.0932
  195MOL    O2527573   4.958   5.235   5.502 -0.8470 -0.0610 -0.1104
  195MOL    H2627574   5.148   5.157   5.563 -0.5205 -0.9070 -2.2969
  195MOL    H2727575   5.044   5.275   5.753  1.0661 -0.1135  0.4678
  195MOL    H2827576   5.057   5.419   5.660  0.2412 -0.3960 -0.1950
  195MOL    H2927577   5.210   5.318   5.703  0.8593  1.5780 -0.4849
  195MOL    C3027578   4.903   5.107   5.499 -0.4402  0.1988 -0.2215
  195MOL    C3127579   4.754   5.123   5.437  0.3605  0.8261 -0.0140
  195MOL    O3227580   4.968   5.020   5.412  0.3534 -0.0723 -0.5282
  195MOL    H3327581   4.920   5.078   5.602  2.5052  1.8890 -0.1732
  195MOL    H3427582   4.709   5.024   5.435 -0.9791  1.4134  0.5851
  195MOL    H3527583   4.753   5.166   5.337  1.1435  0.2073 -0.2935
  195MOL    H3627584   4.691   5.184   5.502  0.4112  1.6896 -0.7612
  195MOL    C3727585   4.973   4.895   5.464 -0.2289  0.1502  0.5348
  195MOL    C3827586   4.972   4.799   5.337 -0.9975  0.9282 -0.2068
  195MOL    O3927587   5.092   4.868   5.536  0.2587  0.4158  0.8644
  195MOL    H4027588   4.888   4.876   5.529 -2.3890  2.2845 -1.5601
  195MOL    H4127589   5.070   4.788   5.292 -1.2002 -1.0923 -0.1844
  195MOL    H4227590   4.902   4.834   5.261 -2.3915  1.1752  1.1601
  195MOL    H4327591   4.946   4.697   5.363 -0.2332  0.9070  0.4929
  195MOL    C4427592   5.070   4.822   5.670  0.5428 -0.2582  0.3872
  195MOL    C4527593   5.205   4.776   5.725 -0.4699  0.0152  0.1472
  195MOL    O4627594   5.038   4.932   5.746  0.4394  0.2112 -0.0617
  195MOL    H4727595   4.990   4.749   5.667 -1.1926  1.6662 -2.5036
  195MOL    H4827596   5.283   4.848   5.701  0.6298 -0.2176  2.8601
  195MOL    H4927597   5.231   4.683   5.675  1.2105  0.3240  0.3889
  195MOL    H5027598   5.204   4.765   5.833 -0.1197 -0.7273  0.0798
  195MOL    C5127599   4.958   4.901   5.850 -0.3720  0.0305  0.2952
  195MOL    C5227600   4.959   5.028   5.932 -0.0289  0.2301  0.3222
  195MOL    O5327601   4.826   4.882   5.805 -0.3462  0.1753 -0.4706
  195MOL    H5427602   5.006   4.823   5.910 -0.3659  0.8173  1.3335
  195MOL    H5527603   4.895   5.103   5.885 -1.6084 -0.9576  0.5465
  195MOL    H5627604   5.061   5.065   5.946 -1.0995  1.8298  4.6055
  195MOL    H5727605   4.928   5.001   6.033 -0.4605 -1.2134 -0.1891
  195MOL    C5827606   4.773   4.767   5.865 -0.5560  0.3556 -0.4498
  195MOL    C5927607   4.626   4.773   5.876  0.3681 -0.0553 -0.0160
  195MOL    O6027608   4.800   4.649   5.783  0.3768  0.7871 -0.0286
  195MOL    H6127609   4.809   4.751   5.966 -0.4169 -2.1314 -0.8468
  195MOL    H6227610   4.581   4.788   5.778  1.6151 -1.1859 -0.7811
  195MOL    H6327611   4.587   4.849   5.943 -3.2542  0.1039 -2.1671
  195MOL    H6427612   4.600   4.675   5.918 -0.6248  0.4829  0.6523
  195MOL    C6527613   4.831   4.540   5.864 -0.1553  1.0471 -0.3610
  195MOL    C6627614   4.852   4.427   5.774 -0.2357 -0.0565 -0.3805
  195MOL    O6727615   4.947   4.569   5.934  0.3320  0.3543  0.2568
  195MOL    H6827616   4.740   4.520   5.922  0.0298 -0.0836 -0.4501
  195MOL    H6927617   4.837   4.336   5.832  1.8251  0.1194  0.4846
  195MOL    H7027618   4.955   4.429   5.737  1.1735 -1.5918  3.1397
  195MOL    H7127619   4.778   4.423   5.694 -2.1003 -0.7508  1.3454
  195MOL    C7227620   4.991   4.480   6.028 -0.4147  0.4068 -0.4113
  195MOL    C7327621   5.122   4.541   6.082 -0.6973  0.5836  0.2024
  195MOL    O7427622   4.904   4.487   6.134 -0.1445 -0.2709 -0.3831
  195MOL    H7527623   5.000   4.379   5.989  0.7162  0.4672 -0.3348
  195MOL    H7627624   5.159   4.479   6.163 -1.5049 -2.0651 -1.3868
  195MOL    H7727625   5.104   4.642   6.120 -2.4608  0.3733 -0.0685
  195MOL    H7827626   5.193   4.557   6.000 -0.7382  0.6139  0.1725
  195MOL    C7927627   4.906   4.382   6.222  0.0143  0.4644 -0.7062
  195MOL    C8027628   4.841   4.423   6.353 -0.6512 -0.0687  0.3954
  195MOL    O8127629   4.840   4.273   6.167 -0.0904 -0.5702  0.0945
  195MOL    H8227630   5.007   4.346   6.240 -0.0389  1.3017  1.5310
  195MOL    H8327631   4.857   4.346   6.429 -2.3948 -0.2686  0.5900
  195MOL    H8427632   4.737   4.446   6.330 -0.6904 -0.2407  0.3980
  195MOL    H8527633   4.879   4.515   6.396  0.8445 -0.8888  0.8526
  195MOL    C8627634   4.899   4.148   6.195  0.0469 -0.2814  0.1208
  195MOL    C8727635   4.818   4.040   6.136  0.3654 -0.6782 -0.2807
  195MOL    O8827636   5.019   4.119   6.133 -0.2475  0.0349 -0.1980
  195MOL    H8927637   4.900   4.144   6.303 -1.9202 -0.7936  0.1238
  195MOL    H9027638   4.824   4.047   6.027  1.3426 -0.6668 -0.2254
  195MOL    H9127639   4.716   4.064   6.168  0.5745 -2.1052  1.4895
  195MOL    H9227640   4.845   3.946   6.184  2.2598 -0.0792 -0.1398
  195MOL    C9327641   5.115   4.068   6.214  0.4109 -0.1223 -0.1757
  195MOL    C9427642   5.230   4.035   6.129 -0.0794 -0.1920 -0.5371
  195MOL    O9527643   5.155   4.164   6.311  0.1080 -0.1641 -0.1589
  195MOL    H9627644   5.068   3.980   6.258  1.4688  0.9314  3.2751
  195MOL    H9727645   5.259   4.126   6.076 -4.1503  1.7779  0.4847
  195MOL    H9827646   5.195   3.971   6.048  1.0464 -1.5244 -0.0078
  195MOL    H9927647   5.304   3.979   6.188 -1.6645 -1.6977  0.0729
  195MOL   C10027648   5.183   4.113   6.436  0.6595  0.0845 -0.4271
  195MOL   C10127649   5.227   4.231   6.530 -0.1932  0.2700 -0.8301
  195MOL   O10227650   5.072   4.054   6.495  0.4533 -0.0280  0.1776
  195MOL   H10327651   5.262   4.041   6.413  1.8574  0.8647  1.1741
  195MOL   H10427652   5.296   4.280   6.462  1.1068 -0.7164 -0.2355
  195MOL   H10527653   5.275   4.185   6.616 -1.1405  1.7830  0.5679
  195MOL   H10627654   5.146   4.301   6.554 -0.4707  0.6619 -2.8676
  195MOL   C10727655   5.106   3.953   6.589  0.5916  0.3421 -0.3875
  195MOL   C10827656   4.995   3.901   6.677  1.1621 -0.1096 -0.0752
  195MOL   O10927657   5.148   3.847   6.516  0.3311  0.1014  0.1929
  195MOL   H11027658   5.179   3.985   6.663  0.4783  1.5169 -0.7678
  195MOL   H11127659   4.956   3.978   6.742  0.1468  0.3010 -1.1672
  195MOL   H11227660   5.025   3.812   6.734  3.2282  1.2443  0.9990
  195MOL   H11327661   4.908   3.872   6.618 -0.3235 -0.6754  2.3230
  195MOL   C11427662   5.274   3.795   6.565  0.1382  0.0146  0.2921
  195MOL   C11527663   5.313   3.674   6.485 -0.1109  0.0664  0.0194
  195MOL   O11627664   5.368   3.891   6.562 -0.2107  0.1733  0.1766
  195MOL   H11727665   5.258   3.766   6.669  2.9034 -0.2338  0.6773
  195MOL   H11827666   5.334   3.711   6.385  1.5193  0.9255  0.6634
  195MOL   H11927667   5.231   3.605   6.470 -0.5226  0.9406 -1.8095
  195MOL   H12027668   5.404   3.630   6.528  1.2752  2.3357 -0.5086
  195MOL   C12127669   5.451   3.885   6.677 -1.0755 -0.0668 -0.0101
  195MOL   C12227670   5.587   3.948   6.630  0.6736  0.1220  0.1542
  195MOL   O12327671   5.397   3.981   6.764  0.2556 -0.2124  0.1760
  195MOL   H12427672   5.466   3.788   6.724  0.1154  0.6074  1.0295
  195MOL   H12527673   5.560   4.044   6.587  0.0454 -0.3179 -0.4523
  195MOL   H12627674   5.627   3.883   6.551 -0.0260 -0.6495  0.4219
  195MOL   H12727675   5.656   3.962   6.712  0.0546  0.9309  0.5442
  195MOL   C12827676   5.378   3.941   6.895  0.2937  0.3120 -0.2779
  195MOL   C12927677   5.328   4.058   6.970 -0.2647  0.0107  0.0617
  195MOL   O13027678   5.280   3.845   6.903 -0.4109  0.5699  0.4413
  195MOL   H13127679   5.468   3.908   6.946 -0.5829  0.2862  1.2806
  195MOL   H13227680   5.222   4.076   6.953 -0.3251 -0.4266 -0.0345
  195MOL   H13327681   5.373   4.149   6.931  1.9432 -1.2662 -0.4801
  195MOL   H13427682   5.340   4.043   7.077  1.9079 -1.2315 -0.3130
  195MOL   C13527683   5.287   3.752   7.009  0.1553  0.3587  0.3440
  195MOL   C13627684   5.157   3.671   6.995 -0.4250 -0.0800 -0.1960
  195MOL   O13727685   5.399   3.665   7.010 -0.5905 -0.6047  0.0183
  195MOL   H13827686   5.297   3.809   7.102  0.5425  1.2733 -0.2481
  195MOL   H13927687   5.157   3.619   6.899 -2.9672 -1.0733  0.3248
  195MOL   H14027688   5.069   3.735   7.003 -0.2527  0.5533 -2.9271
  195MOL   H14127689   5.153   3.591   7.068 -1.1037 -2.0777 -2.3826
  195MOL   H14227690   5.402   3.629   7.098 -0.1696  2.1029  1.1644
  196MOL     C127691   7.076   1.847   4.747 -0.0485  0.0290 -0.5275
  196MOL     C227692   7.138   1.983   4.734 -0.2129 -0.4050 -0.0550
  196MOL     O327693   6.971   1.824   4.655 -0.2085 -0.3325  0.6366
  196MOL     H427694   7.041   1.825   4.847  2.0038  0.7319  0.3706
  196MOL     H527695   7.223   1.999   4.800 -1.1321 -1.2512  1.3456
  196MOL     H627696   7.065   2.058   4.763  0.6619  0.0802  0.9398
  196MOL     H727697   7.180   2.006   4.636 -0.6919 -0.4750 -0.2805
  196MOL     H827698   7.153   1.773   4.723 -0.4557 -0.2822 -0.8741
  196MOL     C927699   6.885   1.712   4.653  0.0579 -0.0084 -0.9048
  196MOL    C1027700   6.750   1.735   4.718 -0.0395  0.9059  0.3711
  196MOL    O1127701   6.862   1.676   4.517 -0.5497 -0.3112  0.2532
  196MOL    H1227702   6.936   1.630   4.703 -2.8290 -1.3804 -0.1335
  196MOL    H1327703   6.693   1.794   4.646  2.6412  2.4098 -0.6191
  196MOL    H1427704   6.759   1.798   4.806  0.0233  2.1831 -0.5311
  196MOL    H1527705   6.699   1.643   4.743  1.3890  0.0147  0.0590
  196MOL    C1627706   6.977   1.634   4.449 -0.1877  0.4443  0.2295
  196MOL    C1727707   6.940   1.485   4.409 -0.5405 -0.1592 -0.0186
  196MOL    O1827708   7.003   1.701   4.325 -0.0601  0.2342  0.8162
  196MOL    H1927709   7.065   1.631   4.514 -0.5358 -1.7200  0.6239
  196MOL    H2027710   6.901   1.421   4.488  1.8516 -2.1766 -0.4208
  196MOL    H2127711   7.037   1.446   4.379 -0.7542 -0.3008 -0.5448
  196MOL    H2227712   6.871   1.483   4.324  0.3374  1.6256 -0.8001
  196MOL    C2327713   7.075   1.813   4.333 -0.4921  0.1169  0.4260
  196MOL    C2427714   7.187   1.792   4.247 -0.5745  0.0741 -0.6935
  196MOL    O2527715   7.010   1.917   4.261 -0.4794 -0.0862 -0.4933
  196MOL    H2627716   7.112   1.835   4.433  2.6514 -3.7265  0.2369
  196MOL    H2727717   7.245   1.883   4.233 -0.1522 -0.1551 -0.4741
  196MOL    H2827718   7.153   1.771   4.146  3.0632 -1.3848 -1.6842
  196MOL    H2927719   7.255   1.717   4.287 -0.0349  1.2669  0.7131
  196MOL    C3027720   6.925   1.987   4.345 -0.4603 -0.4944 -0.1485
  196MOL    C3127721   6.981   2.131   4.350  0.7224  0.4998 -0.2410
  196MOL    O3227722   6.796   2.019   4.298  0.1131  0.3289 -0.1364
  196MOL    H3327723   6.933   1.947   4.446 -3.5039  1.8910  1.1144
  196MOL    H3427724   6.946   2.189   4.435 -1.2218  0.1528 -0.7842
  196MOL    H3527725   6.968   2.181   4.254 -2.4816  2.4014  1.0994
  196MOL    H3627726   7.087   2.118   4.371  0.8598  0.8449 -0.7055
  196MOL    C3727727   6.707   1.922   4.322 -0.2050  0.1417 -0.1018
  196MOL    C3827728   6.596   1.985   4.398  0.0733 -0.1916 -0.6917
  196MOL    O3927729   6.653   1.877   4.200 -0.1249 -0.6861 -0.4225
  196MOL    H4027730   6.737   1.835   4.381 -0.6434  0.7399  0.9995
  196MOL    H4127731   6.627   2.017   4.498  2.9287 -0.6684 -1.3570
  196MOL    H4227732   6.516   1.912   4.407  1.5308 -1.5852  1.7381
  196MOL    H4327733   6.563   2.070   4.339  0.4988  1.7585  1.7666
  196MOL    C4427734   6.742   1.816   4.110  0.0783 -0.2432 -0.3091
  196MOL    C4527735   6.712   1.666   4.119  0.8632  0.0955 -0.0032
  196MOL    O4627736   6.711   1.851   3.981  0.3162 -0.3747 -0.5510
  196MOL    H4727737   6.849   1.825   4.126  0.3287 -1.3374 -1.2886
  196MOL    H4827738   6.738   1.623   4.216  2.7590  0.7438 -0.1891
  196MOL    H4927739   6.769   1.605   4.048  3.4753  1.0196  1.2093
  196MOL    H5027740   6.606   1.646   4.106  0.8719  1.4990 -2.6136
  196MOL    C5127741   6.754   1.976   3.949 -0.4457  0.4601 -0.1646
  196MOL    C5227742   6.889   1.953   3.868  0.2290 -0.5486  0.2956
  196MOL    O5327743   6.667   2.040   3.861 -0.2647 -0.0608 -0.2726
  196MOL    H5427744   6.772   2.035   4.039 -0.5968  1.3093 -0.6817
  196MOL    H5527745   6.977   1.939   3.931  0.2199 -1.3842  0.1322
  196MOL    H5627746   6.902   2.039   3.802  0.4862  0.3358  1.4691
  196MOL    H5727747   6.875   1.858   3.817  0.4356 -0.3117 -0.2070
  196MOL    C5827748   6.544   2.073   3.926  0.3050  0.3521 -0.1498
  196MOL    C5927749   6.557   2.191   4.012  0.2434  0.3017 -0.4966
  196MOL    O6027750   6.452   2.111   3.826  0.6536  0.6539 -0.4056
  196MOL    H6127751   6.496   1.991   3.981 -0.1460  1.6000  1.3597
  196MOL    H6227752   6.455   2.207   4.047  0.6717 -0.1275  0.9584
  196MOL    H6327753   6.582   2.286   3.966  0.8937 -0.1682 -1.1334
  196MOL    H6427754   6.608   2.158   4.102  1.5357  1.1377 -0.9137
  196MOL    C6527755   6.424   2.012   3.735 -0.7207 -0.4266 -0.7418
  196MOL    C6627756   6.292   1.942   3.771  0.3672 -0.0156  0.1353
  196MOL    O6727757   6.412   2.083   3.618  0.1586 -0.0167  0.2124
  196MOL    H6827758   6.506   1.942   3.722 -1.3033 -0.9306 -1.7400
  196MOL    H6927759   6.208   2.010   3.787 -0.3141 -0.2213 -2.3948
  196MOL    H7027760   6.305   1.877   3.858  1.8073 -0.8636 -0.6973
  196MOL    H7127761   6.264   1.881   3.685 -1.1085 -0.0933  0.6467
  196MOL    C7227762   6.531   2.118   3.556  0.2367 -0.8925 -0.6686
  196MOL    C7327763   6.567   2.012   3.449 -0.3040  0.2215 -0.8823
  196MOL    O7427764   6.500   2.231   3.474  0.1739  0.4993 -0.8780
  196MOL    H7527765   6.608   2.134   3.631 -0.4952 -1.9098  0.3147
  196MOL    H7627766   6.642   2.058   3.384 -0.0752  2.5863  0.9836
  196MOL    H7727767   6.481   1.993   3.386 -1.2975 -0.0698  0.5314
  196MOL    H7827768   6.603   1.915   3.485  1.6663  0.6201 -1.7281
  196MOL    C7927769   6.509   2.353   3.543 -0.5493  0.1007 -0.2743
  196MOL    C8027770   6.635   2.424   3.480 -0.0316 -0.4485 -0.5059
  196MOL    O8127771   6.401   2.438   3.505  0.0669 -0.4720  0.8409
  196MOL    H8227772   6.524   2.351   3.651 -3.5826  1.4504  0.2098
  196MOL    H8327773   6.639   2.533   3.480  0.2230 -0.4557 -0.1146
  196MOL    H8427774   6.647   2.411   3.373 -0.0555  2.0848 -0.8477
  196MOL    H8527775   6.728   2.402   3.533  0.2544 -1.0881 -1.2750
  196MOL    C8627776   6.285   2.412   3.579  0.1193  0.1647  0.3360
  196MOL    C8727777   6.271   2.528   3.674 -0.2775  0.2188 -0.2204
  196MOL    O8827778   6.176   2.410   3.502  0.1294  0.0499 -0.1328
  196MOL    H8927779   6.293   2.322   3.640 -1.1393  0.0787  0.3743
  196MOL    H9027780   6.194   2.509   3.749  0.9474  0.4972  1.1284
  196MOL    H9127781   6.250   2.620   3.619  3.1468  1.6174  0.6744
  196MOL    H9227782   6.362   2.547   3.731 -1.6191  1.3337  1.5952
  196MOL    C9327783   6.180   2.309   3.403 -0.4641  0.2943 -0.3319
  196MOL    C9427784   6.075   2.211   3.453 -0.7654 -1.2117  0.1738
  196MOL    O9527785   6.139   2.355   3.277  0.2994 -0.0891  0.0224
  196MOL    H9627786   6.273   2.256   3.381 -0.8357 -0.0616 -1.0872
  196MOL    H9727787   6.089   2.186   3.557  1.1510 -1.7623 -0.2104
  196MOL    H9827788   6.074   2.126   3.384 -1.3719 -1.1672  0.1200
  196MOL    H9927789   5.979   2.262   3.440 -0.1711 -0.2748 -0.6033
  196MOL   C10027790   6.231   2.434   3.217  0.1515 -0.6131  0.0106
  196MOL   C10127791   6.297   2.349   3.109  0.2525 -0.0249 -0.7703
  196MOL   O10227792   6.168   2.535   3.158  0.4389  0.0994 -0.1553
  196MOL   H10327793   6.311   2.476   3.279 -1.0618 -0.8045  1.7386
  196MOL   H10427794   6.369   2.279   3.152 -1.3013 -1.2623 -0.1214
  196MOL   H10527795   6.350   2.420   3.045  0.3233 -0.2563 -0.9726
  196MOL   H10627796   6.224   2.288   3.055 -0.2508 -0.0249 -0.0953
  196MOL   C10727797   6.098   2.622   3.244  0.1973  0.4798  0.5831
  196MOL   C10827798   6.189   2.744   3.256 -0.4828  0.6780 -0.1149
  196MOL   O10927799   5.983   2.659   3.184  0.0102  0.4686  0.4697
  196MOL   H11027800   6.088   2.581   3.345  1.4793 -1.6288 -0.1076
  196MOL   H11127801   6.272   2.724   3.323 -0.3933  0.5977 -0.2490
  196MOL   H11227802   6.125   2.821   3.298 -2.2112  0.1412 -1.6843
  196MOL   H11327803   6.227   2.777   3.159  3.5915 -1.1795  0.7572
  196MOL   C11427804   5.881   2.569   3.190 -0.0278  0.1300  0.1484
  196MOL   C11527805   5.802   2.610   3.309  0.9669 -0.5202  0.4717
  196MOL   O11627806   5.795   2.586   3.076 -0.3476  0.1275 -0.2606
  196MOL   H11727807   5.916   2.466   3.193  4.0984  1.4050 -0.4241
  196MOL   H11827808   5.718   2.545   3.331  1.3129 -1.0190  0.3207
  196MOL   H11927809   5.744   2.697   3.280 -0.6714 -2.0938 -1.0034
  196MOL   H12027810   5.860   2.626   3.400  0.8055  0.1756  0.4613
  196MOL   C12127811   5.853   2.551   2.951  0.2066 -0.3008 -0.1829
  196MOL   C12227812   5.795   2.413   2.909 -0.2536  0.3083 -0.3345
  196MOL   O12327813   5.811   2.642   2.850 -0.2591 -0.4820 -0.8052
  196MOL   H12427814   5.961   2.543   2.942  0.4984  1.8951  1.0562
  196MOL   H12527815   5.820   2.332   2.978 -0.9655  0.4763  0.1291
  196MOL   H12627816   5.832   2.383   2.812  1.0100  0.4467  0.0916
  196MOL   H12727817   5.686   2.420   2.904 -0.2700 -0.6377 -1.4090
  196MOL   C12827818   5.879   2.761   2.852  0.0382  0.3104  1.0648
  196MOL   C12927819   5.962   2.768   2.726 -0.0989  0.4190 -0.3964
  196MOL   O13027820   5.787   2.870   2.864 -0.4852  0.2296  0.1175
  196MOL   H13127821   5.955   2.763   2.930  1.7125 -1.7303 -0.4610
  196MOL   H13227822   6.038   2.846   2.731  0.6542 -0.3825  0.9842
  196MOL   H13327823   5.900   2.776   2.636  1.1314 -0.6440 -1.3638
  196MOL   H13427824   6.007   2.670   2.708 -1.1422 -0.5741  2.1351
  196MOL   C13527825   5.675   2.859   2.956  0.1806 -0.0053 -0.4553
  196MOL   C13627826   5.603   2.992   2.948  0.3082 -0.9367 -0.3241
  196MOL   O13727827   5.573   2.767   2.923 -0.8529  0.4545 -0.0220
  196MOL   H13827828   5.708   2.838   3.058 -1.2484  1.5189  0.3503
  196MOL   H13927829   5.590   3.019   2.844 -2.2964 -0.6276  0.0584
  196MOL   H14027830   5.665   3.071   2.992 -0.7251 -1.5423  2.3241
  196MOL   H14127831   5.508   2.986   3.000  0.2533  1.7996 -0.0587
  196MOL   H14227832   5.618   2.685   2.937  0.4313  0.9416 -1.1661
  197MOL     C127833   4.671   2.162   7.834 -0.3362 -0.3831  0.5571
  197MOL     C227834   4.792   2.081   7.816  0.1990  0.5237 -0.4450
  197MOL     O327835   4.579   2.067   7.800  1.0163  0.5505 -0.5500
  197MOL     H427836   4.674   2.246   7.765  2.0799 -0.1794  0.8861
  197MOL     H527837   4.803   2.055   7.711  1.7989  2.4306 -0.7813
  197MOL     H627838   4.785   1.990   7.876 -1.5523 -0.1664 -1.6842
  197MOL     H727839   4.881   2.132   7.854  0.5158 -0.1506 -0.2811
  197MOL     H827840   4.651   2.206   0.018 -1.6169 -0.7398  0.4672
  197MOL     C927841   4.453   2.122   7.806  0.3391  0.2013  1.0337
  197MOL    C1027842   4.349   2.010   7.780  0.5721  0.6567  0.5987
  197MOL    O1127843   4.417   2.177   0.017  0.1071  0.1866  0.1334
  197MOL    H1227844   4.447   2.195   7.725 -1.1849  1.6517  2.4190
  197MOL    H1327845   4.353   1.931   7.855  0.6843  1.2621  1.2316
  197MOL    H1427846   4.356   1.975   7.677  1.0134  0.2212  0.7720
  197MOL    H1527847   4.253   2.062   7.787  0.3874  0.6564 -1.5141
  197MOL    C1627848   4.368   2.309   0.013  0.3346  0.3297 -0.3065
  197MOL    C1727849   4.301   2.339   0.147  0.6865  0.4560 -0.2142
  197MOL    O1827850   4.465   2.398   7.902 -0.3356  0.2238 -0.1635
  197MOL    H1927851   4.285   2.316   7.856 -0.0449 -0.7713  0.0288
  197MOL    H2027852   4.212   2.276   0.157 -0.6909  2.3520 -0.2996
  197MOL    H2127853   4.291   2.445   0.167 -0.4185  0.6967 -1.9337
  197MOL    H2227854   4.372   2.306   0.222  1.4814 -0.1962 -1.2375
  197MOL    C2327855   4.428   2.506   7.817  0.0360  0.0617 -0.8108
  197MOL    C2427856   4.511   2.625   7.861  0.3266  0.2796 -0.2148
  197MOL    O2527857   4.468   2.486   7.679  0.0954  0.3690 -0.0031
  197MOL    H2627858   4.323   2.530   7.831 -0.4107 -1.9051 -0.6806
  197MOL    H2727859   4.611   2.583   7.860 -0.4614 -1.7164  1.4022
  197MOL    H2827860   4.499   2.659   0.050  1.0655 -0.1175  0.0016
  197MOL    H2927861   4.508   2.709   7.791  0.3691 -0.6741 -1.3738
  197MOL    C3027862   4.361   2.482   7.587 -0.1912  0.0326 -0.0216
  197MOL    C3127863   4.430   2.496   7.452 -0.5878  0.1354  0.7413
  197MOL    O3227864   4.295   2.360   7.591 -0.2467 -0.0651  0.0702
  197MOL    H3327865   4.293   2.568   7.592 -1.8977 -1.2887  0.0025
  197MOL    H3427866   4.480   2.593   7.445 -2.2034  1.0393  1.3655
  197MOL    H3527867   4.361   2.494   7.368  0.3895  0.3366 -0.0763
  197MOL    H3627868   4.498   2.412   7.440 -0.6356 -0.0024  1.4527
  197MOL    C3727869   4.156   2.369   7.576  0.2227 -0.1459  0.4120
  197MOL    C3827870   4.105   2.230   7.577 -0.7769 -0.2971 -0.2303
  197MOL    O3927871   4.099   2.428   7.686 -0.0964 -0.0798  0.0359
  197MOL    H4027872   4.130   2.414   7.481  1.8682  0.2033  0.1137
  197MOL    H4127873   4.158   2.167   7.648  1.2192  0.9863 -0.5688
  197MOL    H4227874   4.118   2.191   7.476 -1.1428  0.3881 -0.5495
  197MOL    H4327875   3.997   2.232   7.597 -0.9630  3.0772 -1.2528
  197MOL    C4427876   3.995   2.516   7.664 -0.0162  0.2527 -0.0561
  197MOL    C4527877   3.934   2.551   7.805 -0.3173  0.1332  0.0369
  197MOL    O4627878   4.047   2.639   7.618  0.3127 -1.0292 -0.0363
  197MOL    H4727879   3.916   2.481   7.598 -0.9766  0.9465  0.7081
  197MOL    H4827880   3.924   2.455   7.856  0.9842  0.6343  1.2873
  197MOL    H4927881   3.843   2.608   7.788 -0.5055 -0.0962  0.2793
  197MOL    H5027882   4.006   2.614   7.858  2.5125  1.0174 -4.5275
  197MOL    C5127883   3.970   2.708   7.523 -0.1463  0.2490 -0.6094
  197MOL    C5227884   4.033   2.853   7.503  0.4304 -0.3919  0.4876
  197MOL    O5327885   3.980   2.631   7.410 -0.4094  0.1445 -0.4699
  197MOL    H5427886   3.869   2.717   7.563 -1.0357 -1.8252 -2.3072
  197MOL    H5527887   4.034   2.902   7.601  1.8865 -0.1281  0.3519
  197MOL    H5627888   3.970   2.911   7.436 -0.5152  1.2925  2.7366
  197MOL    H5727889   4.133   2.856   7.460 -0.3457 -0.1681 -1.3374
  197MOL    C5827890   3.875   2.629   7.326 -0.2193 -0.0014 -0.2035
  197MOL    C5927891   3.925   2.592   7.186  0.0002 -0.6538  0.8021
  197MOL    O6027892   3.785   2.533   7.363  0.7013 -0.6708  0.0950
  197MOL    H6127893   3.835   2.730   7.316  0.5073  0.2665 -0.4995
  197MOL    H6227894   3.845   2.602   7.112  0.2441 -0.7584  0.5220
  197MOL    H6327895   3.978   2.497   7.187  1.2708 -0.0061 -1.5973
  197MOL    H6427896   3.994   2.667   7.146 -0.4947 -0.7570 -0.2748
  197MOL    C6527897   3.651   2.579   7.399 -0.4314 -0.6229 -0.2532
  197MOL    C6627898   3.554   2.466   7.399  0.3321  0.6439  0.0741
  197MOL    O6727899   3.661   2.633   7.530 -0.0561  0.4237 -0.1605
  197MOL    H6827900   3.623   2.665   7.338 -0.4885 -0.3461  0.1606
  197MOL    H6927901   3.607   2.388   7.453  0.7859  1.4157  0.7597
  197MOL    H7027902   3.539   2.436   7.296  0.4613 -2.5797  0.9511
  197MOL    H7127903   3.461   2.496   7.447 -0.8474  0.7529 -2.2034
  197MOL    C7227904   3.555   2.720   7.584  0.5082 -0.0707  0.3764
  197MOL    C7327905   3.546   2.687   7.735  0.3713 -0.6599 -0.1352
  197MOL    O7427906   3.590   2.853   7.582  0.0702  0.4786 -0.1191
  197MOL    H7527907   3.464   2.701   7.528  0.9296 -1.2489  0.0616
  197MOL    H7627908   3.530   2.580   7.752 -0.5037 -0.1147  2.8449
  197MOL    H7727909   3.460   2.739   7.779  2.3530  1.7264  1.0527
  197MOL    H7827910   3.642   2.726   7.769  1.9314 -3.0037 -1.6750
  197MOL    C7927911   3.543   2.926   7.472  0.0328  0.6059 -0.8312
  197MOL    C8027912   3.596   3.065   7.491 -0.6140  0.0670 -0.0041
  197MOL    O8127913   3.590   2.882   7.347 -0.3111  0.1633 -0.6405
  197MOL    H8227914   3.435   2.913   7.476  0.2325 -0.3731  1.9860
  197MOL    H8327915   3.520   3.130   7.448  1.1992  1.4589 -1.2068
  197MOL    H8427916   3.689   3.082   7.437 -0.8427  1.6800  0.0862
  197MOL    H8527917   3.611   3.089   7.596 -0.5009 -0.5891  0.1284
  197MOL    C8627918   3.495   2.891   7.244  0.1181  0.2364 -0.3600
  197MOL    C8727919   3.564   2.934   7.120 -0.1022  0.5122  0.6649
  197MOL    O8827920   3.428   2.770   7.232 -0.3214 -0.0852  0.1201
  197MOL    H8927921   3.425   2.973   7.262 -0.8976  0.1599 -3.5517
  197MOL    H9027922   3.621   3.027   7.125 -0.6819  1.0526 -2.0414
  197MOL    H9127923   3.487   2.955   7.046 -1.2022 -0.3806  1.5400
  197MOL    H9227924   3.634   2.855   7.092  0.1679  0.0936  2.4501
  197MOL    C9327925   3.287   2.773   7.253  0.8669 -0.4808 -0.5881
  197MOL    C9427926   3.220   2.653   7.197 -0.2897 -0.0111  0.3301
  197MOL    O9527927   3.260   2.778   7.393  0.2613  0.3885  0.0558
  197MOL    H9627928   3.247   2.864   7.207 -2.3282 -1.0719  0.8451
  197MOL    H9727929   3.118   2.650   7.235  0.2346 -0.2157  1.7627
  197MOL    H9827930   3.277   2.569   7.238  0.2654  0.2776  0.1547
  197MOL    H9927931   3.217   2.652   7.088 -2.3111 -1.3667  0.3704
  197MOL   C10027932   3.158   2.869   7.432  0.0170 -0.7262  0.3302
  197MOL   C10127933   3.111   2.831   7.566  0.4249 -0.6094 -0.9966
  197MOL   O10227934   3.212   2.996   7.443 -0.2951 -0.4464 -0.3942
  197MOL   H10327935   3.075   2.870   7.361  0.9767  0.5971 -0.8156
  197MOL   H10427936   3.194   2.830   7.637 -0.9000  0.7726  0.6304
  197MOL   H10527937   3.071   2.729   7.571 -1.4310  0.1089 -0.5468
  197MOL   H10627938   3.034   2.906   7.589  1.7330  0.5622 -0.3754
  197MOL   C10727939   3.129   3.095   7.393  0.3717 -0.5092 -0.4756
  197MOL   C10827940   3.172   3.224   7.462  0.2568 -0.2508  0.3867
  197MOL   O10927941   3.143   3.108   7.253  0.2572 -0.5804 -0.2306
  197MOL   H11027942   3.026   3.072   7.422  1.0938  0.9567  3.5738
  197MOL   H11127943   3.106   3.306   7.437  0.3631 -0.1959  0.2801
  197MOL   H11227944   3.267   3.256   7.420 -1.1135  0.1585 -2.5009
  197MOL   H11327945   3.176   3.215   7.570 -2.8337 -0.0386  0.5367
  197MOL   C11427946   3.028   3.085   7.181  0.0933 -0.3415 -0.8829
  197MOL   C11527947   3.040   3.151   7.045  0.1802  0.2166  0.2482
  197MOL   O11627948   3.018   2.947   7.157  0.0578  0.0190  0.3581
  197MOL   H11727949   2.941   3.130   7.229  1.2543 -0.6673  1.6217
  197MOL   H11827950   3.059   3.258   7.060 -0.2411  0.0862  1.9152
  197MOL   H11927951   2.953   3.139   6.980  0.8121  1.6275 -0.8891
  197MOL   H12027952   3.122   3.113   6.986 -1.8487 -0.8152 -2.0038
  197MOL   C12127953   2.888   2.898   7.152 -0.0689 -0.9909 -0.2838
  197MOL   C12227954   2.880   2.772   7.067 -0.2663 -0.1456  0.3484
  197MOL   O12327955   2.838   2.873   7.280 -0.1898  0.0729  0.2791
  197MOL   H12427956   2.823   2.975   7.110  0.9975  0.2714  0.3601
  197MOL   H12527957   2.788   2.715   7.075 -0.0489 -0.9019 -2.0872
  197MOL   H12627958   2.966   2.711   7.097  0.7446  0.7741 -0.6594
  197MOL   H12727959   2.892   2.791   6.961 -2.3560  1.8273  0.4318
  197MOL   C12827960   2.705   2.872   7.291 -0.1712  0.1232  0.3848
  197MOL   C12927961   2.673   2.867   7.441  0.8712  0.5043 -0.2349
  197MOL   O13027962   2.641   2.985   7.240  0.0270  0.1966 -0.1735
  197MOL   H13127963   2.674   2.779   7.244  1.6716 -0.3153  0.0233
  197MOL   H13227964   2.565   2.862   7.456  0.5682  1.9334 -1.7427
  197MOL   H13327965   2.704   2.962   7.484  0.3946  0.7234 -0.3688
  197MOL   H13427966   2.719   2.784   7.494 -1.3340  0.5193  1.8054
  197MOL   C13527967   2.516   2.954   7.175 -0.3320  0.0486 -0.8095
  197MOL   C13627968   2.423   3.073   7.174 -0.1514 -0.1587  0.7016
  197MOL   O13727969   2.531   2.898   7.052 -0.3263 -0.0557 -0.1454
  197MOL   H13827970   2.474   2.872   7.234  0.8460 -0.5526 -0.8028
  197MOL   H13927971   2.383   3.099   7.272 -0.6093 -3.1735  1.3311
  197MOL   H14027972   2.341   3.055   7.105  0.3867  1.6953 -0.4791
  197MOL   H14127973   2.469   3.163   7.131  0.5284 -0.8417 -0.0124
  197MOL   H14227974   2.568   2.966   6.998 -2.2400  0.4005 -0.9058
  198MOL     C127975   7.616   4.799   4.346 -0.6943 -0.1064  0.2300
  198MOL     C227976   7.487   4.805   4.434 -0.3009  0.1129 -0.7743
  198MOL     O327977   7.582   4.846   4.213  0.2789  0.4957  0.3771
  198MOL     H427978   7.649   4.695   4.337  0.6351  0.2385  0.9621
  198MOL     H527979   7.400   4.764   4.384 -1.2759  0.8472  0.2870
  198MOL     H627980   7.471   4.912   4.450  1.8263  0.3148  0.1989
  198MOL     H727981   7.503   4.758   4.531  1.6902 -0.7942 -1.5167
  198MOL     H827982   7.689   4.861   4.398 -1.0723  0.4499  0.0943
  198MOL     C927983   7.655   4.957   4.165 -0.3839  0.3138  0.1904
  198MOL    C1027984   7.791   4.912   4.120 -0.0225 -0.5216 -0.7961
  198MOL    O1127985   7.582   5.013   4.062 -0.2697 -0.2198 -0.3928
  198MOL    H1227986   7.661   5.027   4.249  0.1340  0.5256 -0.0200
  198MOL    H1327987   7.785   4.849   4.031  2.2183 -0.4866 -0.9939
  198MOL    H1427988   7.839   4.866   4.206 -0.9240 -1.4558 -0.7784
  198MOL    H1527989   7.851   5.001   4.104 -0.1275 -0.4436 -0.7567
  198MOL    C1627990   7.477   5.090   4.097  0.4502 -0.6845 -0.2456
  198MOL    C1727991   7.536   5.233   4.103 -0.1200  0.2929 -0.3576
  198MOL    O1827992   7.375   5.085   4.009  0.3841 -0.4944  0.1571
  198MOL    H1927993   7.438   5.078   4.198  0.4655  0.3156 -0.1097
  198MOL    H2027994   7.451   5.299   4.122  1.2012  2.5338 -2.0147
  198MOL    H2127995   7.566   5.258   4.001  2.3490 -4.7058 -0.9654
  198MOL    H2227996   7.627   5.238   4.162  0.4454 -0.5398 -1.1534
  198MOL    C2327997   7.293   4.974   4.018 -0.4379  0.3449 -0.4128
  198MOL    C2427998   7.154   5.020   4.053 -0.5199  0.2122 -0.0039
  198MOL    O2527999   7.290   4.916   3.892  0.6901 -0.5105  0.1842
  198MOL    H2628000   7.328   4.900   4.090 -2.3863  0.7192  0.9597
  198MOL    H2728001   7.147   5.110   3.992  2.6069  1.3183  1.1654
  198MOL    H2828002   7.140   5.038   4.160 -0.9630 -0.7637  0.1090
  198MOL    H2928003   7.080   4.943   4.032 -1.3544  1.1162 -0.4566
  198MOL    C3028004   7.397   4.837   3.863 -0.0791 -0.4733  0.8054
  198MOL    C3128005   7.365   4.684   3.881  0.2478  0.2831  0.1270
  198MOL    O3228006   7.438   4.854   3.732 -0.1781  0.0195 -0.9479
  198MOL    H3328007   7.485   4.853   3.925  0.7300  2.1356 -0.9151
  198MOL    H3428008   7.360   4.664   3.988  1.8517 -0.9573 -0.0245
  198MOL    H3528009   7.448   4.626   3.842  0.1032  0.6515 -0.7495
  198MOL    H3628010   7.270   4.670   3.828 -0.0373 -0.5178  0.8444
  198MOL    C3728011   7.511   4.970   3.701 -0.3221  0.4406 -0.1231
  198MOL    C3828012   7.621   4.919   3.612 -0.0268  0.0435  0.0321
  198MOL    O3928013   7.444   5.058   3.614  0.2359 -0.3213  0.5876
  198MOL    H4028014   7.549   5.021   3.789 -2.2050  0.5693  0.6265
  198MOL    H4128015   7.664   4.996   3.549  2.0256 -2.1097 -1.2673
  198MOL    H4228016   7.577   4.846   3.545 -3.3032  0.9778  1.0627
  198MOL    H4328017   7.706   4.883   3.670  1.3311  1.0813 -1.2875
  198MOL    C4428018   7.380   5.162   3.676 -0.7745 -0.3837 -0.1871
  198MOL    C4528019   7.473   5.284   3.666 -0.1857  0.1307  0.2531
  198MOL    O4628020   7.266   5.188   3.601 -0.0137 -0.2073 -0.6555
  198MOL    H4728021   7.365   5.139   3.781 -1.1823  1.6344  0.2100
  198MOL    H4828022   7.493   5.299   3.560 -1.4888 -0.8118 -0.1301
  198MOL    H4928023   7.562   5.248   3.718  0.7782 -1.4117 -2.4026
  198MOL    H5028024   7.429   5.375   3.708  1.1360  0.6770  0.4717
  198MOL    C5128025   7.163   5.103   3.625 -0.5498 -0.1340  0.2414
  198MOL    C5228026   7.047   5.176   3.689 -0.3284  0.2040  0.0133
  198MOL    O5328027   7.129   5.042   3.506  0.2140 -0.0980 -0.3153
  198MOL    H5428028   7.195   5.026   3.695  1.5727  0.5902  0.1342
  198MOL    H5528029   6.983   5.225   3.616 -0.2440 -2.0852 -1.6485
  198MOL    H5628030   7.077   5.234   3.776  1.5170  0.1062 -0.5470
  198MOL    H5728031   6.976   5.101   3.725  0.1772  0.8595  2.4324
  198MOL    C5828032   7.201   4.924   3.477  0.2694 -0.6823 -0.1485
  198MOL    C5928033   7.107   4.810   3.501 -0.3389  0.2208  0.3684
  198MOL    O6028034   7.231   4.912   3.345 -0.0379  0.1144  0.1036
  198MOL    H6128035   7.291   4.908   3.536 -0.0226  0.6310  0.6650
  198MOL    H6228036   7.071   4.815   3.604 -0.8029 -2.4056  0.3652
  198MOL    H6328037   7.159   4.715   3.490 -0.5576 -0.0047  1.2612
  198MOL    H6428038   7.030   4.812   3.424 -0.0018  2.3750  0.0494
  198MOL    C6528039   7.329   4.996   3.292  0.5404  0.0271 -0.1108
  198MOL    C6628040   7.432   4.912   3.232  0.3865  0.9046  0.1163
  198MOL    O6728041   7.289   5.089   3.197  0.3494  0.0850 -0.4482
  198MOL    H6828042   7.379   5.048   3.374  0.6164 -2.3061  1.3764
  198MOL    H6928043   7.527   4.966   3.234 -0.7283  2.9394 -0.2297
  198MOL    H7028044   7.405   4.888   3.129 -2.0510 -1.6918  1.3131
  198MOL    H7128045   7.450   4.823   3.291 -0.3943  1.3688  1.0570
  198MOL    C7228046   7.254   5.212   3.255  0.0188  0.0794  0.3437
  198MOL    C7328047   7.374   5.295   3.230  0.3838  0.7491 -0.5387
  198MOL    O7428048   7.146   5.253   3.179 -0.5611  0.2425 -0.1694
  198MOL    H7528049   7.237   5.209   3.363 -2.4044  0.8685  0.0189
  198MOL    H7628050   7.359   5.380   3.296 -1.8651  1.3848 -1.8131
  198MOL    H7728051   7.396   5.336   3.131 -1.1688  2.2457 -0.2835
  198MOL    H7828052   7.464   5.243   3.263 -0.6603 -1.5154 -1.1931
  198MOL    C7928053   7.024   5.200   3.224 -0.2939 -0.0523 -0.6340
  198MOL    C8028054   6.950   5.316   3.297  0.0273 -0.1826 -1.0460
  198MOL    O8128055   6.944   5.167   3.119 -0.2595  0.6848  0.8121
  198MOL    H8228056   7.046   5.113   3.285 -0.2726  1.6029  1.7809
  198MOL    H8328057   6.856   5.276   3.336 -0.1261  2.3645  1.3297
  198MOL    H8428058   6.942   5.404   3.234 -0.4735 -0.1539 -0.9451
  198MOL    H8528059   7.010   5.327   3.387 -2.3473 -0.6050  0.6435
  198MOL    C8628060   6.972   5.051   3.054 -1.2459  0.2784  0.4906
  198MOL    C8728061   6.856   4.948   3.071  0.0131  0.1221 -0.3506
  198MOL    O8828062   6.996   5.072   2.917  0.3923 -0.1757 -0.1350
  198MOL    H8928063   7.060   5.002   3.095 -1.6795 -1.2711 -0.3754
  198MOL    H9028064   6.854   4.914   3.175 -1.7042  2.8793  0.5869
  198MOL    H9128065   6.870   4.870   2.996 -1.2566 -0.7690  0.3094
  198MOL    H9228066   6.760   4.997   3.056 -0.2722  0.3790  2.1401
  198MOL    C9328067   7.120   5.127   2.886 -0.2485  0.0267 -0.7701
  198MOL    C9428068   7.210   5.013   2.854 -0.7594  0.0255  0.2244
  198MOL    O9528069   7.108   5.214   2.775  0.0717  0.0777 -0.3823
  198MOL    H9628070   7.156   5.187   2.970 -0.3033 -1.5542  0.4009
  198MOL    H9728071   7.174   4.947   2.775 -0.1483 -0.2993  0.2064
  198MOL    H9828072   7.226   4.958   2.946 -0.5794 -0.1416  0.0958
  198MOL    H9928073   7.313   5.041   2.830 -0.7988 -2.0981 -2.8393
  198MOL   C10028074   7.046   5.331   2.811 -0.1004 -0.0457 -0.4086
  198MOL   C10128075   7.152   5.439   2.853 -0.0549 -0.8652  0.0703
  198MOL   O10228076   6.968   5.380   2.708 -0.0725 -0.5360  0.4390
  198MOL   H10328077   6.989   5.311   2.902  0.2566 -3.7217 -0.8985
  198MOL   H10428078   7.211   5.476   2.769 -1.0745  0.3086 -0.1301
  198MOL   H10528079   7.228   5.398   2.919  1.4508  0.2607 -0.9200
  198MOL   H10628080   7.090   5.519   2.893  0.3179 -0.4345 -0.2106
  198MOL   C10728081   6.864   5.286   2.685 -0.2381 -1.0386 -0.4814
  198MOL   C10828082   6.752   5.304   2.792  1.3585 -0.0415  0.3257
  198MOL   O10928083   6.807   5.313   2.563  0.0793  0.4784 -0.2130
  198MOL   H11028084   6.892   5.181   2.691  0.3155 -0.7709  2.1318
  198MOL   H11128085   6.792   5.280   2.890 -1.2508  0.0905  1.4836
  198MOL   H11228086   6.660   5.251   2.767  2.3726 -1.4542 -0.4891
  198MOL   H11328087   6.725   5.410   2.788 -0.9918 -0.5462  1.8465
  198MOL   C11428088   6.869   5.264   2.454  0.0571  0.2297 -0.4736
  198MOL   C11528089   6.780   5.165   2.383 -0.3335 -0.1860  0.0807
  198MOL   O11628090   6.889   5.367   2.371 -0.2171 -0.4644 -0.2705
  198MOL   H11728091   6.970   5.228   2.472 -1.4821 -2.8770  2.4925
  198MOL   H11828092   6.696   5.227   2.353 -0.9198 -0.7653  0.5083
  198MOL   H11928093   6.744   5.085   2.448  1.0580 -0.0050  1.0973
  198MOL   H12028094   6.830   5.128   2.294 -0.3356 -0.4282  0.1784
  198MOL   C12128095   7.003   5.447   2.401  0.4191 -0.1962 -0.1515
  198MOL   C12228096   7.121   5.407   2.312 -0.0498 -0.2755 -0.0307
  198MOL   O12328097   6.976   5.583   2.378  0.0432 -0.5539  0.2582
  198MOL   H12428098   7.039   5.440   2.504  2.4832  1.8236 -0.7043
  198MOL   H12528099   7.089   5.398   2.208  0.0615  0.5827 -0.1420
  198MOL   H12628100   7.155   5.310   2.347 -1.7695 -0.0687  2.3630
  198MOL   H12728101   7.199   5.482   2.330 -0.5916  0.7855 -1.9252
  198MOL   C12828102   6.892   5.642   2.478 -0.4227  0.6669 -0.2825
  198MOL   C12928103   6.982   5.710   2.586  0.1007  0.4189  0.0269
  198MOL   O13028104   6.810   5.743   2.431 -0.4711  0.6498 -0.0995
  198MOL   H13128105   6.823   5.567   2.517  0.3722  0.3743  0.5809
  198MOL   H13228106   7.011   5.626   2.649 -0.0254 -1.4767 -2.3840
  198MOL   H13328107   6.937   5.789   2.646  0.2541  0.5724 -0.0582
  198MOL   H13428108   7.065   5.762   2.537  1.8079 -0.9245  1.4492
  198MOL   C13528109   6.706   5.694   2.346  0.2752 -0.1114 -0.4432
  198MOL   C13628110   6.586   5.644   2.426  0.3289 -0.2636 -0.5323
  198MOL   O13728111   6.668   5.791   2.254 -0.1808 -0.1841 -0.5820
  198MOL   H13828112   6.748   5.613   2.286  1.7598  0.7902 -0.6636
  198MOL   H13928113   6.498   5.624   2.365  0.4756 -0.7341 -0.5866
  198MOL   H14028114   6.549   5.722   2.492  3.0827 -0.4899  1.3713
  198MOL   H14128115   6.601   5.558   2.490  1.5252 -1.0750 -1.8624
  198MOL   H14228116   6.688   5.758   2.168 -0.8938  0.5596 -1.0383
  199MOL     C128117   5.986   4.037   0.104  0.9266 -0.2648 -0.1303
  199MOL     C228118   6.040   4.132   0.214  1.1905  0.1304  0.2393
  199MOL     O328119   5.849   4.010   0.126 -0.0188 -0.5883 -0.2795
  199MOL     H428120   6.043   3.945   0.114  2.4492  0.8208  1.3842
  199MOL     H528121   6.036   4.076   0.307  1.2880  0.3149  0.3551
  199MOL     H628122   5.987   4.227   0.226  1.0670 -0.0510  1.1628
  199MOL     H728123   6.146   4.146   0.192  1.5598 -2.5020  0.2644
  199MOL     H828124   6.005   4.078   0.005 -0.2976 -1.3038 -0.8019
  199MOL     C928125   5.794   3.905   0.053  0.2430  1.3456 -0.0591
  199MOL    C1028126   5.759   3.793   0.143  0.4978 -0.9438  0.2650
  199MOL    O1128127   5.678   3.955   0.000 -0.2730 -0.0437  0.1136
  199MOL    H1228128   5.863   3.866   7.892  0.7285 -0.7287  1.4460
  199MOL    H1328129   5.664   3.818   0.191 -1.1085 -1.6398 -2.4686
  199MOL    H1428130   5.838   3.768   0.214  1.8931  0.5706 -0.7272
  199MOL    H1528131   5.742   3.703   0.085  2.1280 -2.3487  1.9076
  199MOL    C1628132   5.695   4.060   7.826  0.1372  0.4039  0.5116
  199MOL    C1728133   5.688   3.999   7.676 -0.1472 -0.5271  0.2649
  199MOL    O1828134   5.597   4.153   7.837 -0.0008  0.1941  0.2792
  199MOL    H1928135   5.789   4.113   7.841  1.6819 -1.7757 -1.0947
  199MOL    H2028136   5.746   4.061   7.608 -0.9501 -1.4296 -1.2667
  199MOL    H2128137   5.585   3.992   7.642  0.0337 -0.1507 -0.3632
  199MOL    H2228138   5.730   3.899   7.677  3.3151  0.8422 -1.2020
  199MOL    C2328139   5.595   4.217   0.046  0.0434  0.2514  0.3430
  199MOL    C2428140   5.701   4.333   0.046 -0.4576  0.0788  0.3272
  199MOL    O2528141   5.467   4.281   0.066 -0.5828  0.1768  0.5946
  199MOL    H2628142   5.616   4.153   0.132  0.4997 -1.5491 -1.0912
  199MOL    H2728143   5.797   4.291   0.018 -0.2211  0.2948  0.8100
  199MOL    H2828144   5.709   4.395   0.136 -0.0853  0.0470  0.3129
  199MOL    H2928145   5.677   4.405   7.881 -2.0061 -1.6999 -0.8876
  199MOL    C3028146   5.373   4.189   0.120  0.7093  0.3243 -0.4345
  199MOL    C3128147   5.387   4.190   0.283  0.4035  0.7393  0.3390
  199MOL    O3228148   5.241   4.237   0.104  0.3913  0.1113 -0.1306
  199MOL    H3328149   5.377   4.086   0.083  2.0992 -0.0743  0.8023
  199MOL    H3428150   5.294   4.155   0.327  1.1558 -1.3920  0.3231
  199MOL    H3528151   5.420   4.288   0.318 -2.0417  1.8528 -0.3804
  199MOL    H3628152   5.466   4.121   0.315 -0.6183 -0.9438 -0.7105
  199MOL    C3728153   5.185   4.190   7.899 -0.7743  0.4570 -0.2688
  199MOL    C3828154   5.123   4.050   7.907 -0.0434 -0.2676  0.6473
  199MOL    O3928155   5.084   4.272   7.858 -0.3405 -0.3386 -0.5596
  199MOL    H4028156   5.262   4.195   7.821 -0.7003  1.8512 -0.1148
  199MOL    H4128157   5.081   4.023   7.811 -0.8267  0.7939  0.6748
  199MOL    H4228158   5.053   4.058   0.077 -0.7657 -0.4158  0.0590
  199MOL    H4328159   5.198   3.976   0.023 -0.0944 -1.2581 -1.6291
  199MOL    C4428160   5.129   4.401   7.825 -0.9550  0.3186 -0.4812
  199MOL    C4528161   5.136   4.409   7.675  0.1484 -0.1102 -0.6517
  199MOL    O4628162   5.039   4.493   7.860 -0.1168 -0.3347  0.5592
  199MOL    H4728163   5.223   4.424   7.875 -0.1948  0.9996 -2.1808
  199MOL    H4828164   5.204   4.336   7.631  1.8150 -0.5015  2.4343
  199MOL    H4928165   5.183   4.503   7.647  1.9283 -0.8537 -0.2247
  199MOL    H5028166   5.032   4.399   7.643 -0.5138  0.9245  1.1189
  199MOL    C5128167   5.000   4.507   0.084  0.9638  0.3274  0.2305
  199MOL    C5228168   5.065   4.643   0.122 -0.1372  0.5457  0.1897
  199MOL    O5328169   4.862   4.523   0.098  0.1787  0.1144  0.9039
  199MOL    H5428170   5.035   4.424   0.145  0.5190  0.0005  0.0471
  199MOL    H5528171   5.171   4.634   0.101 -0.2618 -1.2792  0.2593
  199MOL    H5628172   5.055   4.671   0.227  2.0692 -0.3693  0.6707
  199MOL    H5728173   5.024   4.720   0.056 -0.9449  0.4363  0.5642
  199MOL    C5828174   4.795   4.407   0.074  0.4548  0.3922 -1.0162
  199MOL    C5928175   4.742   4.357   0.207  0.0052  0.2905  0.1191
  199MOL    O6028176   4.683   4.428   7.901 -0.1359  0.2324 -0.6593
  199MOL    H6128177   4.851   4.317   0.046  0.5162 -1.0317  3.3358
  199MOL    H6228178   4.805   4.279   0.250 -1.1761 -0.6258  0.2101
  199MOL    H6328179   4.644   4.309   0.200 -0.1322  0.5888  0.0154
  199MOL    H6428180   4.732   4.439   0.277  2.5827 -0.4628  1.4229
  199MOL    C6528181   4.735   4.451   7.777 -0.0460 -0.3054 -0.1516
  199MOL    C6628182   4.710   4.320   7.705 -0.4696  0.3286  0.0971
  199MOL    O6728183   4.653   4.547   7.710  0.6206  0.0273 -0.1206
  199MOL    H6828184   4.838   4.487   7.771  0.7442 -2.6951 -1.7828
  199MOL    H6928185   4.757   4.304   7.608 -2.1459 -1.2828 -0.4694
  199MOL    H7028186   4.605   4.310   7.680 -0.4896  1.2049 -0.1912
  199MOL    H7128187   4.746   4.238   7.768  0.1408  0.9157  0.5261
  199MOL    C7228188   4.675   4.683   7.749  0.2537  0.4657  0.1859
  199MOL    C7328189   4.808   4.729   7.689 -0.4138  0.4637 -0.1503
  199MOL    O7428190   4.573   4.773   7.715  1.0913 -0.0517  0.7804
  199MOL    H7528191   4.688   4.701   7.856  1.1855  1.7262 -0.1252
  199MOL    H7628192   4.819   4.693   7.586 -0.1919 -0.7924  0.3013
  199MOL    H7728193   4.887   4.691   7.753  0.6289  1.4864 -0.8217
  199MOL    H7828194   4.823   4.837   7.683  0.3217  0.3676 -0.0751
  199MOL    C7928195   4.462   4.755   7.802  0.0943  0.1891 -0.0950
  199MOL    C8028196   4.444   4.877   7.893 -0.2099 -0.2206  0.1000
  199MOL    O8128197   4.344   4.756   7.731  0.4364 -0.0071 -0.3465
  199MOL    H8228198   4.459   4.668   7.867 -2.5103 -0.0090 -0.4408
  199MOL    H8328199   4.434   4.971   7.840 -0.5665  0.7143  1.7987
  199MOL    H8428200   4.524   4.876   0.053  0.3086  0.0167 -0.4469
  199MOL    H8528201   4.352   4.855   0.033  0.5470 -0.9772  1.0970
  199MOL    C8628202   4.328   4.642   7.647 -0.2726 -0.5892 -0.2047
  199MOL    C8728203   4.202   4.560   7.691  0.2090 -0.1085 -0.4720
  199MOL    O8828204   4.315   4.677   7.507 -0.3235 -0.1313  0.1425
  199MOL    H8928205   4.400   4.562   7.665 -0.3735 -1.0205 -1.6840
  199MOL    H9028206   4.203   4.537   7.798  0.3742  0.2867 -0.3887
  199MOL    H9128207   4.212   4.458   7.653 -2.8405 -1.1335  1.3057
  199MOL    H9228208   4.109   4.611   7.668 -1.1166 -2.2229  0.0537
  199MOL    C9328209   4.428   4.629   7.425 -0.0397 -0.1312 -0.6950
  199MOL    C9428210   4.396   4.493   7.365  0.4345 -0.9013  0.1628
  199MOL    O9528211   4.453   4.708   7.311  0.2585  0.5115  0.0897
  199MOL    H9628212   4.522   4.624   7.479 -0.4720 -0.7576 -0.0084
  199MOL    H9728213   4.399   4.421   7.446  2.2912 -0.2788  0.6791
  199MOL    H9828214   4.465   4.463   7.286 -0.5758 -2.2139 -0.2385
  199MOL    H9928215   4.291   4.500   7.335  0.9376  0.8413 -1.2793
  199MOL   C10028216   4.485   4.838   7.341  0.3025 -0.3346  0.2309
  199MOL   C10128217   4.630   4.859   7.296 -0.4247 -0.1612 -0.1025
  199MOL   O10228218   4.403   4.936   7.282  0.1404 -0.3689 -0.5371
  199MOL   H10328219   4.503   4.851   7.448  1.7546  3.0735 -0.3418
  199MOL   H10428220   4.666   4.961   7.305  2.9252 -1.1970 -1.1501
  199MOL   H10528221   4.642   4.825   7.194  2.0082  0.2707  0.0248
  199MOL   H10628222   4.689   4.795   7.362 -0.5591  1.4653  1.6610
  199MOL   C10728223   4.276   4.939   7.343  0.0070 -0.2552  0.6390
  199MOL   C10828224   4.276   5.013   7.475 -0.9886  0.6378  0.3635
  199MOL   O10928225   4.196   5.013   7.259  0.0541  0.0563  0.1385
  199MOL   H11028226   4.243   4.836   7.356  0.3490 -0.5084 -0.4530
  199MOL   H11128227   4.174   5.037   7.506 -2.0496 -1.8768 -1.0386
  199MOL   H11228228   4.342   5.100   7.471 -0.2157  0.0377  0.1644
  199MOL   H11328229   4.326   4.948   7.547 -1.0303 -1.2519 -1.2847
  199MOL   C11428230   4.153   4.949   7.141 -0.1707 -0.1369 -0.7403
  199MOL   C11528231   4.004   4.923   7.156 -0.0560 -0.3825  0.3986
  199MOL   O11628232   4.172   5.044   7.041  0.4010  0.2940  0.0925
  199MOL   H11728233   4.220   4.865   7.123 -1.1090 -1.2087  0.6684
  199MOL   H11828234   3.956   4.915   7.058  0.4456 -0.7455  0.1830
  199MOL   H11928235   3.967   5.004   7.218  0.3197 -0.6250  0.9406
  199MOL   H12028236   3.967   4.836   7.211 -1.7671 -0.6055 -1.0667
  199MOL   C12128237   4.186   4.997   6.916 -0.7225  0.4476 -0.2661
  199MOL   C12228238   4.082   5.068   6.834  0.1237  0.5865  0.1213
  199MOL   O12328239   4.314   5.025   6.863  0.2132  0.0501 -0.1377
  199MOL   H12428240   4.172   4.889   6.910 -0.7461  0.3883  0.7623
  199MOL   H12528241   4.087   5.035   6.730 -1.9738  2.3561 -0.5887
  199MOL   H12628242   4.105   5.175   6.831 -0.4923  0.7200  0.0697
  199MOL   H12728243   3.983   5.050   6.876  0.0011  1.5459  0.2593
  199MOL   C12828244   4.412   4.935   6.908 -0.6019  0.5048  0.4724
  199MOL   C12928245   4.427   4.817   6.810  0.4832  0.4709 -0.7452
  199MOL   O13028246   4.535   4.995   6.908 -0.3682 -0.2619  0.6699
  199MOL   H13128247   4.392   4.893   7.007 -1.8079 -0.1126 -0.0248
  199MOL   H13228248   4.439   4.855   6.709  0.9479 -0.0734 -0.8950
  199MOL   H13328249   4.340   4.752   6.823 -1.2258  2.9857  0.9671
  199MOL   H13428250   4.517   4.762   6.835 -0.3201 -0.4746  0.1014
  199MOL   C13528251   4.544   5.091   7.005  0.1201 -0.0767  0.3772
  199MOL   C13628252   4.696   5.126   7.014  0.3417  0.6256  0.1844
  199MOL   O13728253   4.467   5.205   6.968  0.0175  0.4619 -0.0945
  199MOL   H13828254   4.513   5.059   7.105 -1.1387  0.5528  0.1937
  199MOL   H13928255   4.757   5.036   7.018 -1.3613 -0.5484  0.9751
  199MOL   H14028256   4.714   5.174   7.111 -0.8291  1.0518  0.2013
  199MOL   H14128257   4.719   5.201   6.938 -0.2007 -0.4886 -1.0983
  199MOL   H14228258   4.381   5.177   6.939  0.2317 -2.2458  1.6565
  200MOL     C128259   4.882   2.794   6.680  0.0829 -0.1154 -0.6853
  200MOL     C228260   4.812   2.842   6.556 -0.0888  0.2310 -0.2415
  200MOL     O328261   4.828   2.860   6.793 -0.1032 -0.4180  0.0055
  200MOL     H428262   4.990   2.804   6.678  0.1063 -0.6605 -2.8936
  200MOL     H528263   4.843   2.946   6.545  1.8642 -0.4156 -1.1378
  200MOL     H628264   4.704   2.841   6.574  0.0050  1.6265  0.5088
  200MOL     H728265   4.847   2.781   6.472 -2.3243  0.8295 -1.6397
  200MOL     H828266   4.858   2.689   6.702  0.4386 -0.3962 -1.6232
  200MOL     C928267   4.919   2.874   6.901  0.0367  0.6578  0.0894
  200MOL    C1028268   4.829   2.930   7.013 -1.6391 -0.2801 -0.0580
  200MOL    O1128269   4.965   2.744   6.937  0.7214  0.0078  0.1890
  200MOL    H1228270   5.005   2.936   6.875  0.6537 -0.3374 -0.2555
  200MOL    H1328271   4.788   3.029   6.994  0.3541  0.5435 -0.1822
  200MOL    H1428272   4.890   2.940   7.103  0.2685  0.4960 -1.4042
  200MOL    H1528273   4.749   2.858   7.032 -0.0779 -2.3654 -1.2077
  200MOL    C1628274   5.105   2.738   6.959  0.1639 -0.1164  0.1442
  200MOL    C1728275   5.139   2.590   6.992 -0.5183  0.3822  0.1196
  200MOL    O1828276   5.177   2.768   6.844 -0.4530 -0.0393 -0.1425
  200MOL    H1928277   5.131   2.807   7.040  0.2574 -1.0588  0.9236
  200MOL    H2028278   5.149   2.525   6.906  0.2556  2.2457 -1.2291
  200MOL    H2128279   5.065   2.547   7.060  0.2581 -0.9871  0.1138
  200MOL    H2228280   5.238   2.595   7.037 -1.3979 -0.8702  2.2524
  200MOL    C2328281   5.291   2.843   6.870 -0.1188  0.2937 -0.1524
  200MOL    C2428282   5.368   2.861   6.737 -0.0521 -0.5649  0.1225
  200MOL    O2528283   5.257   2.970   6.918 -0.0064 -0.2224 -0.0454
  200MOL    H2628284   5.352   2.787   6.941  1.2753 -0.8812 -2.2218
  200MOL    H2728285   5.309   2.915   6.663  0.2551 -3.0252 -1.9611
  200MOL    H2828286   5.403   2.766   6.698  2.3007  0.4815 -0.4060
  200MOL    H2928287   5.446   2.936   6.750  0.1002 -0.5067 -1.0943
  200MOL    C3028288   5.339   3.018   7.018  0.0503 -0.2417 -0.8642
  200MOL    C3128289   5.310   3.163   7.035  0.4000 -0.8481 -0.0563
  200MOL    O3228290   5.301   2.960   7.134  0.1093 -0.0060  0.3638
  200MOL    H3328291   5.443   3.004   6.991  0.0931  1.8187 -1.9025
  200MOL    H3428292   5.205   3.168   7.064 -0.3108 -0.5097 -2.6034
  200MOL    H3528293   5.340   3.215   6.944 -2.0135  2.0965  0.7543
  200MOL    H3628294   5.356   3.211   7.121 -0.8292 -0.3756  0.3576
  200MOL    C3728295   5.406   2.906   7.200 -0.5854  0.8263 -0.1712
  200MOL    C3828296   5.358   2.868   7.336 -0.3862  0.4084  0.1085
  200MOL    O3928297   5.455   2.787   7.146 -0.5069 -0.0820  0.1058
  200MOL    H4028298   5.481   2.980   7.229  0.9759 -0.4384 -0.9669
  200MOL    H4128299   5.285   2.789   7.320 -0.0234 -0.0088  0.4824
  200MOL    H4228300   5.311   2.954   7.383 -1.6189  0.4137 -1.1154
  200MOL    H4328301   5.437   2.833   7.403 -0.4173 -0.7464 -0.4398
  200MOL    C4428302   5.590   2.797   7.117 -0.4902 -0.2744  0.2000
  200MOL    C4528303   5.634   2.653   7.107  0.0207  0.4502 -0.3508
  200MOL    O4628304   5.614   2.854   6.993 -0.1330 -0.0461  0.2855
  200MOL    H4728305   5.638   2.832   7.208  1.2444  0.4767 -0.9853
  200MOL    H4828306   5.742   2.651   7.089 -0.2184  0.7231 -1.8691
  200MOL    H4928307   5.587   2.620   7.015 -0.1411  1.4924 -0.6516
  200MOL    H5028308   5.599   2.589   7.187 -1.8506  4.4795  2.2286
  200MOL    C5128309   5.719   2.945   6.992 -0.0391 -0.8646  0.1317
  200MOL    C5228310   5.754   2.947   6.849 -0.4184  0.3352 -0.3729
  200MOL    O5328311   5.685   3.075   7.029 -0.2561 -0.3956  0.1616
  200MOL    H5428312   5.807   2.909   7.046 -0.6475 -1.5237  0.7028
  200MOL    H5528313   5.838   3.014   6.835  0.2023  0.0046  1.6763
  200MOL    H5628314   5.672   2.988   6.789 -0.8013 -0.4134 -0.3709
  200MOL    H5728315   5.781   2.846   6.819  0.5238  0.5637 -0.2981
  200MOL    C5828316   5.762   3.133   7.138  0.2253 -0.1001  0.1754
  200MOL    C5928317   5.742   3.283   7.133  0.4314  0.5014 -0.2322
  200MOL    O6028318   5.712   3.079   7.258  0.8861  0.1080 -0.7566
  200MOL    H6128319   5.867   3.108   7.122  0.8501  2.1454  0.6269
  200MOL    H6228320   5.642   3.299   7.172  0.8236  0.0425  0.9648
  200MOL    H6328321   5.756   3.327   7.034  0.1217 -2.8234 -1.8040
  200MOL    H6428322   5.812   3.324   7.206  1.4552 -1.1614 -0.2614
  200MOL    C6528323   5.791   3.104   7.367  0.0467  0.8019 -0.4951
  200MOL    C6628324   5.692   3.087   7.481  0.7955 -0.0169 -0.4242
  200MOL    O6728325   5.881   3.006   7.385  0.0065 -0.2683  0.8943
  200MOL    H6828326   5.835   3.204   7.377 -2.0128  1.6329  0.6347
  200MOL    H6928327   5.739   3.092   7.579 -0.3070 -3.3966  0.3456
  200MOL    H7028328   5.650   2.986   7.475  0.9743 -0.0973 -0.3054
  200MOL    H7128329   5.604   3.152   7.479  0.8324  0.1112  1.2880
  200MOL    C7228330   6.004   3.025   7.323  0.7624  0.1994 -0.4168
  200MOL    C7328331   6.109   2.989   7.426  0.4145 -0.0684 -0.7731
  200MOL    O7428332   6.020   2.935   7.219 -0.3185  0.2323  0.2019
  200MOL    H7528333   6.027   3.128   7.297  1.4009 -0.5265 -2.8080
  200MOL    H7628334   6.212   3.010   7.398  0.2980  2.5312  0.5399
  200MOL    H7728335   6.094   2.882   7.443 -1.0034 -0.3083 -3.3139
  200MOL    H7828336   6.075   3.039   7.516 -1.8283  0.3602 -1.8292
  200MOL    C7928337   6.128   2.971   7.124 -0.0878  0.7814  0.5607
  200MOL    C8028338   6.127   2.863   7.012  0.6091  0.4742  0.3343
  200MOL    O8128339   6.102   3.092   7.057  0.5205  0.1828 -0.3025
  200MOL    H8228340   6.227   2.963   7.169  0.5478  0.8617 -0.7965
  200MOL    H8328341   6.130   2.767   7.064  2.1099  0.2286 -0.1875
  200MOL    H8428342   6.200   2.877   6.932  1.0478 -1.5384  0.3530
  200MOL    H8528343   6.028   2.859   6.967  0.4502 -0.9672  0.8009
  200MOL    C8628344   6.211   3.176   7.052  0.7424  0.2182  0.0846
  200MOL    C8728345   6.171   3.311   6.997  0.1318  0.0881  0.6330
  200MOL    O8828346   6.275   3.191   7.177 -0.2040 -0.3161 -0.5686
  200MOL    H8928347   6.278   3.126   6.981  1.0400 -0.0386  0.5444
  200MOL    H9028348   6.263   3.359   6.966 -0.1265  1.1110  1.4350
  200MOL    H9128349   6.122   3.367   7.077  1.2979  0.1036  1.3442
  200MOL    H9228350   6.115   3.297   6.904  1.8224  1.5509 -0.6329
  200MOL    C9328351   6.414   3.208   7.158  0.6029 -0.2932  0.2342
  200MOL    C9428352   6.468   3.282   7.279  0.0839  0.5256  0.0023
  200MOL    O9528353   6.479   3.086   7.139 -0.3578  0.4030 -0.3452
  200MOL    H9628354   6.438   3.272   7.072  2.7437 -2.8300 -1.1160
  200MOL    H9728355   6.422   3.381   7.290 -0.2587  0.4690 -0.8615
  200MOL    H9828356   6.576   3.280   7.289  0.0480 -1.6221  0.2127
  200MOL    H9928357   6.430   3.224   7.363 -0.6189 -2.0323 -2.0486
  200MOL   C10028358   6.564   3.090   7.030 -0.0675 -0.7039 -1.4335
  200MOL   C10128359   6.640   2.957   7.029  0.7779  0.6243 -0.1178
  200MOL   O10228360   6.493   3.100   6.906 -0.1630  0.5178  0.3141
  200MOL   H10328361   6.642   3.164   7.049 -1.8903  1.0126 -0.4242
  200MOL   H10428362   6.717   2.953   6.952  1.3235  0.3751  0.4397
  200MOL   H10528363   6.576   2.876   6.996 -1.2414  1.9825  0.3483
  200MOL   H10628364   6.697   2.946   7.121 -1.7515 -1.3880  1.2669
  200MOL   C10728365   6.550   3.179   6.809 -0.1577  0.3806  0.4361
  200MOL   C10828366   6.479   3.139   6.687  0.6112  0.2199  0.4308
  200MOL   O10928367   6.508   3.315   6.831 -0.6916  0.2987 -0.6347
  200MOL   H11028368   6.657   3.159   6.802 -0.5669 -1.2521 -1.5131
  200MOL   H11128369   6.516   3.037   6.670  2.4006  1.0939 -1.1501
  200MOL   H11228370   6.515   3.200   6.604  1.2041 -1.0428 -0.2665
  200MOL   H11328371   6.372   3.140   6.704  0.6799 -2.4180  1.3579
  200MOL   C11428372   6.606   3.402   6.853  0.1801  0.0496  0.0422
  200MOL   C11528373   6.534   3.536   6.861 -0.0792 -0.0834 -0.8299
  200MOL   O11628374   6.647   3.394   6.984  0.3231 -0.5850 -0.0286
  200MOL   H11728375   6.680   3.411   6.773  0.0801  1.1229  0.0626
  200MOL   H11828376   6.447   3.514   6.924 -0.8469 -2.3954 -2.6198
  200MOL   H11928377   6.506   3.577   6.764  0.7037  1.1870 -0.5238
  200MOL   H12028378   6.594   3.607   6.917  1.0155 -0.1931 -1.8494
  200MOL   C12128379   6.787   3.400   6.991 -0.7221  0.1067  0.6897
  200MOL   C12228380   6.826   3.422   7.145  0.8240 -0.1437  0.4438
  200MOL   O12328381   6.839   3.274   6.956 -0.4759 -0.2745 -0.5627
  200MOL   H12428382   6.838   3.479   6.936 -1.4621  0.0082 -0.1310
  200MOL   H12528383   6.795   3.334   7.200  0.5352 -0.5355 -0.3384
  200MOL   H12628384   6.760   3.502   7.181  1.9608  1.3770 -0.7518
  200MOL   H12728385   6.932   3.444   7.158  0.1089  2.2479  2.6457
  200MOL   C12828386   6.936   3.277   6.860 -0.3087  0.0891  0.1214
  200MOL   C12928387   6.992   3.137   6.849  0.4346 -0.1664 -0.3871
  200MOL   O13028388   6.884   3.307   6.732 -0.1782  0.0666  0.1767
  200MOL   H13128389   7.020   3.334   6.901  0.6213 -1.4375  0.3866
  200MOL   H13228390   7.087   3.132   6.796  0.0166 -2.5150 -0.9662
  200MOL   H13328391   6.921   3.067   6.806 -0.1443 -0.1084  0.4674
  200MOL   H13428392   7.019   3.100   6.948  1.4896 -1.3430 -1.1050
  200MOL   C13528393   6.959   3.401   6.660  0.2339 -0.0169 -0.3564
  200MOL   C13628394   6.916   3.402   6.513 -0.2562 -0.1167 -0.2519
  200MOL   O13728395   6.943   3.531   6.709 -0.2812  0.0506  0.1678
  200MOL   H13828396   7.066   3.383   6.657  0.9384  3.8046 -0.2025
  200MOL   H13928397   6.810   3.421   6.502 -0.8194 -1.1828  2.8711
  200MOL   H14028398   6.928   3.308   6.459 -0.5875 -0.7845  0.8314
  200MOL   H14128399   6.969   3.472   6.449  1.0524 -0.0715  0.8586
  200MOL   H14228400   7.021   3.557   6.756 -1.3058  0.3348  1.7658
  201MOL     C128401   2.123   3.020   2.040 -0.6938  0.2291 -0.4330
  201MOL     C228402   2.251   3.028   2.123 -0.3288  0.6415 -0.0105
  201MOL     O328403   2.089   3.158   2.028  0.9238  0.1412 -0.3537
  201MOL     H428404   2.048   2.966   2.097  0.8032 -1.2269  0.2090
  201MOL     H528405   2.303   3.105   2.067 -0.2078  0.8742  0.4273
  201MOL     H628406   2.301   2.931   2.119  0.1498  0.8770  0.3776
  201MOL     H728407   2.236   3.060   2.226  0.9692  0.7192  0.1583
  201MOL     H828408   2.140   2.962   1.950 -1.2090 -1.2176  0.3840
  201MOL     C928409   1.962   3.161   1.969 -0.2187  0.4177  0.1200
  201MOL    C1028410   1.941   3.305   1.925  0.2886 -0.7290  0.2845
  201MOL    O1128411   1.965   3.091   1.845  0.3983  0.3734  0.3566
  201MOL    H1228412   1.890   3.132   2.046 -0.1346  1.0068  0.4294
  201MOL    H1328413   2.031   3.356   1.891  0.6562 -0.7946  1.1413
  201MOL    H1428414   1.893   3.359   2.006  0.1430  0.6433 -0.7093
  201MOL    H1528415   1.871   3.301   1.842 -2.3926 -0.0349  2.4506
  201MOL    C1628416   1.853   3.015   1.830 -0.2444 -0.5275  1.2292
  201MOL    C1728417   1.842   2.973   1.674  0.2718  0.5318 -0.3956
  201MOL    O1828418   1.873   2.893   1.899  0.0920  0.2619 -0.7677
  201MOL    H1928419   1.765   3.074   1.854 -0.9395 -1.3568  0.7474
  201MOL    H2028420   1.939   2.940   1.635 -0.5317  0.6207 -2.5281
  201MOL    H2128421   1.800   3.053   1.613 -0.2356  0.9045  0.4303
  201MOL    H2228422   1.774   2.890   1.663  1.3263 -0.2970 -0.7967
  201MOL    C2328423   1.763   2.852   1.978 -0.0511 -0.2324  0.4970
  201MOL    C2428424   1.790   2.710   2.028 -0.5885 -0.3389  0.1409
  201MOL    O2528425   1.758   2.931   2.093  0.5262  0.8170  0.0706
  201MOL    H2628426   1.674   2.860   1.916  1.0863 -0.1770 -1.1782
  201MOL    H2728427   1.860   2.701   2.111 -1.5144 -2.5759  0.7245
  201MOL    H2828428   1.829   2.652   1.944  0.1248  0.2369  0.0699
  201MOL    H2928429   1.693   2.667   2.052  0.3068 -1.3525  1.9992
  201MOL    C3028430   1.638   3.002   2.115 -0.0704  0.6363 -0.0742
  201MOL    C3128431   1.649   3.063   2.257 -0.9046  0.3611  0.1467
  201MOL    O3228432   1.622   3.108   2.029  0.0840 -0.9013  0.9168
  201MOL    H3328433   1.552   2.935   2.121 -0.9278  1.8433  1.6352
  201MOL    H3428434   1.701   3.158   2.256  1.2126 -0.7757 -0.0978
  201MOL    H3528435   1.704   2.990   2.316 -2.0594 -1.6608 -1.2024
  201MOL    H3628436   1.547   3.071   2.295 -0.7582  1.1641  0.3760
  201MOL    C3728437   1.503   3.113   1.957  0.7640  0.2190 -0.2414
  201MOL    C3828438   1.488   3.253   1.900 -1.0809 -1.1892  0.1095
  201MOL    O3928439   1.511   3.016   1.850 -0.8621  0.3724 -0.3047
  201MOL    H4028440   1.425   3.091   2.029  1.7170  0.3404  0.8319
  201MOL    H4128441   1.396   3.268   1.845 -1.4654  0.6455  1.2024
  201MOL    H4228442   1.578   3.283   1.846 -0.5857 -2.7750  0.0225
  201MOL    H4328443   1.497   3.326   1.981 -0.1622 -0.4227 -0.6685
  201MOL    C4428444   1.402   2.932   1.836  0.3435  0.0032  0.0408
  201MOL    C4528445   1.424   2.834   1.726  0.4822  0.4554  0.2708
  201MOL    O4628446   1.375   2.866   1.955 -0.4061 -0.4442  0.0646
  201MOL    H4728447   1.323   3.002   1.808  0.5923  0.3811  0.2813
  201MOL    H4828448   1.437   2.892   1.635 -0.7073 -2.8839 -2.1541
  201MOL    H4928449   1.337   2.769   1.715  0.7347  0.2368 -0.4405
  201MOL    H5028450   1.513   2.772   1.741  0.1090 -0.0744  0.3232
  201MOL    C5128451   1.239   2.867   1.987 -0.4782  0.5287  0.1255
  201MOL    C5228452   1.218   2.758   2.091 -0.0452  0.6638 -0.2702
  201MOL    O5328453   1.216   2.988   2.063 -0.7076 -0.5673  0.0234
  201MOL    H5428454   1.175   2.845   1.901  1.6332 -0.6303 -1.1983
  201MOL    H5528455   1.232   2.658   2.051  0.6283  0.4577  0.4748
  201MOL    H5628456   1.115   2.757   2.125  0.7763 -2.7919  2.3501
  201MOL    H5728457   1.280   2.775   2.179 -0.5922  0.6358  0.1225
  201MOL    C5828458   1.108   3.060   2.001  0.0208 -0.6341 -0.5989
  201MOL    C5928459   1.069   3.177   2.097  0.6055 -0.4289  0.9462
  201MOL    O6028460   1.140   3.120   1.881  0.0019 -0.5547 -0.1984
  201MOL    H6128461   1.023   2.992   1.996 -1.4505  1.2005 -0.9305
  201MOL    H6228462   0.985   3.238   2.064  0.2684 -0.8475  1.0215
  201MOL    H6328463   1.151   3.240   2.129  0.5905 -0.0053  0.1632
  201MOL    H6428464   1.021   3.129   2.183  1.6107 -2.1486  0.5742
  201MOL    C6528465   1.040   3.114   1.788 -0.3863 -0.3008  0.8441
  201MOL    C6628466   1.072   3.228   1.695 -0.1588 -0.0944  0.5522
  201MOL    O6728467   1.058   2.993   1.718 -0.1439  0.0289  0.2064
  201MOL    H6828468   0.941   3.119   1.835 -0.9752  2.4096 -0.6097
  201MOL    H6928469   1.178   3.243   1.680 -0.7761  3.1685 -1.0240
  201MOL    H7028470   1.026   3.321   1.731  1.3075  0.2800  1.5052
  201MOL    H7128471   1.020   3.207   1.602 -3.5282  0.8419  2.1350
  201MOL    C7228472   0.945   2.928   1.701 -0.0876  0.7884 -0.2306
  201MOL    C7328473   0.988   2.814   1.609  0.4658  1.2758 -0.1069
  201MOL    O7428474   0.894   2.869   1.818 -0.5814  0.0101  0.1248
  201MOL    H7528475   0.867   2.988   1.655 -0.9915 -1.8735 -2.3175
  201MOL    H7628476   1.042   2.844   1.520 -1.2920  0.3516 -1.5088
  201MOL    H7728477   0.897   2.765   1.577  0.9438  0.7716 -0.6997
  201MOL    H7828478   1.044   2.737   1.663 -0.2374  0.4103 -0.5887
  201MOL    C7928479   0.754   2.852   1.824 -0.2863  0.4553 -0.5910
  201MOL    C8028480   0.732   2.709   1.850  0.0129 -0.4416  0.3710
  201MOL    O8128481   0.687   2.931   1.918 -0.2937  0.1914  1.0877
  201MOL    H8228482   0.708   2.872   1.728  1.8912  0.8855 -1.5688
  201MOL    H8328483   0.805   2.659   1.786 -0.0216 -0.4207  0.3145
  201MOL    H8428484   0.629   2.678   1.831 -0.3512 -1.2446  3.3691
  201MOL    H8528485   0.747   2.670   1.950 -0.9507 -2.5596 -0.2786
  201MOL    C8628486   0.610   3.037   1.861  0.8550  0.0956  0.2391
  201MOL    C8728487   0.510   3.083   1.963 -0.5881 -0.7508 -0.7486
  201MOL    O8828488   0.688   3.144   1.827  0.0355 -0.6230 -0.3857
  201MOL    H8928489   0.557   3.000   1.773  0.3281  0.6891  0.3082
  201MOL    H9028490   0.479   2.993   2.016 -0.7311  0.0224  0.4985
  201MOL    H9128491   0.423   3.119   1.909  1.0379  0.6245 -2.4851
  201MOL    H9228492   0.555   3.159   2.027 -1.7439 -1.5229  1.0340
  201MOL    C9328493   0.638   3.214   1.713  1.0711 -0.0466  0.5698
  201MOL    C9428494   0.701   3.350   1.713  0.2628 -0.0972 -0.0096
  201MOL    O9528495   0.682   3.155   1.591  0.2653  0.0812  0.3811
  201MOL    H9628496   0.530   3.228   1.718  0.9058 -1.2728  0.6334
  201MOL    H9728497   0.809   3.352   1.696 -0.0587 -0.0099 -2.2460
  201MOL    H9828498   0.684   3.408   1.803 -0.4895  0.6706 -0.6313
  201MOL    H9928499   0.669   3.393   1.617 -0.2859  1.1289  0.7059
  201MOL   C10028500   0.576   3.141   1.502  0.0631 -0.2644  0.1524
  201MOL   C10128501   0.642   3.131   1.358 -0.1616  0.4153  0.2553
  201MOL   O10228502   0.496   3.039   1.532  0.3184  0.0222  0.0907
  201MOL   H10328503   0.518   3.233   1.507  1.0952  0.3336  1.3203
  201MOL   H10428504   0.712   3.046   1.359  0.0280  0.5622 -0.1550
  201MOL   H10528505   0.680   3.228   1.326 -0.1149  0.5901  0.8502
  201MOL   H10628506   0.565   3.105   1.285  0.7077 -1.0057 -0.1873
  201MOL   C10728507   0.359   3.056   1.512  0.4388 -0.5134  0.0560
  201MOL   C10828508   0.299   2.924   1.549 -0.2003 -0.4575  0.2129
  201MOL   O10928509   0.304   3.156   1.586 -0.8702 -0.2329  0.4984
  201MOL   H11028510   0.356   3.067   1.403 -1.8376  2.1892  0.3270
  201MOL   H11128511   0.294   2.909   1.656  1.1729 -2.6637 -0.0076
  201MOL   H11228512   0.335   2.832   1.502 -2.5618 -1.4261  0.2350
  201MOL   H11328513   0.192   2.938   1.529  0.2447  0.9141 -1.3264
  201MOL   C11428514   0.187   3.210   1.535 -0.7016 -0.2483  0.1072
  201MOL   C11528515   0.146   3.317   1.635  0.0507 -0.4846 -0.0186
  201MOL   O11628516   0.211   3.276   1.413  0.1178  0.3875  0.8430
  201MOL   H11728517   0.109   3.134   1.536 -1.2463  0.3021  1.2250
  201MOL   H11828518   0.039   3.334   1.622 -0.1553 -0.8089  1.2057
  201MOL   H11928519   0.206   3.406   1.617  0.1417 -0.2510  1.3687
  201MOL   H12028520   0.168   3.291   1.739 -0.4987 -0.5138  0.0906
  201MOL   C12128521   0.127   3.245   1.308  0.6464  0.2885  0.5628
  201MOL   C12228522   0.176   3.331   1.187  0.3333  0.3027  0.7886
  201MOL   O12328523   0.142   3.111   1.271 -0.0856  0.3305  0.0405
  201MOL   H12428524   0.025   3.273   1.339  0.3490  0.4752 -0.5747
  201MOL   H12528525   0.126   3.299   1.095 -0.4567 -0.5981  1.5202
  201MOL   H12628526   0.284   3.312   1.190  0.4932  1.3628  2.1414
  201MOL   H12728527   0.160   3.435   1.215  1.1114  0.6658 -0.0768
  201MOL   C12828528   0.025   3.039   1.269 -0.4187  1.1222 -0.3701
  201MOL   C12928529   0.059   2.916   1.192 -0.3427 -0.1038 -0.4383
  201MOL   O13028530   7.897   3.004   1.398  0.0341 -0.8007 -0.1156
  201MOL   H13128531   7.867   3.089   1.204 -2.2383  0.0099  0.7497
  201MOL   H13228532   0.069   2.939   1.086  0.8021 -0.6879 -0.4663
  201MOL   H13328533   7.898   2.841   1.219  0.0395  0.2636  1.7376
  201MOL   H13428534   0.150   2.866   1.224  1.5250  0.5472 -4.5340
  201MOL   C13528535   7.768   3.037   1.428 -0.6435  0.2494 -0.0165
  201MOL   C13628536   7.708   2.901   1.472  0.2736  0.2640 -0.5582
  201MOL   O13728537   7.754   3.128   1.534 -0.3206 -0.3862 -0.5285
  201MOL   H13828538   7.714   3.071   1.340 -1.6130  0.1419  0.5366
  201MOL   H13928539   7.767   2.864   1.556  1.1859  1.0444 -0.8440
  201MOL   H14028540   7.718   2.825   1.395 -1.4667 -0.0947 -0.4633
  201MOL   H14128541   7.603   2.909   1.502  1.0139  3.4158  1.4533
  201MOL   H14228542   7.709   3.207   1.508  0.5123  0.2090 -0.1810
  202MOL     C128543   7.882   4.553   4.465 -0.1067  0.0949 -0.0394
  202MOL     C228544   7.822   4.594   4.599 -0.0299 -0.0835  0.1994
  202MOL     O328545   7.873   4.411   4.447 -0.0894 -0.4440 -0.1366
  202MOL     H428546   0.074   4.578   4.463 -0.1096  0.1506  0.5570
  202MOL     H528547   7.866   4.525   4.671 -0.1456 -1.1077 -0.7015
  202MOL     H628548   7.714   4.587   4.611  0.0401 -1.4421  0.1300
  202MOL     H728549   7.858   4.696   4.616 -0.7280  0.3944 -1.1411
  202MOL     H828550   7.832   4.607   4.385  0.9846  3.6226  1.5636
  202MOL     C928551   7.903   4.367   4.324  0.3848  0.0890  0.1729
  202MOL    C1028552   7.892   4.215   4.322 -0.0626  0.7208  0.7562
  202MOL    O1128553   7.814   4.424   4.231  0.5984 -0.6118  0.0412
  202MOL    H1228554   0.094   4.397   4.318 -0.0025  1.3871 -0.3794
  202MOL    H1328555   0.004   4.169   4.227  0.9681  0.6469  1.0720
  202MOL    H1428556   7.792   4.179   4.346  0.4660  0.4444  2.6216
  202MOL    H1528557   0.046   4.175   4.397  1.1526  1.0609 -0.1431
  202MOL    C1628558   7.876   4.484   4.122 -0.2362  0.1860 -0.3450
  202MOL    C1728559   7.762   4.563   4.056  0.5585 -0.4013  0.3031
  202MOL    O1828560   0.047   4.577   4.166 -0.3373 -0.3174  0.1129
  202MOL    H1928561   0.003   4.411   4.052 -2.0989  0.5870 -1.8727
  202MOL    H2028562   7.801   4.643   3.992  0.3008 -1.0346 -0.6549
  202MOL    H2128563   7.703   4.603   4.138  1.6580 -2.2110  2.0129
  202MOL    H2228564   7.693   4.493   4.009  0.0115  1.1259 -1.2296
  202MOL    C2328565   0.171   4.592   4.096  0.3261 -0.0581 -0.8373
  202MOL    C2428566   0.235   4.733   4.103 -0.2613 -0.7487  0.3144
  202MOL    O2528567   0.267   4.500   4.152 -0.0948  0.4350  0.3798
  202MOL    H2628568   0.156   4.564   3.992 -1.0602 -1.1456 -0.3710
  202MOL    H2728569   0.294   4.746   4.194  0.0016  1.8411 -0.1840
  202MOL    H2828570   0.172   4.821   4.094  0.9257  0.0969  0.1386
  202MOL    H2928571   0.305   4.751   4.022 -0.5147  3.1558  0.8647
  202MOL    C3028572   0.322   4.409   4.058 -0.3002 -0.2539 -0.0679
  202MOL    C3128573   0.430   4.321   4.114  0.3725 -0.1482  0.4893
  202MOL    O3228574   0.226   4.321   4.011 -0.9463  0.1453 -0.6866
  202MOL    H3328575   0.383   4.461   3.985 -1.2314 -0.9261 -1.3427
  202MOL    H3428576   0.405   4.308   4.219  1.2579 -0.4627  0.6629
  202MOL    H3528577   0.522   4.380   4.107  0.4188 -0.2993 -0.2689
  202MOL    H3628578   0.446   4.229   4.057  2.1846  1.6532 -2.0696
  202MOL    C3728579   0.230   4.321   3.871  0.2921 -0.7011  0.2619
  202MOL    C3828580   0.156   4.203   3.816 -0.1316 -0.0837  0.3184
  202MOL    O3928581   0.159   4.429   3.821 -0.1615 -0.4189 -0.5258
  202MOL    H4028582   0.336   4.323   3.843 -0.4447  0.9037 -2.6011
  202MOL    H4128583   0.050   4.209   3.842 -0.7328  1.1707 -2.3176
  202MOL    H4228584   0.194   4.107   3.853  2.8172  0.2950 -1.5726
  202MOL    H4328585   0.174   4.209   3.709 -0.2544 -2.9333  0.0832
  202MOL    C4428586   0.219   4.514   3.718  0.3233  0.0418 -0.3765
  202MOL    C4528587   0.110   4.621   3.687 -0.6553  0.3289 -0.5386
  202MOL    O4628588   0.321   4.585   3.771  0.0328 -0.3433 -0.4682
  202MOL    H4728589   0.229   4.466   3.621  1.3975 -1.8392  0.6388
  202MOL    H4828590   0.028   4.570   3.638 -0.3476 -1.9377  1.2774
  202MOL    H4928591   0.157   4.698   3.625  0.5527 -2.3176 -3.0145
  202MOL    H5028592   0.075   4.658   3.783 -1.0386  1.7863 -1.2124
  202MOL    C5128593   0.438   4.556   3.700 -0.0601  0.2719  0.0440
  202MOL    C5228594   0.556   4.645   3.757  0.1699  0.1670  0.8294
  202MOL    O5328595   0.470   4.423   3.714 -0.1374 -0.6120 -0.4469
  202MOL    H5428596   0.426   4.588   3.597 -2.3785  1.2392  0.5837
  202MOL    H5528597   0.558   4.629   3.865  0.8815  0.1064  0.8091
  202MOL    H5628598   0.532   4.749   3.733 -0.3770 -0.2439 -0.4583
  202MOL    H5728599   0.649   4.610   3.711 -0.2376  0.9823 -0.6316
  202MOL    C5828600   0.542   4.356   3.617  0.0028  0.3241 -0.3881
  202MOL    C5928601   0.540   4.204   3.656 -0.7693  0.2369  0.2351
  202MOL    O6028602   0.473   4.377   3.498 -0.1312 -0.0575 -0.3021
  202MOL    H6128603   0.637   4.408   3.627  0.0795  0.4750 -1.7889
  202MOL    H6228604   0.440   4.161   3.667 -0.8805  0.9206  2.0509
  202MOL    H6328605   0.590   4.184   3.751 -1.4780 -3.1242 -0.0564
  202MOL    H6428606   0.596   4.154   3.577 -1.9654 -2.5317  1.0984
  202MOL    C6528607   0.553   4.413   3.388  0.5349  0.0450 -0.1279
  202MOL    C6628608   0.461   4.419   3.266 -0.4742 -0.1456 -0.1045
  202MOL    O6728609   0.623   4.532   3.392  0.1674 -0.6307  0.5669
  202MOL    H6828610   0.610   4.322   3.368  1.7715  0.7057  0.3738
  202MOL    H6928611   0.518   4.423   3.174 -2.0361 -1.0998 -1.1418
  202MOL    H7028612   0.409   4.513   3.287  0.6731  0.1887  1.3336
  202MOL    H7128613   0.389   4.337   3.261  1.1148 -1.5729  0.1523
  202MOL    C7228614   0.761   4.518   3.399  0.3350 -0.0847 -0.3116
  202MOL    C7328615   0.810   4.663   3.378 -0.4298  0.2510  1.1258
  202MOL    O7428616   0.812   4.470   3.521  0.0146  0.1406  0.6881
  202MOL    H7528617   0.788   4.453   3.316 -0.1628 -1.3776  0.5339
  202MOL    H7628618   0.783   4.703   3.279  1.6099 -2.7772 -0.7343
  202MOL    H7728619   0.918   4.666   3.383 -0.0989 -1.3898 -2.8408
  202MOL    H7828620   0.785   4.736   3.455  0.9170  0.3517  1.4709
  202MOL    C7928621   0.897   4.367   3.511  0.1722  0.8635 -0.1306
  202MOL    C8028622   0.954   4.344   3.654  0.9524  0.2941 -0.2453
  202MOL    O8128623   0.835   4.246   3.477 -0.2066  0.1676 -0.4618
  202MOL    H8228624   0.970   4.392   3.434  2.9659  1.4823  2.6260
  202MOL    H8328625   1.033   4.270   3.642  1.2444  0.8954 -2.2246
  202MOL    H8428626   0.883   4.319   3.733  0.2263 -1.7371 -1.5085
  202MOL    H8528627   0.996   4.441   3.681 -0.9261  1.3294 -0.9570
  202MOL    C8628628   0.901   4.175   3.382  0.3600  0.0006 -0.8584
  202MOL    C8728629   0.867   4.027   3.399 -0.0947  0.0448 -0.0713
  202MOL    O8828630   0.859   4.211   3.255  0.1650 -0.1869  0.1130
  202MOL    H8928631   1.008   4.187   3.402 -0.1045  4.6194 -0.4975
  202MOL    H9028632   0.910   3.951   3.335 -4.1023 -0.4762 -2.3113
  202MOL    H9128633   0.758   4.021   3.389 -0.0842 -1.4498  0.5061
  202MOL    H9228634   0.890   3.995   3.501  0.9269 -0.1370 -0.3536
  202MOL    C9328635   0.959   4.208   3.155 -0.4303 -0.1340 -0.0407
  202MOL    C9428636   0.897   4.242   3.019  0.8401  1.0976  0.4658
  202MOL    O9528637   1.052   4.309   3.176 -0.0431 -0.2029 -0.1475
  202MOL    H9628638   1.002   4.108   3.161 -0.1206 -0.0034 -0.0988
  202MOL    H9728639   0.803   4.189   3.001 -0.7000  3.6868  0.7105
  202MOL    H9828640   0.957   4.220   2.931 -1.2426 -1.7241 -0.3443
  202MOL    H9928641   0.864   4.345   3.032 -2.3644 -0.0321  2.0476
  202MOL   C10028642   1.194   4.271   3.176 -0.3384  0.1008 -0.7870
  202MOL   C10128643   1.267   4.409   3.157 -0.3848 -0.5819 -0.2700
  202MOL   O10228644   1.231   4.226   3.301 -0.0782 -0.2754  0.3667
  202MOL   H10328645   1.223   4.205   3.094  2.7189 -0.0051  0.3481
  202MOL   H10428646   1.375   4.390   3.157 -0.0947  1.0215 -0.7867
  202MOL   H10528647   1.234   4.473   3.238  0.9589 -2.4875  1.8431
  202MOL   H10628648   1.250   4.455   3.059  0.1970  0.3783  0.0701
  202MOL   C10728649   1.293   4.102   3.299 -0.3493  0.1422  0.0431
  202MOL   C10828650   1.327   4.080   3.444 -0.0348  0.2027 -0.2374
  202MOL   O10928651   1.200   4.008   3.272 -0.5038  0.0178 -0.1481
  202MOL   H11028652   1.381   4.097   3.235 -0.8479 -0.5828 -0.5900
  202MOL   H11128653   1.356   3.976   3.460  1.3454  0.0831 -3.1791
  202MOL   H11228654   1.250   4.110   3.515 -0.3190  1.3394 -1.0196
  202MOL   H11328655   1.422   4.131   3.464 -1.2163  2.9054 -1.2623
  202MOL   C11428656   1.233   3.920   3.164  0.1162 -0.2168  0.2776
  202MOL   C11528657   1.150   3.791   3.180 -0.5713 -0.0369 -0.7053
  202MOL   O11628658   1.190   3.977   3.039  0.4628 -0.2832 -0.4290
  202MOL   H11728659   1.336   3.885   3.162 -0.1276 -0.8672 -3.2626
  202MOL   H11828660   1.042   3.802   3.180 -0.5754  0.0672 -2.5200
  202MOL   H11928661   1.180   3.743   3.274  0.9747 -0.5581 -1.4508
  202MOL   H12028662   1.180   3.722   3.102 -0.1029 -0.7587  0.0960
  202MOL   C12128663   1.267   3.958   2.929 -0.0984  0.6737  0.7410
  202MOL   C12228664   1.175   3.971   2.807  0.7903  0.1138  0.4212
  202MOL   O12328665   1.376   4.048   2.912  0.1147 -0.0622 -0.5893
  202MOL   H12428666   1.309   3.857   2.933 -0.6851  0.3524 -1.1244
  202MOL   H12528667   1.136   4.073   2.795  1.1688  0.0352 -1.6757
  202MOL   H12628668   1.103   3.889   2.817  0.9897 -0.1548 -0.3618
  202MOL   H12728669   1.232   3.942   2.719 -1.6818 -1.0989 -0.8321
  202MOL   C12828670   1.505   4.000   2.919  0.1040  0.6488  0.2302
  202MOL   C12928671   1.606   4.115   2.885 -0.7604  0.6409 -0.1855
  202MOL   O13028672   1.534   3.950   3.049 -0.4810  0.4630  0.1861
  202MOL   H13128673   1.523   3.930   2.837  2.7353 -2.2591  3.1059
  202MOL   H13228674   1.681   4.073   2.817 -2.3116 -0.5493 -1.1745
  202MOL   H13328675   1.655   4.162   2.970  0.1224  1.9490 -1.3846
  202MOL   H13428676   1.553   4.194   2.832  1.6072  1.0654 -2.0296
  202MOL   C13528677   1.609   3.832   3.058  0.4165  0.2978  0.1575
  202MOL   C13628678   1.635   3.815   3.213  0.1998 -0.7635  0.1852
  202MOL   O13728679   1.545   3.725   2.996 -0.1749  0.0078 -0.1317
  202MOL   H13828680   1.709   3.838   3.016  0.3604 -1.0771 -0.2000
  202MOL   H13928681   1.658   3.711   3.237 -0.0757 -0.8664  0.0064
  202MOL   H14028682   1.546   3.842   3.269 -0.0614 -1.9687  0.3565
  202MOL   H14128683   1.714   3.880   3.250 -0.6727  1.7286 -2.1448
  202MOL   H14228684   1.583   3.713   2.910 -0.0990 -0.4805 -0.0309
  203MOL     C128685   6.235   7.534   0.368  0.1789  0.3061  0.2550
  203MOL     C228686   6.157   7.536   0.234 -0.4175  0.6329  0.6682
  203MOL     O328687   6.217   7.408   0.418 -0.1616 -0.0475  0.5480
  203MOL     H428688   6.191   7.604   0.439  0.1533 -1.0641  1.6119
  203MOL     H528689   6.221   7.481   0.164 -1.2187 -0.4069  0.7314
  203MOL     H628690   6.141   7.637   0.196 -3.2773  0.1326  0.4497
  203MOL     H728691   6.066   7.477   0.224  0.1134 -0.2550  1.0279
  203MOL     H828692   6.339   7.557   0.345 -0.5676  3.4277 -0.3300
  203MOL     C928693   6.280   7.368   0.537 -0.2702 -0.1370 -0.1513
  203MOL    C1028694   6.204   7.430   0.653 -0.0833 -0.3196  0.5118
  203MOL    O1128695   6.280   7.231   0.559  0.8558 -0.6300  1.2322
  203MOL    H1228696   6.378   7.416   0.540  0.3545 -1.4047 -0.2919
  203MOL    H1328697   6.100   7.397   0.644 -0.8208  1.8939  0.4885
  203MOL    H1428698   6.209   7.538   0.664  1.2830 -0.4242  1.0016
  203MOL    H1528699   6.242   7.375   0.739 -0.8714  0.9455  1.6840
  203MOL    C1628700   6.381   7.170   0.486  0.3361 -0.0350 -0.0116
  203MOL    C1728701   6.503   7.145   0.571  0.1317 -0.3877 -0.2626
  203MOL    O1828702   6.341   7.043   0.447  0.3348 -0.4194  0.4591
  203MOL    H1928703   6.421   7.231   0.405 -1.8690  0.7482 -0.5473
  203MOL    H2028704   6.459   7.110   0.664  1.5044 -3.4918 -0.7017
  203MOL    H2128705   6.560   7.237   0.582  1.4186 -1.3285  1.2805
  203MOL    H2228706   6.571   7.072   0.526  3.9086  2.3111  0.8462
  203MOL    C2328707   6.262   7.049   0.336  0.8866  0.2645  0.2958
  203MOL    C2428708   6.334   7.009   0.216 -0.2072 -0.1086  0.0237
  203MOL    O2528709   6.156   6.956   0.344 -0.9160  0.3326  0.1497
  203MOL    H2628710   6.219   7.147   0.315  0.4995  0.2152  0.8387
  203MOL    H2728711   6.418   7.077   0.200  0.3891 -0.7759  0.2411
  203MOL    H2828712   6.276   7.020   0.125 -1.1155  4.2108  1.0417
  203MOL    H2928713   6.373   6.908   0.233  0.5805 -0.3352 -2.8518
  203MOL    C3028714   6.065   6.987   0.438  0.7934  0.2439 -0.4020
  203MOL    C3128715   5.943   7.048   0.371 -0.2868  0.2718 -0.0658
  203MOL    O3228716   6.023   6.876   0.514 -0.1531  0.1761 -0.1554
  203MOL    H3328717   6.098   7.066   0.505 -0.8169 -0.2838  1.0591
  203MOL    H3428718   5.968   7.138   0.315  1.7071 -0.5309 -0.4711
  203MOL    H3528719   5.872   7.067   0.452  1.4321  1.0984  1.2806
  203MOL    H3628720   5.905   6.990   0.288 -2.2808  2.5450 -0.8104
  203MOL    C3728721   6.123   6.839   0.600 -0.1315 -0.6074  0.1860
  203MOL    C3828722   6.080   6.873   0.738 -0.4461  0.8408 -0.0345
  203MOL    O3928723   6.157   6.704   0.594  0.3699 -0.0979  0.7082
  203MOL    H4028724   6.220   6.883   0.575 -0.4651  0.1151  0.1385
  203MOL    H4128725   6.067   6.981   0.745  0.7065  1.0255 -0.6931
  203MOL    H4228726   6.157   6.835   0.806  0.5231 -0.2988 -1.7342
  203MOL    H4328727   5.985   6.822   0.748 -0.8926  1.9541  1.6814
  203MOL    C4428728   6.243   6.665   0.487  0.4691  0.1215 -0.7786
  203MOL    C4528729   6.367   6.609   0.551  0.3765 -0.6365  0.0022
  203MOL    O4628730   6.188   6.554   0.421  0.0929 -0.2687  0.2340
  203MOL    H4728731   6.270   6.750   0.424 -1.3135  2.3968  1.4298
  203MOL    H4828732   6.333   6.517   0.598 -2.3301 -0.1331 -0.9252
  203MOL    H4928733   6.391   6.681   0.630  1.9736 -0.9240 -0.2029
  203MOL    H5028734   6.445   6.613   0.475 -0.7301  0.3221 -1.1026
  203MOL    C5128735   6.129   6.590   0.299  1.2204 -0.3341  0.4291
  203MOL    C5228736   6.215   6.533   0.186  0.1696 -0.7994  0.1600
  203MOL    O5328737   6.010   6.515   0.296 -0.6513  0.7665  0.4147
  203MOL    H5428738   6.108   6.696   0.287 -1.1237 -1.0776 -2.9591
  203MOL    H5528739   6.310   6.585   0.187 -1.4949  2.4272 -2.3412
  203MOL    H5628740   6.168   6.556   0.090 -0.4707  2.5752  1.2200
  203MOL    H5728741   6.213   6.425   0.202 -0.8909 -0.6472  1.1248
  203MOL    C5828742   5.912   6.560   0.383 -0.3181  0.0373 -0.3508
  203MOL    C5928743   5.800   6.621   0.303  0.1175  0.4118  0.3281
  203MOL    O6028744   5.865   6.461   0.464  0.3466 -0.0654  0.3830
  203MOL    H6128745   5.946   6.637   0.453 -0.4488 -0.4374  0.2390
  203MOL    H6228746   5.710   6.638   0.363 -0.1696  1.8146 -0.4862
  203MOL    H6328747   5.780   6.551   0.222  0.4571 -0.9962  1.4240
  203MOL    H6428748   5.828   6.713   0.252  2.1828 -0.6805 -0.5808
  203MOL    C6528749   5.924   6.462   0.595  0.6440  0.4295  0.7118
  203MOL    C6628750   5.832   6.540   0.685  0.5879 -0.4806  0.6686
  203MOL    O6728751   5.923   6.327   0.628 -0.0055 -0.1800 -0.7537
  203MOL    H6828752   6.027   6.495   0.608  0.9569 -0.9070  1.6850
  203MOL    H6928753   5.738   6.486   0.682  1.0081 -1.1551 -3.5099
  203MOL    H7028754   5.816   6.641   0.648  0.4838  0.2800  2.7186
  203MOL    H7128755   5.876   6.550   0.784 -0.3080  2.3577  0.8121
  203MOL    C7228756   6.049   6.261   0.605 -1.0100  0.1918  0.1601
  203MOL    C7328757   6.116   6.227   0.737 -0.0642 -0.0501 -0.0607
  203MOL    O7428758   6.019   6.143   0.542  0.1605  0.0901 -0.7038
  203MOL    H7528759   6.123   6.319   0.550 -0.9664 -1.4806 -1.5998
  203MOL    H7628760   6.046   6.175   0.803 -0.5419 -0.2324 -0.7171
  203MOL    H7728761   6.152   6.325   0.769  1.7042 -0.3718 -1.0194
  203MOL    H7828762   6.200   6.159   0.724 -1.5330 -1.8485 -0.2635
  203MOL    C7928763   6.018   6.162   0.405  0.5387 -0.6755  0.0056
  203MOL    C8028764   6.149   6.104   0.357  0.0579  0.0132  0.1820
  203MOL    O8128765   5.910   6.091   0.342  0.1762  0.2860 -0.1425
  203MOL    H8228766   6.023   6.268   0.378 -1.3381 -0.1736  1.4916
  203MOL    H8328767   6.148   5.999   0.388  1.4094 -0.3457 -0.9241
  203MOL    H8428768   6.234   6.149   0.408 -0.9107  0.7682  1.1213
  203MOL    H8528769   6.163   6.101   0.249 -0.7107  0.7266  0.0601
  203MOL    C8628770   5.785   6.141   0.383 -0.8158  0.3678 -0.4565
  203MOL    C8728771   5.719   6.192   0.258 -0.4913  0.0248 -0.8227
  203MOL    O8828772   5.703   6.040   0.432  0.6970 -0.5545 -0.4180
  203MOL    H8928773   5.784   6.227   0.450  0.0650 -0.2579  0.3698
  203MOL    H9028774   5.787   6.261   0.207 -1.6279  0.6344 -1.5470
  203MOL    H9128775   5.627   6.244   0.284  0.4852  0.8911  1.0089
  203MOL    H9228776   5.715   6.106   0.192  0.0200 -1.2093  0.7258
  203MOL    C9328777   5.684   6.045   0.573  0.0215 -0.5358  0.1711
  203MOL    C9428778   5.546   6.084   0.596  0.0666  0.0062 -0.3515
  203MOL    O9528779   5.699   5.916   0.621  0.2141  0.5496  0.0298
  203MOL    H9628780   5.752   6.111   0.627  0.5047 -0.4545 -0.5353
  203MOL    H9728781   5.514   6.178   0.552  0.0778  0.7708  1.2246
  203MOL    H9828782   5.538   6.085   0.705 -1.0249 -0.3437 -0.4223
  203MOL    H9928783   5.482   6.004   0.557 -0.0285  0.4167 -1.0315
  203MOL   C10028784   5.833   5.883   0.620  0.4270  0.0863  0.2506
  203MOL   C10128785   5.890   5.913   0.762 -0.3393  1.0130  0.3794
  203MOL   O10228786   5.849   5.748   0.597  0.2163 -0.1701  0.6811
  203MOL   H10328787   5.888   5.944   0.549 -0.3210  0.4312 -0.0414
  203MOL   H10428788   5.859   6.010   0.801  0.5696  1.7747 -0.7301
  203MOL   H10528789   5.999   5.913   0.756 -0.4320  1.5802 -1.8929
  203MOL   H10628790   5.865   5.842   0.841 -0.7299  1.1712  0.4011
  203MOL   C10728791   5.831   5.720   0.461  0.0361 -0.1572 -0.1685
  203MOL   C10828792   5.967   5.716   0.395  0.2980 -0.3023  0.2516
  203MOL   O10928793   5.776   5.601   0.441 -0.1024  0.1030 -0.2402
  203MOL   H11028794   5.780   5.797   0.403  2.9740  1.6193 -0.5062
  203MOL   H11128795   6.025   5.646   0.457 -1.2528 -0.4043  1.6128
  203MOL   H11228796   6.012   5.816   0.397 -2.2443  0.8559  1.6884
  203MOL   H11328797   5.957   5.689   0.290 -0.0525 -0.9937  0.4608
  203MOL   C11428798   5.641   5.606   0.474 -0.2097 -0.8289  0.1775
  203MOL   C11528799   5.550   5.600   0.345  0.8366 -0.0130 -0.2361
  203MOL   O11628800   5.617   5.504   0.567 -0.2707 -0.3483  0.4101
  203MOL   H11728801   5.606   5.696   0.524 -0.5422 -1.3846  0.9538
  203MOL   H11828802   5.566   5.499   0.307  0.7347  0.0686 -0.4959
  203MOL   H11928803   5.576   5.679   0.275  1.9675  1.8076  2.1647
  203MOL   H12028804   5.447   5.614   0.379  1.0155 -0.0704  0.3287
  203MOL   C12128805   5.679   5.518   0.691  0.1714 -0.3659 -0.7443
  203MOL   C12228806   5.589   5.609   0.773 -0.8274  0.1788 -0.2010
  203MOL   O12328807   5.694   5.392   0.750  0.1267  0.1872  0.2354
  203MOL   H12428808   5.783   5.550   0.684  0.3503 -1.0277 -1.1703
  203MOL   H12528809   5.489   5.579   0.743 -1.2529  2.4192 -1.0545
  203MOL   H12628810   5.606   5.716   0.760  2.3691 -0.3440 -0.7062
  203MOL   H12728811   5.611   5.578   0.876 -1.0472 -0.0727 -0.2292
  203MOL   C12828812   5.758   5.295   0.665 -0.1148  0.0587  0.3016
  203MOL   C12928813   5.904   5.285   0.722  0.5311 -0.2405  0.6032
  203MOL   O13028814   5.703   5.168   0.688  0.2630 -0.2061  0.5646
  203MOL   H13128815   5.770   5.319   0.559 -0.6552  2.1145  0.6906
  203MOL   H13228816   5.971   5.205   0.689  0.0890  0.0807 -1.1602
  203MOL   H13328817   5.902   5.288   0.830  0.2221 -0.8414  0.6178
  203MOL   H13428818   5.953   5.381   0.708  0.2075  0.4526  3.8675
  203MOL   C13528819   5.572   5.165   0.641  0.0376  0.7922  0.0118
  203MOL   C13628820   5.565   5.167   0.486 -0.2210  0.2867  1.2663
  203MOL   O13728821   5.505   5.048   0.673 -0.3520 -0.3635  0.1957
  203MOL   H13828822   5.521   5.249   0.686 -3.2971 -1.1693  0.0709
  203MOL   H13928823   5.648   5.107   0.449 -1.7328 -0.1979 -1.4560
  203MOL   H14028824   5.591   5.268   0.455 -1.4787  0.0398 -0.6635
  203MOL   H14128825   5.469   5.142   0.440 -0.0152  0.3741  0.7930
  203MOL   H14228826   5.498   5.049   0.768  0.7304  2.2052  0.2919
  204MOL     C128827   1.749   2.283   7.427  0.3300  0.6676 -1.0152
  204MOL     C228828   1.894   2.249   7.444  0.2490  0.2506  0.8396
  204MOL     O328829   1.735   2.344   7.300  0.6833  0.5003  0.6633
  204MOL     H428830   1.704   2.353   7.496  1.7763  1.9473 -1.3477
  204MOL     H528831   1.920   2.180   7.363 -0.2857 -0.0195  0.8957
  204MOL     H628832   1.899   2.186   7.533  0.1506 -1.3929 -0.2936
  204MOL     H728833   1.947   2.343   7.459  1.0902  0.1904 -1.5109
  204MOL     H828834   1.681   2.198   7.433 -0.1250  1.0005 -1.4955
  204MOL     C928835   1.623   2.423   7.283  0.1136 -0.3691 -0.4171
  204MOL    C1028836   1.634   2.502   7.153  0.1988  0.0194 -0.0876
  204MOL    O1128837   1.513   2.338   7.267  0.1678  0.5143 -0.4472
  204MOL    H1228838   1.627   2.493   7.366  2.4269  0.7130 -1.3929
  204MOL    H1328839   1.726   2.561   7.146 -1.0602  2.1100  0.4622
  204MOL    H1428840   1.555   2.576   7.143  1.4717  1.1884 -1.8286
  204MOL    H1528841   1.627   2.436   7.067 -1.2507  0.0719 -0.0251
  204MOL    C1628842   1.403   2.372   7.351  0.5063 -0.3405  0.0728
  204MOL    C1728843   1.280   2.301   7.292  0.5657 -0.0686 -0.4819
  204MOL    O1828844   1.422   2.331   7.483  0.3319  0.1214  0.5651
  204MOL    H1928845   1.384   2.479   7.339 -0.2430 -0.3332  1.1985
  204MOL    H2028846   1.191   2.315   7.353  1.2831  1.6412  0.2127
  204MOL    H2128847   1.296   2.193   7.298 -2.0831 -0.6964 -3.2411
  204MOL    H2228848   1.260   2.346   7.195  1.7859  2.2572  0.3160
  204MOL    C2328849   1.350   2.405   7.579 -0.4804 -0.4237 -0.2654
  204MOL    C2428850   1.368   2.325   7.706  0.5601 -0.9539 -0.1509
  204MOL    O2528851   1.406   2.528   7.593  0.0848 -0.2870 -0.6338
  204MOL    H2628852   1.247   2.433   7.555 -0.0182  0.3661 -1.3541
  204MOL    H2728853   1.473   2.311   7.731  0.3636 -0.0479  1.2073
  204MOL    H2828854   1.321   2.227   7.690 -2.3635  0.4119 -0.2074
  204MOL    H2928855   1.325   2.375   7.793  0.7029 -2.0603  0.5823
  204MOL    C3028856   1.329   2.626   7.664  0.2834 -0.4586 -0.2669
  204MOL    C3128857   1.422   2.743   7.692 -0.2753 -0.1239  0.2744
  204MOL    O3228858   1.228   2.675   7.582 -0.1101 -0.1138  0.1171
  204MOL    H3328859   1.295   2.602   7.764  0.2026  0.6536 -0.0219
  204MOL    H3428860   1.450   2.777   7.592 -0.7061  0.5369  0.3754
  204MOL    H3528861   1.514   2.706   7.739 -1.1560 -0.5183  1.7306
  204MOL    H3628862   1.382   2.819   7.759 -0.0854 -0.2493  0.5305
  204MOL    C3728863   1.124   2.737   7.652 -0.4156 -0.5242 -0.0987
  204MOL    C3828864   1.031   2.801   7.551 -0.0526  0.1191  0.1640
  204MOL    O3928865   1.047   2.648   7.730 -0.2596 -0.2122 -0.4332
  204MOL    H4028866   1.176   2.813   7.712  1.6590 -0.5162 -1.8353
  204MOL    H4128867   0.967   2.876   7.599  1.1955  0.8899  0.6340
  204MOL    H4228868   0.984   2.719   7.496  2.3761  0.0583 -1.8997
  204MOL    H4328869   1.085   2.853   7.472 -3.0047  0.1399 -1.9447
  204MOL    C4428870   1.038   2.690   7.868 -0.1909 -0.4219  0.4378
  204MOL    C4528871   0.963   2.582   0.034  0.9675 -0.5130  0.0292
  204MOL    O4628872   1.157   2.687   0.017  0.4996  0.8747 -0.8158
  204MOL    H4728873   0.979   2.782   7.870  0.3716 -0.0560  0.2277
  204MOL    H4828874   0.857   2.585   0.011  0.6751  2.1818  1.5575
  204MOL    H4928875   0.955   2.598   0.142 -2.1638 -2.3212  0.1187
  204MOL    H5028876   0.993   2.479   0.015  3.5286  0.2609 -0.2660
  204MOL    C5128877   1.182   2.797   0.100 -0.2902  0.2872 -0.0265
  204MOL    C5228878   1.290   2.752   0.189 -0.0685  0.0820  0.1439
  204MOL    O5328879   1.225   2.917   0.027 -0.2009 -0.1403 -0.2227
  204MOL    H5428880   1.094   2.813   0.163 -0.7993  1.2452 -0.9637
  204MOL    H5528881   1.380   2.713   0.143 -0.1092  0.2655 -0.0933
  204MOL    H5628882   1.259   2.674   0.258  1.6302 -0.7276  0.0139
  204MOL    H5728883   1.333   2.836   0.244  2.1516 -1.2030  0.4137
  204MOL    C5828884   1.175   3.031   0.082 -0.1358 -0.4849  0.4549
  204MOL    C5928885   1.228   3.147   7.913 -0.0441 -0.5531  0.5800
  204MOL    O6028886   1.032   3.031   0.073 -0.2824  0.5258  0.0577
  204MOL    H6128887   1.206   3.037   0.187  0.2746 -0.2151  0.3189
  204MOL    H6228888   1.220   3.242   0.052 -1.7047 -0.6334  0.5092
  204MOL    H6328889   1.185   3.149   7.813  1.6038 -0.1402 -0.1284
  204MOL    H6428890   1.335   3.136   7.896  0.1512  0.6624  0.9843
  204MOL    C6528891   0.979   3.077   0.193 -0.1498  0.0185 -0.1070
  204MOL    C6628892   0.833   3.097   0.169 -0.1960  0.7058  0.6704
  204MOL    O6728893   1.001   2.983   0.301 -0.1365 -0.7708 -0.1569
  204MOL    H6828894   1.022   3.176   0.204  0.6233 -0.3085 -0.1696
  204MOL    H6928895   0.794   3.161   0.249 -0.8532  2.2369 -0.8348
  204MOL    H7028896   0.774   3.006   0.174 -1.2787  1.3969  0.8241
  204MOL    H7128897   0.818   3.133   0.067 -1.1175 -0.7140  0.2996
  204MOL    C7228898   0.984   3.033   0.429  0.5164 -0.1732 -0.0132
  204MOL    C7328899   0.965   2.927   0.540 -0.1568  0.4762 -0.4082
  204MOL    O7428900   1.089   3.114   0.468  0.1627  0.3337 -0.3576
  204MOL    H7528901   0.890   3.089   0.424 -0.0444 -1.2125 -1.3931
  204MOL    H7628902   0.914   2.843   0.493 -1.7390  1.3660 -0.3043
  204MOL    H7728903   0.911   2.969   0.625  0.3977  0.7333 -0.1775
  204MOL    H7828904   1.065   2.888   0.560  0.7555  3.2175  0.5129
  204MOL    C7928905   1.048   3.233   0.534  0.1974  0.7706  0.0268
  204MOL    C8028906   1.164   3.316   0.570 -0.4408  0.6424  0.0012
  204MOL    O8128907   0.965   3.302   0.455  0.0153  1.0207  0.2916
  204MOL    H8228908   1.003   3.221   0.632  1.2071 -0.8389  0.3277
  204MOL    H8328909   1.119   3.394   0.630 -1.2866 -1.4103  2.1352
  204MOL    H8428910   1.205   3.370   0.485  0.3797 -0.2892 -0.2135
  204MOL    H8528911   1.240   3.257   0.622 -0.2133  0.3959 -0.5990
  204MOL    C8628912   0.845   3.353   0.513  0.3421  0.0825  0.5120
  204MOL    C8728913   0.771   3.426   0.401  0.5375  0.0984  0.5017
  204MOL    O8828914   0.750   3.252   0.553 -0.0959  0.1647 -0.5535
  204MOL    H8928915   0.876   3.428   0.586 -0.8765 -0.3714  1.5186
  204MOL    H9028916   0.683   3.471   0.447 -0.6037 -2.7359  1.1328
  204MOL    H9128917   0.745   3.362   0.317  1.5097 -2.5957  2.2177
  204MOL    H9228918   0.844   3.502   0.370  0.3145 -0.1968 -0.7638
  204MOL    C9328919   0.715   3.264   0.689  0.2038  0.3900 -0.3171
  204MOL    C9428920   0.573   3.199   0.695 -0.3841  0.2025  0.0270
  204MOL    O9528921   0.802   3.184   0.767 -0.3464  0.2604  0.0688
  204MOL    H9628922   0.707   3.368   0.719  1.1723  0.4192 -0.1413
  204MOL    H9728923   0.506   3.266   0.641 -0.2409  0.6899  0.4521
  204MOL    H9828924   0.536   3.203   0.798 -3.2988  2.2274 -1.0395
  204MOL    H9928925   0.573   3.096   0.661 -1.3752 -0.1769  1.1345
  204MOL   C10028926   0.847   3.255   0.878 -0.3617 -0.5375 -0.3324
  204MOL   C10128927   0.931   3.160   0.953 -0.4940  0.3405 -0.4305
  204MOL   O10228928   0.945   3.342   0.833 -0.1229  0.2323 -0.5859
  204MOL   H10328929   0.767   3.291   0.943  0.6722  1.4422 -0.1256
  204MOL   H10428930   1.009   3.117   0.890 -0.5676  0.6881 -0.7619
  204MOL   H10528931   0.869   3.082   0.996 -0.0841 -0.2792 -0.9634
  204MOL   H10628932   0.983   3.218   1.029 -1.4814  2.3247 -1.2106
  204MOL   C10728933   0.928   3.474   0.886 -0.3117  0.8854  0.1185
  204MOL   C10828934   1.054   3.558   0.864 -0.3543  0.6159  0.7693
  204MOL   O10928935   0.823   3.548   0.825 -0.3064  0.0697  0.0767
  204MOL   H11028936   0.911   3.471   0.994 -0.3103 -2.3665  0.0777
  204MOL   H11128937   1.145   3.517   0.907  1.0981  1.9422 -0.9577
  204MOL   H11228938   1.036   3.657   0.906 -2.0230  0.7671 -0.2399
  204MOL   H11328939   1.080   3.582   0.761 -1.5477 -0.2501  0.2531
  204MOL   C11428940   0.744   3.619   0.916  0.1791 -0.1494  0.0767
  204MOL   C11528941   0.655   3.707   0.829 -0.2475 -0.2170 -0.3665
  204MOL   O11628942   0.660   3.541   0.983  0.5148  0.1141  0.0201
  204MOL   H11728943   0.812   3.679   0.976  2.2045 -0.5472 -1.7477
  204MOL   H11828944   0.575   3.644   0.790  0.1224  0.7263 -2.7182
  204MOL   H11928945   0.712   3.772   0.763 -1.2222  2.5152  1.3779
  204MOL   H12028946   0.604   3.776   0.898 -0.6248 -0.1938 -0.6681
  204MOL   C12128947   0.660   3.560   1.123  0.0121  0.0869  0.3846
  204MOL   C12228948   0.531   3.502   1.173  0.3490 -0.5524 -0.2913
  204MOL   O12328949   0.760   3.482   1.185  0.1408 -0.4184 -0.3428
  204MOL   H12428950   0.656   3.666   1.152 -0.4015  0.4763 -1.0406
  204MOL   H12528951   0.508   3.398   1.150  0.5334 -0.7281  0.3145
  204MOL   H12628952   0.453   3.572   1.143  0.5335 -0.0707  0.3515
  204MOL   H12728953   0.548   3.508   1.281  0.6995  0.5854 -0.4093
  204MOL   C12828954   0.856   3.561   1.251 -0.6176  0.1378  0.2182
  204MOL   C12928955   0.941   3.457   1.322 -0.6415 -0.2053  0.0818
  204MOL   O13028956   0.945   3.644   1.180  0.2490 -0.1003 -0.1322
  204MOL   H13128957   0.821   3.617   1.338  2.7701  1.1346  0.9971
  204MOL   H13228958   0.994   3.508   1.403 -3.7192 -0.6385  2.4724
  204MOL   H13328959   1.006   3.408   1.249  0.7171 -0.1834  1.2399
  204MOL   H13428960   0.882   3.376   1.364  0.1864 -1.2424 -0.7346
  204MOL   C13528961   0.960   3.768   1.238 -0.0009 -0.4400  0.3754
  204MOL   C13628962   1.055   3.851   1.152  0.5408  0.4307  0.5682
  204MOL   O13728963   0.836   3.842   1.248 -0.0762  0.5626  0.7543
  204MOL   H13828964   1.007   3.750   1.334 -0.4989  1.0086  0.8991
  204MOL   H13928965   1.095   3.941   1.198  1.5700 -0.7133  1.9472
  204MOL   H14028966   1.005   3.859   1.055 -3.1364 -0.4620  2.2857
  204MOL   H14128967   1.137   3.781   1.136  0.2451 -0.8451  4.1260
  204MOL   H14228968   0.817   3.860   1.339 -2.3333  0.1103  0.4055
  205MOL     C128969   5.015   2.157   2.026 -0.3579  0.6534 -0.0883
  205MOL     C228970   5.104   2.281   1.998  0.8978  0.6080 -0.4515
  205MOL     O328971   5.091   2.067   2.110  0.1287 -0.7515 -0.1611
  205MOL     H428972   4.991   2.110   1.931  1.6557 -2.4030  0.8374
  205MOL     H528973   5.190   2.237   1.946  0.0613 -0.1994 -1.1805
  205MOL     H628974   5.144   2.319   2.092  0.2814 -0.4597  0.2516
  205MOL     H728975   5.052   2.364   1.951  1.0497  3.3150  3.9121
  205MOL     H828976   4.919   2.188   2.068 -0.0952 -1.4485  2.2371
  205MOL     C928977   5.032   1.942   2.123 -0.1844 -0.7201 -0.3342
  205MOL    C1028978   5.084   1.853   2.005  0.3046  0.1465 -0.5567
  205MOL    O1128979   5.079   1.876   2.233 -0.3680 -0.1205 -0.4361
  205MOL    H1228980   4.924   1.950   2.127 -0.0660  1.6089 -1.0275
  205MOL    H1328981   5.053   1.882   1.905 -2.7573 -2.5916 -0.5120
  205MOL    H1428982   5.058   1.748   2.020 -1.1691  0.5278 -0.3005
  205MOL    H1528983   5.191   1.865   1.992  0.3861 -2.2838 -2.5399
  205MOL    C1628984   5.028   1.925   2.355  0.4621  0.3576 -0.1353
  205MOL    C1728985   4.934   1.818   2.403  0.1114 -0.2106  0.8356
  205MOL    O1828986   5.136   1.932   2.448  0.6423 -0.3171  0.1946
  205MOL    H1928987   4.978   2.022   2.347  0.6970  0.5613  0.8667
  205MOL    H2028988   4.863   1.792   2.324  1.1087  1.8390 -0.7956
  205MOL    H2128989   4.863   1.859   2.474  0.0063  1.2973 -0.1216
  205MOL    H2228990   4.975   1.724   2.441  2.2622  0.5105  0.3260
  205MOL    C2328991   5.216   2.046   2.439  0.1768  0.5247  0.4994
  205MOL    C2428992   5.193   2.128   2.568  0.1170  0.4234 -0.3327
  205MOL    O2528993   5.348   2.009   2.439 -0.9954  0.0213 -0.1209
  205MOL    H2628994   5.190   2.102   2.349  1.1646  0.8982  0.4407
  205MOL    H2728995   5.256   2.216   2.579  0.5804  0.5947 -3.9270
  205MOL    H2828996   5.217   2.062   2.651  1.2743  0.1865 -0.8479
  205MOL    H2928997   5.087   2.153   2.577  0.0841  0.0288  0.4349
  205MOL    C3028998   5.396   1.966   2.311 -0.6971  0.0245 -0.1025
  205MOL    C3128999   5.459   2.084   2.243 -0.2407 -0.4846 -0.4929
  205MOL    O3229000   5.504   1.876   2.326  0.2406 -0.1689 -0.3409
  205MOL    H3329001   5.318   1.912   2.257  0.0076 -1.2960  0.1675
  205MOL    H3429002   5.535   2.132   2.306 -1.2547 -1.6767  1.7027
  205MOL    H3529003   5.389   2.167   2.228  1.1761  0.3410 -2.8789
  205MOL    H3629004   5.518   2.055   2.156  0.7625  0.3386 -0.0952
  205MOL    C3729005   5.460   1.751   2.379  0.5136  0.5813 -0.0599
  205MOL    C3829006   5.465   1.654   2.266 -0.0409 -0.0354 -0.9623
  205MOL    O3929007   5.555   1.697   2.468 -0.1617  0.3412 -0.2200
  205MOL    H4029008   5.357   1.746   2.415 -0.3543  0.9091 -2.3956
  205MOL    H4129009   5.553   1.673   2.205 -1.1934  2.0098 -2.0495
  205MOL    H4229010   5.389   1.666   2.188 -0.3492 -2.2046 -1.0436
  205MOL    H4329011   5.467   1.550   2.298 -1.8802  0.0663 -0.4479
  205MOL    C4429012   5.556   1.748   2.596  0.2222 -0.0743  0.0313
  205MOL    C4529013   5.433   1.707   2.677  0.0660 -0.1558  0.4899
  205MOL    O4629014   5.672   1.705   2.660 -0.3636  0.1337 -0.3842
  205MOL    H4729015   5.562   1.856   2.583  1.5889 -0.0038  1.0566
  205MOL    H4829016   5.425   1.599   2.692  0.9152 -0.6682 -2.5782
  205MOL    H4929017   5.345   1.743   2.624  0.2075  2.4748  1.9545
  205MOL    H5029018   5.445   1.749   2.777 -0.9838  1.4697 -0.0426
  205MOL    C5129019   5.792   1.744   2.590 -0.2332 -0.3052  0.1999
  205MOL    C5229020   5.844   1.866   2.670  0.4423 -0.0443  0.0556
  205MOL    O5329021   5.893   1.648   2.595  0.4850 -0.3748  0.0869
  205MOL    H5429022   5.774   1.769   2.485 -3.5268  3.1575  1.4905
  205MOL    H5529023   5.871   1.831   2.770  0.5847  1.5630  0.6063
  205MOL    H5629024   5.772   1.948   2.668  0.3355 -0.1631 -3.0347
  205MOL    H5729025   5.936   1.904   2.624  1.7308 -2.0627  0.9013
  205MOL    C5829026   5.860   1.527   2.532 -0.2084 -0.3455 -0.2475
  205MOL    C5929027   5.965   1.512   2.410 -0.2148  0.2703 -0.7473
  205MOL    O6029028   5.887   1.416   2.615 -0.4151  0.1038 -0.6464
  205MOL    H6129029   5.759   1.532   2.491  0.3575  0.5702 -1.5682
  205MOL    H6229030   5.946   1.421   2.353  0.2073  0.2845 -0.9098
  205MOL    H6329031   6.071   1.514   2.435 -0.2998  2.0710 -0.4968
  205MOL    H6429032   5.953   1.594   2.340 -0.1956  1.1831  0.3029
  205MOL    C6529033   5.797   1.387   2.719  0.2527 -0.4001  0.0259
  205MOL    C6629034   5.730   1.248   2.694 -0.1406 -0.3556  0.3989
  205MOL    O6729035   5.860   1.379   2.844 -0.4847  0.3806  0.2245
  205MOL    H6829036   5.723   1.467   2.730  2.8571  2.0372  0.3449
  205MOL    H6929037   5.798   1.165   2.681  0.7284  0.5372 -0.8426
  205MOL    H7029038   5.667   1.258   2.605 -1.0473 -0.6958  0.9872
  205MOL    H7129039   5.651   1.218   2.763 -0.3044 -0.6616  0.0744
  205MOL    C7229040   5.887   1.497   2.910 -0.2470 -0.7910  0.0117
  205MOL    C7329041   5.803   1.495   3.033  0.6395 -0.2639  0.2305
  205MOL    O7429042   6.019   1.496   2.962  0.2893 -0.2161  0.2482
  205MOL    H7529043   5.873   1.589   2.855 -3.2467 -0.6351  0.9464
  205MOL    H7629044   5.700   1.480   3.001  0.4537  0.0661  0.6778
  205MOL    H7729045   5.811   1.588   3.088 -3.7325  0.0036  0.6013
  205MOL    H7829046   5.826   1.415   3.103  3.2023  1.7202  1.7525
  205MOL    C7929047   6.119   1.525   2.865  0.3200 -1.1824  0.1799
  205MOL    C8029048   6.170   1.665   2.896  0.0779  0.4265  0.4798
  205MOL    O8129049   6.223   1.433   2.883 -0.0198  0.4531  0.0429
  205MOL    H8229050   6.082   1.525   2.762 -0.8318 -0.3472  0.5780
  205MOL    H8329051   6.195   1.669   3.002 -1.2325  0.7180  0.7829
  205MOL    H8429052   6.090   1.735   2.876  0.8021  0.7729 -1.2471
  205MOL    H8529053   6.253   1.691   2.830  0.6325 -3.8735 -0.6979
  205MOL    C8629054   6.192   1.312   2.814 -0.2193  0.5420 -0.1238
  205MOL    C8729055   6.284   1.301   2.689  0.2642  0.7971 -0.9527
  205MOL    O8829056   6.222   1.196   2.885  0.5497  0.8338 -0.2372
  205MOL    H8929057   6.086   1.310   2.786  0.0127 -3.6321 -0.9523
  205MOL    H9029058   6.260   1.382   2.619 -1.2204 -0.4203 -1.8780
  205MOL    H9129059   6.265   1.199   2.655  1.2408  0.6908 -1.2024
  205MOL    H9229060   6.389   1.317   2.714 -0.2309  2.5272  0.1341
  205MOL    C9329061   6.114   1.147   2.955 -0.2122  0.6302 -0.3418
  205MOL    C9429062   6.061   1.020   2.884 -0.0845  0.8431 -1.6595
  205MOL    O9529063   6.141   1.117   3.090  0.6452  0.2092 -0.0260
  205MOL    H9629064   6.027   1.213   2.964 -0.6787 -0.2518  1.6764
  205MOL    H9729065   5.975   0.994   2.945 -0.0936  0.8051 -1.6879
  205MOL    H9829066   6.138   0.942   2.886  0.3780  1.3333 -0.2519
  205MOL    H9929067   6.014   1.040   2.788 -2.9916  0.3542 -0.3943
  205MOL   C10029068   6.184   1.224   3.161  0.0433 -0.3759  0.2491
  205MOL   C10129069   6.079   1.241   3.267  0.0409 -0.2905 -0.4409
  205MOL   O10229070   6.296   1.194   3.233 -0.4310 -0.7287  0.7238
  205MOL   H10329071   6.209   1.313   3.104 -0.1105 -1.6940 -1.9539
  205MOL   H10429072   6.056   1.145   3.312 -0.4788 -0.0055 -0.0933
  205MOL   H10529073   5.991   1.277   3.213  0.5274 -0.1537 -1.1531
  205MOL   H10629074   6.103   1.310   3.347  1.8960 -1.9136  0.4543
  205MOL   C10729075   6.409   1.180   3.147  0.0817  0.7377 -0.2829
  205MOL   C10829076   6.493   1.313   3.159 -0.3831  0.1304  0.3663
  205MOL   O10929077   6.485   1.074   3.184 -0.4214 -0.2353 -0.0930
  205MOL   H11029078   6.390   1.182   3.039  2.2924 -0.7938 -0.7106
  205MOL   H11129079   6.525   1.326   3.263  1.8578 -0.7117 -0.1914
  205MOL   H11229080   6.433   1.394   3.118 -0.3626  0.9340  1.8826
  205MOL   H11329081   6.581   1.303   3.094  0.6912 -1.5980  2.0307
  205MOL   C11429082   6.428   0.949   3.145 -0.5577  0.5064  0.7199
  205MOL   C11529083   6.501   0.902   3.013  0.3233 -0.3368 -0.4669
  205MOL   O11629084   6.428   0.846   3.244 -0.0633 -0.6742  0.2661
  205MOL   H11729085   6.323   0.961   3.122 -0.2008 -0.7349 -1.6976
  205MOL   H11829086   6.473   0.967   2.930  1.7243  0.9163  0.0102
  205MOL   H11929087   6.470   0.800   2.994  0.7264 -0.5619  0.0815
  205MOL   H12029088   6.610   0.902   3.015  0.3409  1.6713  2.0116
  205MOL   C12129089   6.339   0.877   3.345 -0.0505  0.5242  0.0267
  205MOL   C12229090   6.218   0.779   3.332 -0.5330 -0.3116 -0.1756
  205MOL   O12329091   6.391   0.862   3.472 -0.4780 -0.2898  0.0068
  205MOL   H12429092   6.295   0.977   3.336 -3.1421 -0.6176  1.7993
  205MOL   H12529093   6.254   0.680   3.305  2.8308  1.0295 -0.8994
  205MOL   H12629094   6.147   0.818   3.260 -3.0474 -0.3862  2.1869
  205MOL   H12729095   6.164   0.783   3.427 -2.2862 -1.4063 -1.0947
  205MOL   C12829096   6.495   0.954   3.505 -0.0450  0.6626 -0.1573
  205MOL   C12929097   6.468   1.004   3.644 -0.5452  0.2548  0.1324
  205MOL   O13029098   6.617   0.891   3.505 -0.8052 -0.4932  0.0254
  205MOL   H13129099   6.501   1.042   3.441  0.5427  0.7872  0.0656
  205MOL   H13229100   6.374   1.057   3.656 -0.9863 -0.3599 -0.5607
  205MOL   H13329101   6.548   1.073   3.673 -0.7866 -0.2728  2.1269
  205MOL   H13429102   6.472   0.926   3.719 -1.8452  0.0743  0.0187
  205MOL   C13529103   6.674   0.858   3.382  0.8429  0.0075 -0.3493
  205MOL   C13629104   6.818   0.857   3.403  0.2903 -0.6886 -0.3933
  205MOL   O13729105   6.637   0.727   3.343  0.5251 -0.1568 -0.2674
  205MOL   H13829106   6.664   0.930   3.300 -0.1373  1.8322  1.3330
  205MOL   H13929107   6.849   0.783   3.476 -1.7763 -0.1005  1.1229
  205MOL   H14029108   6.860   0.954   3.430  0.6625 -1.2997  1.2879
  205MOL   H14129109   6.876   0.838   3.312 -3.0139 -3.8345 -1.9548
  205MOL   H14229110   6.546   0.725   3.315  1.3737 -1.9831 -3.1272
  206MOL     C129111   4.296   5.399   7.634  0.2146  0.3146  0.1061
  206MOL     C229112   4.185   5.320   7.705 -0.1896 -0.3624  0.2641
  206MOL     O329113   4.325   5.510   7.715 -0.3965 -0.1962  0.5875
  206MOL     H429114   4.248   5.433   7.542  0.3134 -0.1467 -0.1179
  206MOL     H529115   4.137   5.257   7.630 -1.1503  1.8248 -1.0151
  206MOL     H629116   4.105   5.377   7.754  0.3630 -3.1276  4.6205
  206MOL     H729117   4.235   5.260   7.781  1.9796 -0.2335 -1.0321
  206MOL     H829118   4.385   5.340   7.610  0.2642  0.8992 -1.2059
  206MOL     C929119   4.435   5.593   7.673 -0.5676 -0.6615 -0.1240
  206MOL    C1029120   4.385   5.687   7.560  0.2975 -0.0489 -0.2203
  206MOL    O1129121   4.468   5.667   7.783  0.2207 -0.3546 -0.2171
  206MOL    H1229122   4.518   5.534   7.636  0.3026 -0.0287  0.7755
  206MOL    H1329123   4.370   5.633   7.466 -0.0480  2.5004 -1.6580
  206MOL    H1429124   4.456   5.768   7.543 -1.1345  1.2168 -0.2701
  206MOL    H1529125   4.291   5.734   7.586  0.3588  0.0701 -0.2176
  206MOL    C1629126   4.546   5.605   7.880  0.8997  0.3494 -0.0972
  206MOL    C1729127   4.694   5.607   7.841  0.1085 -0.0002 -0.3505
  206MOL    O1829128   4.532   5.688   0.079 -0.1367  0.8110  0.0518
  206MOL    H1929129   4.510   5.508   0.000  0.5034  0.4917 -0.1030
  206MOL    H2029130   4.727   5.529   7.772 -0.8533  0.1482 -0.9815
  206MOL    H2129131   4.756   5.586   0.014  0.7977  1.4640 -0.4612
  206MOL    H2229132   4.723   5.701   7.793  0.1200 -0.2318 -0.8035
  206MOL    C2329133   4.413   5.683   0.153 -0.1377 -0.5781  0.0876
  206MOL    C2429134   4.433   5.603   0.276  0.6588  0.9028 -0.3262
  206MOL    O2529135   4.377   5.812   0.194 -0.3465  0.0293  0.6788
  206MOL    H2629136   4.341   5.634   0.086  0.1783  0.4807 -1.0411
  206MOL    H2729137   4.459   5.498   0.259 -1.9790  0.2954 -0.8235
  206MOL    H2829138   4.333   5.598   0.321  1.1479  1.2496  0.8167
  206MOL    H2929139   4.504   5.651   0.343 -0.7464  1.1320  1.0234
  206MOL    C3029140   4.336   5.890   0.086 -0.2113 -0.1344 -0.9730
  206MOL    C3129141   4.183   5.890   0.080  0.2883 -0.0580  1.1301
  206MOL    O3229142   4.377   6.030   0.091 -0.1491  0.4534  0.1596
  206MOL    H3329143   4.370   5.843   7.908 -3.6847 -0.9175 -1.9425
  206MOL    H3429144   4.139   5.791   0.094  1.1799 -0.8763 -1.5238
  206MOL    H3529145   4.157   5.928   7.895  0.0383  1.8640  1.9005
  206MOL    H3629146   4.140   5.955   0.157 -3.4472 -2.6164  1.3563
  206MOL    C3729147   4.515   6.039   0.070 -0.1350 -0.0486  0.0511
  206MOL    C3829148   4.535   6.058   7.830  0.1994 -0.2592  0.4490
  206MOL    O3929149   4.560   6.150   0.139 -0.0598  0.1027  0.1159
  206MOL    H4029150   4.569   5.947   0.091 -0.8843 -0.2438  1.1653
  206MOL    H4129151   4.641   6.054   7.805  0.4507  2.2054  0.9512
  206MOL    H4229152   4.494   6.157   7.808 -2.3681 -1.8254 -2.0916
  206MOL    H4329153   4.490   5.981   7.767 -0.4307  0.1857  0.3447
  206MOL    C4429154   4.555   6.138   0.278  0.4773 -0.3600 -0.1989
  206MOL    C4529155   4.691   6.103   0.336  0.9300 -0.3856 -0.1985
  206MOL    O4629156   4.522   6.270   0.321  0.2283  0.0187  0.0621
  206MOL    H4729157   4.481   6.065   0.311  2.4919 -2.0512  0.6281
  206MOL    H4829158   4.681   6.081   0.442 -0.6486 -0.4049 -0.3360
  206MOL    H4929159   4.765   6.181   0.319  1.1282 -0.7460 -1.0441
  206MOL    H5029160   4.730   6.015   0.284  2.4786 -0.4591  1.0516
  206MOL    C5129161   4.387   6.301   0.313  0.7287 -0.0699 -0.6841
  206MOL    C5229162   4.323   6.298   0.452 -0.5608 -0.1914 -1.0103
  206MOL    O5329163   4.364   6.435   0.273 -0.0008 -0.7166 -0.1234
  206MOL    H5429164   4.334   6.235   0.244  0.0487  0.4507 -0.6626
  206MOL    H5529165   4.360   6.378   0.516 -4.8137  1.3855 -0.4297
  206MOL    H5629166   4.341   6.203   0.502 -2.4325 -0.1807 -0.3093
  206MOL    H5729167   4.216   6.306   0.439 -1.1147 -0.7203  2.8576
  206MOL    C5829168   4.394   6.453   0.137  0.4394  0.5337 -0.5389
  206MOL    C5929169   4.262   6.485   0.072 -0.0745  0.5915 -0.1888
  206MOL    O6029170   4.466   6.569   0.125 -0.6579 -0.0799  0.2889
  206MOL    H6129171   4.446   6.371   0.088 -0.0786  0.8238 -1.5789
  206MOL    H6229172   4.261   6.534   7.888  1.5686  0.2451 -0.3822
  206MOL    H6329173   4.205   6.552   0.136 -0.4541  0.9652 -0.9064
  206MOL    H6429174   4.213   6.388   0.059  0.1791  0.1019  2.2620
  206MOL    C6529175   4.598   6.543   0.161 -0.1341 -0.8608 -0.0666
  206MOL    C6629176   4.679   6.498   0.043 -0.1832 -0.1969  0.3618
  206MOL    O6729177   4.656   6.659   0.199  0.5065 -0.3873  0.3607
  206MOL    H6829178   4.615   6.489   0.254 -0.1832 -0.0198  0.4394
  206MOL    H6929179   4.778   6.482   0.084 -1.1385 -0.4129  2.6282
  206MOL    H7029180   4.671   6.580   7.885  0.7586  0.9123  1.5089
  206MOL    H7129181   4.655   6.397   0.011 -0.7843  0.0370  0.0650
  206MOL    C7229182   4.609   6.720   0.312 -0.2511  0.4108 -0.2906
  206MOL    C7329183   4.721   6.685   0.415  0.1069 -0.5205  0.2477
  206MOL    O7429184   4.598   6.858   0.304 -0.6378 -0.1343  0.1007
  206MOL    H7529185   4.517   6.669   0.342 -0.4154 -0.4186 -2.1745
  206MOL    H7629186   4.815   6.672   0.361 -0.9278 -0.3254 -1.6579
  206MOL    H7729187   4.702   6.590   0.465  2.3618 -0.6692  0.8349
  206MOL    H7829188   4.726   6.769   0.485  1.8696  1.6321 -2.3426
  206MOL    C7929189   4.480   6.906   0.252 -0.0990 -0.8649 -0.1024
  206MOL    C8029190   4.418   6.994   0.358  0.1883 -0.0237 -0.3145
  206MOL    O8129191   4.506   6.986   0.140 -0.4610 -0.3677  0.0576
  206MOL    H8229192   4.417   6.823   0.222 -0.7779 -0.6003  0.5936
  206MOL    H8329193   4.325   7.042   0.327  0.9874  1.5601 -0.3038
  206MOL    H8429194   4.488   7.064   0.404  1.2629 -1.8619  0.8815
  206MOL    H8529195   4.400   6.923   0.439 -0.5426 -0.5381 -0.9225
  206MOL    C8629196   4.536   6.914   0.025  0.7372  0.2128 -0.3792
  206MOL    C8729197   4.410   6.921   7.851 -0.0207  0.6961 -0.8501
  206MOL    O8829198   4.646   6.973   7.875 -0.6359  0.1235  0.1237
  206MOL    H8929199   4.569   6.813   0.048  0.3575 -0.4073 -2.4346
  206MOL    H9029200   4.386   7.019   7.810  0.2517  0.6042 -1.2333
  206MOL    H9129201   4.326   6.880   7.907  1.1400 -0.8935 -0.2190
  206MOL    H9229202   4.423   6.855   7.765  2.2650  1.3491 -1.0321
  206MOL    C9329203   4.770   6.937   0.017  0.2365  0.2726 -0.0600
  206MOL    C9429204   4.843   6.846   7.835  0.1819 -0.1514 -0.1134
  206MOL    O9529205   4.844   7.058   0.043 -0.7817 -0.1962 -0.3934
  206MOL    H9629206   4.772   6.888   0.114  2.3677  1.8893  0.7538
  206MOL    H9729207   4.778   6.761   7.813  0.9296 -1.0798  1.1720
  206MOL    H9829208   4.932   6.812   7.889 -0.3796 -3.2136 -1.0297
  206MOL    H9929209   4.875   6.902   7.748 -0.3641  0.5393  0.1197
  206MOL   C10029210   4.815   7.123   0.166  0.2175 -0.5025  0.2235
  206MOL   C10129211   4.918   7.076   0.270  0.1843  0.0314 -0.1383
  206MOL   O10229212   4.828   7.260   0.146  0.3288  0.2582 -0.5008
  206MOL   H10329213   4.721   7.095   0.214 -0.3542 -0.4782 -0.8691
  206MOL   H10429214   4.896   6.972   0.289 -0.4466 -0.2819 -2.3968
  206MOL   H10529215   4.913   7.129   0.365  1.5676 -0.9932  0.5221
  206MOL   H10629216   5.020   7.077   0.231  0.2146  2.9067 -0.1097
  206MOL   C10729217   4.717   7.314   0.078  0.0189  0.3746  0.0736
  206MOL   C10829218   4.607   7.351   0.176  0.1327 -0.8753 -1.1733
  206MOL   O10929219   4.745   7.417   7.899  0.0534 -0.0146  0.5974
  206MOL   H11029220   4.674   7.245   0.005 -0.8394  1.7832 -0.7873
  206MOL   H11129221   4.579   7.261   0.233  0.1589 -0.8331 -1.0950
  206MOL   H11229222   4.514   7.391   0.137  0.0662 -0.1371 -0.2889
  206MOL   H11329223   4.647   7.421   0.249  2.3073 -2.7899 -0.4872
  206MOL   C11429224   4.805   7.364   7.782 -0.1338  0.3951 -0.0313
  206MOL   C11529225   4.732   7.428   7.667 -0.0197  0.2007 -0.1918
  206MOL   O11629226   4.940   7.409   7.755 -0.2868  0.7449  0.0555
  206MOL   H11729227   4.797   7.255   7.773  1.1558  0.0180  2.7164
  206MOL   H11829228   4.794   7.426   7.576  0.4226 -1.6540  0.1368
  206MOL   H11929229   4.716   7.536   7.679  0.2351  0.1996  0.1668
  206MOL   H12029230   4.640   7.374   7.649  1.4713 -2.2870 -0.5586
  206MOL   C12129231   5.036   7.318   7.789 -0.9315  0.9172  0.3557
  206MOL   C12229232   5.079   7.253   7.663  0.0704  0.4287  0.1172
  206MOL   O12329233   5.147   7.390   7.842  0.1789  0.1264  0.7216
  206MOL   H12429234   4.988   7.244   7.854  2.2675 -2.7604 -1.3052
  206MOL   H12529235   5.149   7.173   7.688 -0.3120 -0.1343 -0.6184
  206MOL   H12629236   5.140   7.325   7.608  1.0552 -0.1515  0.4195
  206MOL   H12729237   4.991   7.213   7.613 -0.1063  0.2977  0.5293
  206MOL   C12829238   5.116   7.457   0.048  0.0160 -0.6288  0.3317
  206MOL   C12929239   5.185   7.384   0.165 -0.4402 -0.3318 -0.4127
  206MOL   O13029240   5.170   7.583   0.062  0.3401 -0.1589 -0.0857
  206MOL   H13129241   5.009   7.445   0.066  0.1272 -2.0467  0.1206
  206MOL   H13229242   5.188   7.448   0.254  4.2498 -1.0592  0.0959
  206MOL   H13329243   5.288   7.361   0.138 -0.0149  1.2734 -0.2093
  206MOL   H13429244   5.141   7.288   0.189  0.7549 -1.1288 -1.4008
  206MOL   C13529245   5.079   7.679   0.030  0.2051  0.4570  0.2099
  206MOL   C13629246   5.120   7.818   0.088 -0.0754  0.2503 -0.3509
  206MOL   O13729247   5.064   7.685   7.798 -0.5290 -0.0722  0.1411
  206MOL   H13829248   4.982   7.652   0.072  0.1578  1.4927  0.8004
  206MOL   H13929249   5.198   7.855   0.021  3.2292 -0.9957  2.6241
  206MOL   H14029250   5.158   7.810   0.190  2.4120 -0.5088 -1.2862
  206MOL   H14129251   5.030   7.879   0.079  0.1734  1.0234  2.1818
  206MOL   H14229252   5.049   7.597   7.766  1.0732  0.2211 -1.4990
  207MOL     C129253   7.817   3.724   4.214  1.3117  0.0605  0.7294
  207MOL     C229254   7.727   3.609   4.181  0.1438  0.0572  0.0556
  207MOL     O329255   0.016   3.682   4.292 -0.0237  0.2724 -0.4095
  207MOL     H429256   7.762   3.796   4.276  0.8939  0.6599 -0.3220
  207MOL     H529257   7.776   3.527   4.129 -0.5129 -0.9507  0.9967
  207MOL     H629258   7.638   3.637   4.125 -0.9018 -1.9243  0.6765
  207MOL     H729259   7.679   3.571   4.271 -0.0188 -2.2484 -0.9713
  207MOL     H829260   7.851   3.771   4.122 -1.2968 -2.2176 -1.4578
  207MOL     C929261   0.080   3.790   4.347 -0.0892 -0.2552 -0.4951
  207MOL    C1029262   0.015   3.818   4.484 -0.6128  0.2163  0.0817
  207MOL    O1129263   0.215   3.747   4.371  0.4666  0.3556 -0.0284
  207MOL    H1229264   0.075   3.872   4.276 -1.4127 -0.4690 -0.6719
  207MOL    H1329265   0.061   3.902   4.538  0.6858  0.0757 -0.7912
  207MOL    H1429266   0.028   3.736   4.555  0.7145 -1.0584 -1.6155
  207MOL    H1529267   7.826   3.850   4.470 -0.0095  1.8023 -0.8386
  207MOL    C1629268   0.278   3.756   4.250 -0.2687 -0.1445 -0.5412
  207MOL    C1729269   0.344   3.894   4.227  0.0598  0.0565 -0.2068
  207MOL    O1829270   0.376   3.669   4.231  0.5385  0.1934  0.0937
  207MOL    H1929271   0.207   3.733   4.170 -0.8543  1.6369 -0.5428
  207MOL    H2029272   0.414   3.894   4.311  1.9099  0.2922 -1.7023
  207MOL    H2129273   0.279   3.981   4.234 -0.8782 -0.4386 -2.1833
  207MOL    H2229274   0.394   3.900   4.130  0.2598 -0.8784 -0.1692
  207MOL    C2329275   0.344   3.533   4.225 -0.0817  0.2084 -0.3071
  207MOL    C2429276   0.375   3.488   4.080 -0.0986  0.3865 -0.1117
  207MOL    O2529277   0.435   3.461   4.309 -0.4967 -0.2970 -0.2350
  207MOL    H2629278   0.240   3.524   4.253  0.0616  1.7566  0.7515
  207MOL    H2729279   0.474   3.515   4.043  0.4187 -2.2153 -0.7120
  207MOL    H2829280   0.301   3.538   4.018 -1.4308 -0.3710  0.8280
  207MOL    H2929281   0.368   3.381   4.066 -1.2119  0.3159  0.9388
  207MOL    C3029282   0.403   3.459   4.446 -0.0122 -0.6597  0.4263
  207MOL    C3129283   0.341   3.325   4.474  0.8118 -0.1629 -0.4936
  207MOL    O3229284   0.513   3.485   4.533  0.8242  0.4051 -0.1212
  207MOL    H3329285   0.339   3.543   4.473 -0.5793 -1.0829  0.4165
  207MOL    H3429286   0.331   3.305   4.580 -0.2396  1.8701 -0.1895
  207MOL    H3529287   0.391   3.252   4.410 -0.2781 -0.0758 -1.4748
  207MOL    H3629288   0.234   3.330   4.451 -0.2026  0.4572  3.9881
  207MOL    C3729289   0.602   3.582   4.486 -0.0956 -0.5239 -0.6462
  207MOL    C3829290   0.623   3.680   4.601  0.2333 -0.9648  0.4276
  207MOL    O3929291   0.732   3.534   4.454  0.1919 -1.2516 -0.2456
  207MOL    H4029292   0.557   3.633   4.401 -0.0497  1.3946  0.4544
  207MOL    H4129293   0.536   3.745   4.606  1.1784  0.2326  1.5654
  207MOL    H4229294   0.714   3.738   4.587 -0.4115 -0.3324 -1.1824
  207MOL    H4329295   0.622   3.626   4.696  0.0071  0.5208  1.2920
  207MOL    C4429296   0.745   3.427   4.370 -0.3577 -0.0475  0.2586
  207MOL    C4529297   0.784   3.481   4.232  0.5434 -0.2160 -0.0138
  207MOL    O4629298   0.852   3.346   4.406  0.0234  0.5444 -0.3889
  207MOL    H4729299   0.654   3.368   4.368  0.9120 -2.2818  4.0535
  207MOL    H4829300   0.810   3.396   4.169  0.2180  0.5732 -1.2523
  207MOL    H4929301   0.873   3.541   4.250  0.6629 -0.5470  0.4962
  207MOL    H5029302   0.706   3.536   4.178  1.2112  2.5912  1.8176
  207MOL    C5129303   0.816   3.258   4.503 -0.4113 -0.4763 -0.5349
  207MOL    C5229304   0.793   3.120   4.437 -0.6933  0.0552 -0.0201
  207MOL    O5329305   0.922   3.254   4.603 -0.0987 -0.6565 -0.6756
  207MOL    H5429306   0.721   3.280   4.552 -1.3686  0.5015 -2.7550
  207MOL    H5529307   0.744   3.059   4.513  0.2031 -0.3996  0.2008
  207MOL    H5629308   0.886   3.070   4.411 -1.4184 -0.6272 -1.3438
  207MOL    H5729309   0.724   3.128   4.353 -1.8494  1.8611  1.0667
  207MOL    C5829310   0.929   3.373   4.674 -0.1367  0.4827  0.4402
  207MOL    C5929311   0.901   3.342   4.822  0.0777  0.1680  0.7451
  207MOL    O6029312   1.062   3.425   4.673  0.0995  0.0798  0.1613
  207MOL    H6129313   0.856   3.452   4.657  0.2338  0.6586 -0.3541
  207MOL    H6229314   0.907   3.435   4.879  0.1316  1.3281 -1.0952
  207MOL    H6329315   0.961   3.261   4.863 -1.3200 -1.1293  0.2862
  207MOL    H6429316   0.800   3.300   4.829 -0.2780  0.8151 -0.3041
  207MOL    C6529317   1.091   3.505   4.563 -0.4887 -0.0216  0.0795
  207MOL    C6629318   1.105   3.644   4.621 -0.2128 -0.1386  0.5951
  207MOL    O6729319   1.215   3.468   4.505 -0.6807 -0.9350  0.2928
  207MOL    H6829320   1.000   3.514   4.504 -0.0035 -2.9347 -1.1730
  207MOL    H6929321   1.008   3.672   4.664  0.9307  1.1837  2.3717
  207MOL    H7029322   1.124   3.709   4.536  0.2879 -0.8940  0.1281
  207MOL    H7129323   1.189   3.652   4.690 -0.4133  3.3515  0.5165
  207MOL    C7229324   1.195   3.352   4.428 -0.2135 -0.2136 -0.0073
  207MOL    C7329325   1.198   3.395   4.283  0.3440 -0.4629 -0.3947
  207MOL    O7429326   1.297   3.258   4.452  0.3840  0.0419 -0.5384
  207MOL    H7529327   1.095   3.309   4.436 -0.2737 -0.4553 -1.7215
  207MOL    H7629328   1.306   3.409   4.280  0.3682 -0.4037  0.4491
  207MOL    H7729329   1.146   3.490   4.277  0.5584 -0.2466  0.8725
  207MOL    H7829330   1.152   3.322   4.216  0.2960  1.2560 -2.2636
  207MOL    C7929331   1.270   3.176   4.564 -0.0095  0.0180  1.0882
  207MOL    C8029332   1.242   3.040   4.510  0.0283  0.4313 -0.2230
  207MOL    O8129333   1.384   3.159   4.645 -0.0103 -0.5292  0.1252
  207MOL    H8229334   1.189   3.216   4.626 -1.8114 -1.4337 -0.2628
  207MOL    H8329335   1.317   3.001   4.441 -0.6630 -0.9149 -0.2237
  207MOL    H8429336   1.163   3.055   4.436  1.6255 -1.5031 -2.3965
  207MOL    H8529337   1.213   2.971   4.589 -0.9321  0.2993 -0.6824
  207MOL    C8629338   1.405   3.272   4.733  0.0599  0.6074 -0.5905
  207MOL    C8729339   1.409   3.212   4.878 -0.4621 -0.2333  0.1571
  207MOL    O8829340   1.531   3.324   4.717  0.0219  0.3426  0.3175
  207MOL    H8929341   1.326   3.347   4.731  0.9521  1.5616 -0.6151
  207MOL    H9029342   1.486   3.136   4.884 -0.8198 -0.4745  1.8933
  207MOL    H9129343   1.310   3.177   4.907 -1.3566  0.1086 -2.3529
  207MOL    H9229344   1.428   3.296   4.945  3.7801 -1.1881  0.2475
  207MOL    C9329345   1.547   3.416   4.621  0.4657  0.1517 -0.1234
  207MOL    C9429346   1.551   3.546   4.696  0.1613  0.1452 -0.2194
  207MOL    O9529347   1.665   3.399   4.554 -0.4528 -0.0508 -0.0491
  207MOL    H9629348   1.459   3.421   4.557  1.2483  0.4850 -1.1878
  207MOL    H9729349   1.471   3.561   4.769  1.7641  2.1279  1.1878
  207MOL    H9829350   1.559   3.634   4.632  0.4719  0.0309 -0.3384
  207MOL    H9929351   1.643   3.540   4.755  1.0519 -0.1723 -1.6095
  207MOL   C10029352   1.669   3.285   4.470  0.1630  0.4164 -0.5363
  207MOL   C10129353   1.701   3.333   4.327  0.1733  0.3545  0.1296
  207MOL   O10229354   1.777   3.203   4.513  0.0215  0.4067  0.4030
  207MOL   H10329355   1.580   3.223   4.472 -0.0118  0.6979  0.9039
  207MOL   H10429356   1.637   3.418   4.301 -0.5468 -1.0695 -3.0350
  207MOL   H10529357   1.693   3.256   4.250  0.2050 -1.6310  2.0981
  207MOL   H10629358   1.802   3.375   4.326  0.4561 -0.3135 -1.3204
  207MOL   C10729359   1.746   3.112   4.618  0.1288 -0.7735 -0.3240
  207MOL   C10829360   1.725   2.972   4.557  0.0853 -0.2308 -0.3153
  207MOL   O10929361   1.856   3.099   4.707 -0.1700 -0.6282 -0.0447
  207MOL   H11029362   1.659   3.142   4.676 -0.2062 -0.9750 -0.7231
  207MOL   H11129363   1.642   2.971   4.487 -0.5715 -0.6062  0.4631
  207MOL   H11229364   1.702   2.905   4.640  0.0601  0.8701  0.5727
  207MOL   H11329365   1.821   2.941   4.516  0.2737  0.0889 -0.1204
  207MOL   C11429366   1.873   3.199   4.801 -0.8721 -0.3982  0.3503
  207MOL   C11529367   1.883   3.131   4.936  0.8588  0.9708 -0.5653
  207MOL   O11629368   1.995   3.265   4.782 -0.2786  0.2622 -0.3129
  207MOL   H11729369   1.787   3.266   4.796 -1.5679 -1.3701 -0.9273
  207MOL   H11829370   1.939   3.038   4.933 -1.4292 -0.4941  0.3885
  207MOL   H11929371   1.782   3.092   4.949  1.3266  0.0594  0.4032
  207MOL   H12029372   1.907   3.196   5.020  0.0468  0.3501  0.1617
  207MOL   C12129373   1.998   3.380   4.709 -0.3004 -0.0501  0.0646
  207MOL   C12229374   1.971   3.498   4.799 -0.3253 -0.6611  0.6796
  207MOL   O12329375   2.120   3.401   4.642 -0.9798  0.1737  0.6867
  207MOL   H12429376   1.918   3.387   4.636  0.2745 -0.3297 -0.5980
  207MOL   H12529377   1.870   3.495   4.842 -0.3247  0.6653  0.8068
  207MOL   H12629378   1.964   3.592   4.745 -2.3115 -1.4213 -0.4407
  207MOL   H12729379   2.046   3.514   4.877 -1.0501 -0.4267  1.3358
  207MOL   C12829380   2.138   3.323   4.525  0.1577 -0.2785  0.6594
  207MOL   C12929381   2.163   3.433   4.417  0.7814  0.3662  0.3964
  207MOL   O13029382   2.251   3.249   4.531 -0.1426 -0.0369 -0.7060
  207MOL   H13129383   2.054   3.259   4.499 -0.9827  1.1318  0.8780
  207MOL   H13229384   2.231   3.503   4.466  0.4457  0.3080  0.9569
  207MOL   H13329385   2.080   3.490   4.377 -0.0746  0.3375  2.0643
  207MOL   H13429386   2.210   3.391   4.328  2.5761  0.1268  1.4328
  207MOL   C13529387   2.243   3.143   4.622  0.3285  0.0331  0.5145
  207MOL   C13629388   2.335   3.032   4.581 -0.1854  1.0890  0.0497
  207MOL   O13729389   2.278   3.194   4.750  0.1525  0.0442 -0.1307
  207MOL   H13829390   2.145   3.097   4.630  0.1856  0.5705  2.0710
  207MOL   H13929391   2.431   3.075   4.554  0.3857 -0.3326 -0.2069
  207MOL   H14029392   2.297   2.981   4.493 -0.9475  2.9566 -0.7382
  207MOL   H14129393   2.329   2.960   4.663  1.9029  0.9687  0.1116
  207MOL   H14229394   2.226   3.270   4.773 -1.4420 -1.1957  0.4566
  208MOL     C129395   2.930   5.556   1.049 -0.0536  0.4347  0.2797
  208MOL     C229396   2.779   5.569   1.008 -0.2389 -0.5361 -1.0757
  208MOL     O329397   2.959   5.430   1.098  0.2076 -0.2651  0.0970
  208MOL     H429398   2.940   5.631   1.128  0.3533 -1.4633  2.0937
  208MOL     H529399   2.766   5.673   0.979 -1.5506 -0.3591  0.0843
  208MOL     H629400   2.720   5.551   1.098 -0.2895 -1.0865 -1.2188
  208MOL     H729401   2.746   5.506   0.926 -0.2323 -0.1698 -1.3648
  208MOL     H829402   3.001   5.581   0.971  1.6777 -0.8790  1.4109
  208MOL     C929403   3.097   5.411   1.106 -0.2520 -0.4243 -0.7057
  208MOL    C1029404   3.138   5.424   1.250 -0.0698  0.9747 -0.5466
  208MOL    O1129405   3.124   5.282   1.063  0.1977  0.3161 -0.1011
  208MOL    H1229406   3.162   5.478   1.050 -0.4627 -0.8502 -1.4646
  208MOL    H1329407   3.081   5.353   1.311 -1.2479  0.4569 -2.1928
  208MOL    H1429408   3.129   5.526   1.286 -1.3472 -0.1870  2.5928
  208MOL    H1529409   3.243   5.399   1.261 -0.1193  1.2831  0.6904
  208MOL    C1629410   3.254   5.260   1.021 -0.0259  0.2379 -0.1746
  208MOL    C1729411   3.264   5.106   1.016 -0.5126  0.1572 -0.7516
  208MOL    O1829412   3.284   5.309   0.895 -0.5970  0.2256 -0.1469
  208MOL    H1929413   3.323   5.292   1.099  1.2303  3.7214 -2.5938
  208MOL    H2029414   3.166   5.074   0.980 -0.7234 -0.0178 -0.0190
  208MOL    H2129415   3.298   5.062   1.110  0.3233  0.2837 -0.9837
  208MOL    H2229416   3.335   5.074   0.939 -0.6765  0.6544 -1.1151
  208MOL    C2329417   3.412   5.370   0.889 -0.2585  0.1566 -0.2190
  208MOL    C2429418   3.466   5.360   0.742  0.0217  0.2291  0.4105
  208MOL    O2529419   3.410   5.504   0.925  0.2495 -0.7751 -0.1173
  208MOL    H2629420   3.484   5.317   0.952  0.3938 -0.8351 -1.7574
  208MOL    H2729421   3.555   5.297   0.737 -0.7446 -0.7484 -0.9143
  208MOL    H2829422   3.500   5.458   0.708  2.2548 -1.1792 -1.5242
  208MOL    H2929423   3.384   5.327   0.680  0.2165  0.6697 -0.0857
  208MOL    C3029424   3.503   5.545   1.022  0.4027  0.3646 -0.2476
  208MOL    C3129425   3.493   5.694   1.045  0.3169 -0.1614  0.0759
  208MOL    O3229426   3.485   5.479   1.145  0.1973 -0.3432 -0.3974
  208MOL    H3329427   3.604   5.528   0.984  0.8822  1.6466  0.4374
  208MOL    H3429428   3.581   5.729   1.099 -1.1080 -0.1101  2.4478
  208MOL    H3529429   3.399   5.724   1.090 -0.0311  0.6251 -1.1502
  208MOL    H3629430   3.491   5.753   0.953  1.1909 -2.2631 -1.3314
  208MOL    C3729431   3.600   5.438   1.209  0.5461  0.4326 -0.3610
  208MOL    C3829432   3.550   5.336   1.311 -0.7662  0.6150  0.0221
  208MOL    O3929433   3.697   5.380   1.126  0.2478  0.0463  0.2676
  208MOL    H4029434   3.632   5.532   1.255 -2.6954  1.5908 -0.3894
  208MOL    H4129435   3.507   5.253   1.255  0.7956  1.1800 -2.0776
  208MOL    H4229436   3.474   5.380   1.375  0.4470 -0.5694  2.3462
  208MOL    H4329437   3.639   5.314   1.371 -2.4691 -2.9017  1.3971
  208MOL    C4429438   3.828   5.424   1.142 -0.5381  0.2613 -0.0529
  208MOL    C4529439   3.916   5.313   1.082  0.1202 -0.5345  0.3765
  208MOL    O4629440   3.851   5.538   1.066  0.4433  0.3841  0.4766
  208MOL    H4729441   3.841   5.426   1.251 -1.0606  0.1603  0.0175
  208MOL    H4829442   3.877   5.300   0.981  0.4618 -1.1330  0.3221
  208MOL    H4929443   3.910   5.226   1.147 -2.0088 -0.1135  0.7791
  208MOL    H5029444   4.022   5.338   1.074 -0.0106  0.4904  1.7089
  208MOL    C5129445   3.916   5.635   1.136  0.3813 -0.5420 -0.1777
  208MOL    C5229446   3.976   5.722   1.027  0.3617  0.2870  0.2506
  208MOL    O5329447   3.819   5.707   1.208  0.0303  0.0941 -0.0817
  208MOL    H5429448   3.996   5.602   1.202  0.0558  2.0114  1.5861
  208MOL    H5529449   3.904   5.739   0.947 -0.5493 -0.4797  0.8875
  208MOL    H5629450   4.069   5.688   0.982 -0.2388  0.4143 -1.1148
  208MOL    H5729451   4.008   5.822   1.056 -1.3509  1.0183 -0.2815
  208MOL    C5829452   3.852   5.720   1.346  0.2125  0.0747  0.0763
  208MOL    C5929453   3.808   5.851   1.397 -0.1334  0.6271  0.8712
  208MOL    O6029454   3.788   5.623   1.426  0.0460  0.4763  0.0145
  208MOL    H6129455   3.960   5.739   1.344  0.0920  0.9317  1.0196
  208MOL    H6229456   3.702   5.869   1.379 -0.1125  0.0076  0.1327
  208MOL    H6329457   3.878   5.925   1.361 -1.3807  0.8226 -1.2296
  208MOL    H6429458   3.816   5.838   1.505  0.5441 -2.2062  0.5384
  208MOL    C6529459   3.882   5.561   1.509 -0.1221 -0.1117 -0.2717
  208MOL    C6629460   3.799   5.480   1.610 -0.5529  0.3988 -0.1375
  208MOL    O6729461   3.949   5.475   1.428 -0.2711  0.3288 -0.3629
  208MOL    H6829462   3.940   5.636   1.563 -0.9012  0.0894  0.2887
  208MOL    H6929463   3.725   5.423   1.554 -0.4925  2.6982 -2.7138
  208MOL    H7029464   3.745   5.553   1.670  0.5820 -0.5984  2.1666
  208MOL    H7129465   3.854   5.409   1.671 -2.1728 -1.1897 -0.4987
  208MOL    C7229466   4.080   5.450   1.464 -0.5341 -0.0238 -1.2490
  208MOL    C7329467   4.097   5.302   1.431  0.0127 -0.7948  0.5626
  208MOL    O7429468   4.172   5.516   1.377 -0.0180  0.2177 -0.6250
  208MOL    H7529469   4.100   5.468   1.569  0.9933 -1.6813 -1.2451
  208MOL    H7629470   4.022   5.241   1.482  0.0728 -0.0487  1.5547
  208MOL    H7729471   4.196   5.277   1.470 -0.5407 -2.7746  0.7375
  208MOL    H7829472   4.096   5.281   1.324 -1.1178 -0.0023  0.4048
  208MOL    C7929473   4.250   5.614   1.438 -0.0403 -0.0056 -0.1271
  208MOL    C8029474   4.345   5.665   1.332 -0.4138  0.0030 -0.1824
  208MOL    O8129475   4.171   5.728   1.469  0.0775  0.4153 -0.0882
  208MOL    H8229476   4.309   5.568   1.518  2.5056  2.1765 -0.6868
  208MOL    H8329477   4.302   5.659   1.232  0.5852  1.2062 -0.7134
  208MOL    H8429478   4.428   5.594   1.329 -1.4817 -1.3397  1.5632
  208MOL    H8529479   4.382   5.764   1.361 -0.3546 -0.7087  2.2986
  208MOL    C8629480   4.214   5.781   1.585  0.3198 -0.4662  0.4731
  208MOL    C8729481   4.134   5.911   1.588  0.0442 -0.5170  0.5892
  208MOL    O8829482   4.187   5.712   1.703  0.0562  0.5522 -0.2351
  208MOL    H8929483   4.321   5.799   1.576  0.0964  0.3280 -0.5966
  208MOL    H9029484   4.164   5.981   1.667 -1.5277 -0.3218  1.0316
  208MOL    H9129485   4.030   5.888   1.611 -0.9217  1.8313 -1.2228
  208MOL    H9229486   4.153   5.966   1.496  2.3139  0.3404  1.5401
  208MOL    C9329487   4.297   5.696   1.796  0.9276 -0.4550 -0.0718
  208MOL    C9429488   4.243   5.677   1.936 -0.0071 -0.3910  0.2676
  208MOL    O9529489   4.376   5.578   1.775  0.1477  0.5816 -0.8960
  208MOL    H9629490   4.352   5.791   1.800 -2.5761  1.6195  2.5034
  208MOL    H9729491   4.200   5.770   1.975 -0.2029  0.1237 -1.1442
  208MOL    H9829492   4.325   5.649   2.002  0.2112 -0.7858 -0.1774
  208MOL    H9929493   4.172   5.594   1.934 -1.8682  1.1788 -1.8088
  208MOL   C10029494   4.510   5.605   1.775  0.0179  0.7813 -0.0061
  208MOL   C10129495   4.587   5.479   1.790  0.1000 -0.4035 -1.3715
  208MOL   O10229496   4.540   5.655   1.646 -0.4731 -0.0383  0.3289
  208MOL   H10329497   4.545   5.678   1.848  0.2337 -0.2204  0.8967
  208MOL   H10429498   4.548   5.413   1.712  2.2272  0.2255 -3.0099
  208MOL   H10529499   4.568   5.438   1.889 -1.5429  1.1589 -0.9984
  208MOL   H10629500   4.691   5.511   1.783  0.1001 -0.7823 -3.3554
  208MOL   C10729501   4.640   5.755   1.647 -0.3240  0.3139  0.0461
  208MOL   C10829502   4.708   5.768   1.512  0.2829 -0.1310  0.3338
  208MOL   O10929503   4.586   5.877   1.692 -0.2939  0.3085  0.4076
  208MOL   H11029504   4.717   5.720   1.716 -2.0196 -2.2369  0.6969
  208MOL   H11129505   4.766   5.682   1.479  0.2595  0.8690 -2.3774
  208MOL   H11229506   4.776   5.852   1.522  0.0421 -0.1334  2.3016
  208MOL   H11329507   4.619   5.784   1.452 -0.0871  0.5154  1.0388
  208MOL   C11429508   4.668   5.951   1.774 -0.0657  0.7710 -0.8027
  208MOL   C11529509   4.613   6.086   1.756  0.0052  0.1567  0.5570
  208MOL   O11629510   4.650   5.910   1.908  1.0157 -0.2551 -0.4026
  208MOL   H11729511   4.772   5.941   1.742 -0.4698  1.5188 -2.3753
  208MOL   H11829512   4.650   6.123   1.661 -0.1668  0.8088  0.7422
  208MOL   H11929513   4.655   6.150   1.834 -0.2533  0.2376  0.6274
  208MOL   H12029514   4.505   6.085   1.765 -0.0131 -1.2464  0.3844
  208MOL   C12129515   4.773   5.877   1.971  0.6860 -0.1194 -0.6275
  208MOL   C12229516   4.736   5.856   2.113 -0.3930  0.0622  0.4706
  208MOL   O12329517   4.812   5.747   1.937  0.2320  0.5546  0.2288
  208MOL   H12429518   4.845   5.958   1.963  2.1664 -1.1432  1.6458
  208MOL   H12529519   4.823   5.840   2.177 -0.9688  0.3992  1.3542
  208MOL   H12629520   4.655   5.786   2.135 -2.8768  2.0581 -1.9736
  208MOL   H12729521   4.686   5.946   2.150 -1.1383 -0.8422  1.7322
  208MOL   C12829522   4.940   5.733   1.879  0.1480 -0.7129 -0.1940
  208MOL   C12929523   4.981   5.584   1.871 -0.8881  0.3823  0.1789
  208MOL   O13029524   4.959   5.792   1.750 -0.9170  0.5167  0.4016
  208MOL   H13129525   5.011   5.775   1.950  1.0150 -0.2551 -1.3109
  208MOL   H13229526   5.087   5.582   1.846 -0.4978  0.8662  1.7838
  208MOL   H13329527   4.926   5.533   1.792 -2.2323  2.6850 -0.4116
  208MOL   H13429528   4.960   5.532   1.965 -0.6336  2.0065  1.1497
  208MOL   C13529529   5.072   5.880   1.736  0.4783  0.1545 -0.5321
  208MOL   C13629530   5.096   5.920   1.586  0.2296  0.6104  0.0583
  208MOL   O13729531   5.047   6.000   1.811 -0.4261 -0.1919  0.0943
  208MOL   H13829532   5.168   5.835   1.761 -0.4650 -0.5978  1.9696
  208MOL   H13929533   5.175   5.994   1.584  0.9341 -0.1505 -0.5158
  208MOL   H14029534   5.002   5.960   1.548 -0.5471  0.7177  1.9870
  208MOL   H14129535   5.123   5.832   1.528 -0.8364  1.5902 -1.9558
  208MOL   H14229536   5.131   6.032   1.840 -0.7611 -0.5665  1.5568
  209MOL     C129537   5.826   7.337   5.101  0.2784  0.3288  0.7138
  209MOL     C229538   5.936   7.363   5.200  0.7077  0.8761  0.0508
  209MOL     O329539   5.712   7.377   5.170 -0.0672  0.3406 -0.4813
  209MOL     H429540   5.820   7.239   5.054  0.0094  0.2381  0.9363
  209MOL     H529541   6.028   7.323   5.156  0.8843 -0.6405  1.7578
  209MOL     H629542   5.917   7.310   5.293 -1.5790  0.9173 -0.3691
  209MOL     H729543   5.950   7.469   5.222 -2.4048  1.9650 -2.7510
  209MOL     H829544   5.837   7.405   5.017 -0.0549 -0.2893  0.1683
  209MOL     C929545   5.581   7.337   5.136  0.5045 -0.0670  0.1962
  209MOL    C1029546   5.504   7.381   5.257 -0.4265  0.5448 -0.3823
  209MOL    O1129547   5.530   7.402   5.020 -0.3247  0.2139  0.3744
  209MOL    H1229548   5.581   7.229   5.122  0.0733 -0.1826  1.0017
  209MOL    H1329549   5.518   7.489   5.265 -0.3122  0.5811 -1.0670
  209MOL    H1429550   5.548   7.335   5.346  1.5881  2.0548 -0.5545
  209MOL    H1529551   5.399   7.351   5.252 -0.0545 -0.5889 -1.4930
  209MOL    C1629552   5.556   7.335   4.904 -0.4977  0.1031  0.7047
  209MOL    C1729553   5.440   7.246   4.881  0.5183  0.1589 -0.2532
  209MOL    O1829554   5.555   7.418   4.790  0.3492  0.0309  0.6422
  209MOL    H1929555   5.646   7.274   4.905 -1.9414 -2.0546  1.8376
  209MOL    H2029556   5.445   7.167   4.956 -3.5219  0.1159  0.0627
  209MOL    H2129557   5.447   7.202   4.781 -1.1822 -1.1590  0.1880
  209MOL    H2229558   5.346   7.300   4.889  1.8941  2.7679 -1.2242
  209MOL    C2329559   5.668   7.502   4.787 -0.1106 -0.1243  0.1090
  209MOL    C2429560   5.786   7.430   4.719  0.1399 -0.1338  0.0758
  209MOL    O2529561   5.647   7.623   4.719  0.2041 -0.0342  0.1186
  209MOL    H2629562   5.692   7.532   4.889 -0.8073 -0.4136  0.3624
  209MOL    H2729563   5.762   7.408   4.615  1.5402 -2.3860  0.2001
  209MOL    H2829564   5.816   7.337   4.768 -0.9314 -0.8034 -0.5230
  209MOL    H2929565   5.872   7.496   4.722  0.1644 -0.1316 -0.6225
  209MOL    C3029566   5.556   7.707   4.781 -0.5549  1.0271  0.0591
  209MOL    C3129567   5.629   7.831   4.821  0.0819  0.2225  0.2574
  209MOL    O3229568   5.465   7.751   4.692  0.0814  0.3160  0.0476
  209MOL    H3329569   5.503   7.665   4.866 -0.5361  1.1650  0.1404
  209MOL    H3429570   5.566   7.910   4.860  1.6993  2.0504 -0.7586
  209MOL    H3529571   5.685   7.874   4.738 -0.1582 -2.0185 -1.1085
  209MOL    H3629572   5.702   7.810   4.898  0.6888 -0.4465 -0.4871
  209MOL    C3729573   5.371   7.649   4.660  0.2946  0.1311 -0.0092
  209MOL    C3829574   5.258   7.696   4.746  0.1659  0.1515 -0.0339
  209MOL    O3929575   5.334   7.654   4.527  0.6682  0.3335 -0.2139
  209MOL    H4029576   5.399   7.546   4.682  3.7502  0.8068 -1.0806
  209MOL    H4129577   5.276   7.707   4.853 -1.2019 -1.0623  0.3504
  209MOL    H4229578   5.188   7.612   4.740 -0.8281  0.7389  2.4602
  209MOL    H4329579   5.220   7.786   4.698  2.6220  1.4176  0.3259
  209MOL    C4429580   5.439   7.621   4.433 -0.2547  0.6814  0.0481
  209MOL    C4529581   5.393   7.491   4.366 -0.0882  0.5973 -0.0401
  209MOL    O4629582   5.437   7.720   4.331  0.3526  0.2481  0.3196
  209MOL    H4729583   5.535   7.616   4.485  0.0535 -1.6245 -0.7080
  209MOL    H4829584   5.296   7.503   4.318  0.0625  0.5469 -0.3548
  209MOL    H4929585   5.382   7.415   4.444 -0.1780  0.5918 -0.0585
  209MOL    H5029586   5.468   7.472   4.290  0.5022  0.4180  0.5824
  209MOL    C5129587   5.490   7.847   4.372 -0.4364  0.2527  0.1172
  209MOL    C5229588   5.635   7.863   4.318  0.4211  0.3784 -0.4515
  209MOL    O5329589   5.414   0.032   4.309 -0.1397  0.4579  0.0515
  209MOL    H5429590   5.500   7.854   4.480 -2.2877 -1.7767  0.4567
  209MOL    H5529591   5.684   0.042   4.343 -0.6898  0.7245  0.4758
  209MOL    H5629592   5.634   7.848   4.210 -0.7299 -2.9582 -0.0629
  209MOL    H5729593   5.698   7.788   4.366  0.9342  0.3496 -1.1731
  209MOL    C5829594   5.308   0.076   4.394 -0.3795  0.1916 -0.2871
  209MOL    C5929595   5.347   0.209   4.456 -0.3930  0.6854  0.3526
  209MOL    O6029596   5.182   0.089   4.330  0.1765  0.5788 -0.4926
  209MOL    H6129597   5.290   0.014   4.482  3.1802 -1.4636 -0.6324
  209MOL    H6229598   5.273   0.267   4.511 -2.1591 -0.1195 -1.0978
  209MOL    H6329599   5.379   0.286   4.386 -0.1017 -1.0526 -1.4936
  209MOL    H6429600   5.424   0.184   4.529  0.5925 -0.8440 -1.1734
  209MOL    C6529601   5.120   7.890   4.300  0.2995 -0.4526 -0.8768
  209MOL    C6629602   5.009   7.864   4.410  0.6012  0.0088 -0.2187
  209MOL    O6729603   5.041   7.909   4.184  0.1086  0.4717  0.1216
  209MOL    H6829604   5.183   7.801   4.294  0.7175 -0.1197 -1.5202
  209MOL    H6929605   4.942   0.032   4.437  1.6759  1.4965 -2.0339
  209MOL    H7029606   5.055   7.830   4.503  0.4140 -1.7121 -0.7219
  209MOL    H7129607   4.950   7.777   4.380  3.3888 -2.2585  0.5622
  209MOL    C7229608   5.118   7.899   4.071 -0.2952  0.2066 -0.2133
  209MOL    C7329609   5.088   7.759   4.006  0.7634 -0.2243  0.4375
  209MOL    O7429610   5.077   0.077   3.977  0.0442 -0.3191 -0.3203
  209MOL    H7529611   5.223   0.004   4.096 -0.6496 -0.6212  2.0012
  209MOL    H7629612   5.103   7.686   4.085  0.6311 -0.7985 -0.0607
  209MOL    H7729613   5.144   7.739   3.915  0.2413  0.5229 -0.0614
  209MOL    H7829614   4.981   7.759   3.983  0.7411 -0.8925  0.5526
  209MOL    C7929615   5.119   0.212   3.992 -0.8293  0.6835  0.2032
  209MOL    C8029616   5.244   0.243   3.905  0.0537  0.0867 -0.1962
  209MOL    O8129617   5.012   0.292   3.959  0.1904  0.1941 -0.1984
  209MOL    H8229618   5.147   0.225   4.097 -1.6896 -0.2136  0.5516
  209MOL    H8329619   5.206   0.229   3.804  0.7336 -2.6021 -0.1373
  209MOL    H8429620   5.332   0.181   3.920 -0.1661 -0.2894 -0.4399
  209MOL    H8529621   5.270   0.348   3.918  0.8614  0.0796 -1.6818
  209MOL    C8629622   4.916   0.293   4.056 -0.0111 -0.1817 -0.5910
  209MOL    C8729623   4.932   0.432   4.120  0.2979  1.0206  0.1958
  209MOL    O8829624   4.783   0.290   4.010  0.2257  0.5802 -0.0925
  209MOL    H8929625   4.925   0.218   4.135  0.2034 -0.6591 -1.0653
  209MOL    H9029626   5.026   0.434   4.174  0.7141  0.3464 -0.4926
  209MOL    H9129627   4.851   0.459   4.188 -1.4247 -1.9118 -0.6074
  209MOL    H9229628   4.937   0.512   4.046  0.1047  0.6630 -0.2073
  209MOL    C9329629   4.746   0.156   3.978  0.2324  0.0094 -0.1852
  209MOL    C9429630   4.648   0.097   4.087 -0.0123 -0.2704  0.3997
  209MOL    O9529631   4.678   0.163   3.857 -0.2167  0.0054  0.0238
  209MOL    H9629632   4.829   0.086   3.982  1.9292  1.9890  0.3712
  209MOL    H9729633   4.573   0.175   4.097  0.4885  0.5090 -1.7602
  209MOL    H9829634   4.705   0.072   4.177  1.8211 -0.1757 -0.6984
  209MOL    H9929635   4.602   0.003   4.056 -2.0131  0.0526  2.3193
  209MOL   C10029636   4.758   0.201   3.744  0.3972 -0.0954  0.0274
  209MOL   C10129637   4.802   0.083   3.668  0.3570  0.1374 -0.4649
  209MOL   O10229638   4.690   0.284   3.662 -0.0267  0.1088  0.3688
  209MOL   H10329639   4.846   0.250   3.785  0.4927  0.4961 -0.8788
  209MOL   H10429640   4.865   0.121   3.587 -1.5829 -1.6258 -2.8637
  209MOL   H10529641   4.714   0.053   3.611 -0.3132  1.6192 -0.2332
  209MOL   H10629642   4.850   0.005   3.728  1.1815  0.7940 -0.2571
  209MOL   C10729643   4.690   0.420   3.706 -0.1112 -0.1466 -0.2517
  209MOL   C10829644   4.771   0.502   3.606 -0.3289  0.0305 -0.0443
  209MOL   O10929645   4.561   0.479   3.697  0.1295 -0.2561 -0.2170
  209MOL   H11029646   4.722   0.434   3.809 -2.3233 -0.1314  0.4674
  209MOL   H11129647   4.717   0.497   3.511 -0.9490 -1.4775  0.3571
  209MOL   H11229648   4.874   0.470   3.591 -1.2834 -2.7638 -1.0611
  209MOL   H11329649   4.765   0.605   3.638 -1.7893 -0.6447  1.9302
  209MOL   C11429650   4.485   0.443   3.810  1.4131  0.0832 -0.1548
  209MOL   C11529651   4.488   0.553   3.914 -0.0023 -0.1047  0.5020
  209MOL   O11629652   4.355   0.426   3.764  0.2709  0.5417 -0.7960
  209MOL   H11729653   4.511   0.349   3.859  0.3494 -0.0033  0.2582
  209MOL   H11829654   4.456   0.643   3.862  0.3020 -1.4345 -2.0470
  209MOL   H11929655   4.585   0.552   3.963 -0.9828  1.6406  2.6032
  209MOL   H12029656   4.414   0.520   3.988  2.0041 -2.4009  1.5454
  209MOL   C12129657   4.340   0.313   3.685 -0.0988  0.3760  0.0180
  209MOL   C12229658   4.269   0.200   3.757  0.0727 -1.0536  0.9449
  209MOL   O12329659   4.262   0.343   3.572  0.2304  0.2841 -0.3064
  209MOL   H12429660   4.434   0.274   3.645  0.6966 -0.2471  2.4389
  209MOL   H12529661   4.265   0.110   3.696  0.7766 -0.6678  0.3250
  209MOL   H12629662   4.168   0.229   3.786  0.5911  1.1836  0.6437
  209MOL   H12729663   4.309   0.186   3.858 -0.1711  0.8123  1.3237
  209MOL   C12829664   4.330   0.420   3.478 -0.7017 -0.0494 -0.0846
  209MOL   C12929665   4.353   0.330   3.356  0.2950 -0.6454  0.0276
  209MOL   O13029666   4.260   0.528   3.432  0.0881  0.6241 -0.3444
  209MOL   H13129667   4.427   0.455   3.513 -0.4906 -1.2667  0.5643
  209MOL   H13229668   4.257   0.295   3.319  1.0800 -1.6388 -1.0767
  209MOL   H13329669   4.424   0.248   3.367  1.4125  0.3023 -0.0013
  209MOL   H13429670   4.394   0.399   3.283 -1.0685  2.1739  1.8133
  209MOL   C13529671   4.216   0.616   3.535 -0.2329  0.6725 -0.0449
  209MOL   C13629672   4.329   0.704   3.590  0.1712  0.3429  0.5253
  209MOL   O13729673   4.110   0.699   3.491  0.0443 -0.4009 -0.2562
  209MOL   H13829674   4.171   0.553   3.612 -3.7011  1.9873 -0.9123
  209MOL   H13929675   4.411   0.648   3.637  0.9566  0.7925 -0.3014
  209MOL   H14029676   4.286   0.776   3.659  1.5593  3.1118 -1.3915
  209MOL   H14129677   4.375   0.760   3.509 -1.8175  0.3848 -0.6002
  209MOL   H14229678   4.050   0.640   3.447  0.3817 -0.7952 -0.1880
  210MOL     C129679   1.925   1.870   5.073 -0.1384 -0.4966  0.0511
  210MOL     C229680   2.063   1.901   5.007 -0.3465  0.9186  0.2917
  210MOL     O329681   1.828   1.957   5.014  0.5054 -0.5014  0.1201
  210MOL     H429682   1.932   1.889   5.180  0.1102 -0.7833  0.0864
  210MOL     H529683   2.065   1.860   4.905 -2.8042 -0.2383  0.6795
  210MOL     H629684   2.139   1.844   5.060 -1.5935 -0.6281  0.4741
  210MOL     H729685   2.084   2.008   5.007 -0.0726  0.8699  1.2774
  210MOL     H829686   1.900   1.764   5.068 -1.5155 -0.1090 -1.7442
  210MOL     C929687   1.707   1.889   4.994  0.0500 -0.1232 -0.1557
  210MOL    C1029688   1.649   1.845   5.128 -0.1966 -0.6335 -0.7594
  210MOL    O1129689   1.619   1.979   4.938 -0.4818 -0.6095  0.1440
  210MOL    H1229690   1.725   1.812   4.919 -0.6533  0.6946 -1.1741
  210MOL    H1329691   1.546   1.815   5.110 -0.4943 -0.6402  0.8926
  210MOL    H1429692   1.651   1.928   5.198  0.9623  0.2368 -1.7961
  210MOL    H1529693   1.701   1.760   5.171  1.3106  0.3981 -0.5028
  210MOL    C1629694   1.657   2.027   4.817  0.2381 -0.1624 -0.1102
  210MOL    C1729695   1.561   1.957   4.710  0.0529 -0.4706 -0.3704
  210MOL    O1829696   1.637   2.167   4.818  0.1979 -0.1881 -0.7412
  210MOL    H1929697   1.764   2.019   4.798  0.1406 -0.3237 -0.5972
  210MOL    H2029698   1.456   1.961   4.739 -0.2410 -0.4339 -1.4106
  210MOL    H2129699   1.589   1.852   4.705  0.7592 -0.3838  1.3339
  210MOL    H2229700   1.566   2.004   4.611 -1.0260  1.7089  0.5680
  210MOL    C2329701   1.634   2.239   4.944 -0.0645 -0.8315 -0.6107
  210MOL    C2429702   1.706   2.369   4.904 -0.2329 -0.1141  0.6167
  210MOL    O2529703   1.506   2.275   4.981  0.5606 -0.2335 -0.9523
  210MOL    H2629704   1.687   2.196   5.028  1.0322 -1.4593 -1.6127
  210MOL    H2729705   1.808   2.342   4.878 -0.6520 -0.3435 -0.8699
  210MOL    H2829706   1.706   2.421   5.000 -2.5749 -0.6628  0.9529
  210MOL    H2929707   1.661   2.422   4.820 -1.2669 -0.5584  0.8702
  210MOL    C3029708   1.410   2.178   5.003  0.3121 -0.7627  0.7176
  210MOL    C3129709   1.426   2.128   5.143  0.3240 -0.0951  0.0443
  210MOL    O3229710   1.280   2.240   4.997 -0.5524 -0.2649 -0.4028
  210MOL    H3329711   1.414   2.104   4.923  2.0300 -0.2998  0.3529
  210MOL    H3429712   1.528   2.097   5.166 -0.8502 -0.4873  5.2770
  210MOL    H3529713   1.353   2.048   5.151 -1.2614  1.0907 -2.0567
  210MOL    H3629714   1.418   2.213   5.210 -1.9374 -1.7040  1.8500
  210MOL    C3729715   1.255   2.283   4.866  0.0987 -0.4243 -0.0167
  210MOL    C3829716   1.159   2.169   4.811  0.9587 -0.2708 -0.5737
  210MOL    O3929717   1.190   2.400   4.863 -0.1834 -0.1378 -0.3159
  210MOL    H4029718   1.340   2.292   4.798 -1.0994 -0.7492 -1.5818
  210MOL    H4129719   1.065   2.174   4.867  0.9688  0.9115 -0.6509
  210MOL    H4229720   1.197   2.067   4.818  1.2303 -0.0755  0.9366
  210MOL    H4329721   1.122   2.169   4.708 -0.7542 -0.1997  0.0218
  210MOL    C4429722   1.273   2.510   4.884 -0.1580 -0.3962 -0.6269
  210MOL    C4529723   1.318   2.570   4.756 -0.2422  0.2315 -0.1264
  210MOL    O4629724   1.209   2.610   4.958 -0.2263 -0.4896 -0.5130
  210MOL    H4729725   1.362   2.488   4.943 -2.4773 -2.0393  2.4658
  210MOL    H4829726   1.230   2.587   4.694 -0.8260  1.2288  0.9382
  210MOL    H4929727   1.378   2.503   4.695 -0.7570  0.8311 -1.3116
  210MOL    H5029728   1.376   2.660   4.775 -0.8780  0.2945  1.5827
  210MOL    C5129729   1.192   2.584   5.100 -0.4654  0.1875 -0.3476
  210MOL    C5229730   1.261   2.702   5.169  0.1746 -0.3888 -0.4421
  210MOL    O5329731   1.054   2.589   5.144 -0.1603 -0.5960  0.6562
  210MOL    H5429732   1.241   2.491   5.131 -1.9049 -0.4229  0.1106
  210MOL    H5529733   1.188   2.769   5.214  0.9950  0.4086 -0.2786
  210MOL    H5629734   1.331   2.749   5.099 -0.6826  2.4768  0.5306
  210MOL    H5729735   1.316   2.654   5.249 -0.3643  0.8784  0.7114
  210MOL    C5829736   0.980   2.474   5.131 -0.1214  0.0252  0.4215
  210MOL    C5929737   0.964   2.424   5.270  0.2922  0.5091  0.1489
  210MOL    O6029738   0.855   2.493   5.077  0.6389 -0.4111 -0.1237
  210MOL    H6129739   1.037   2.405   5.068 -0.7590  1.1285 -1.3959
  210MOL    H6229740   0.926   2.498   5.339  2.7492 -0.2419  2.3819
  210MOL    H6329741   1.063   2.395   5.305 -0.1775  0.0122  1.0643
  210MOL    H6429742   0.891   2.343   5.265 -0.7447  1.4805 -0.6653
  210MOL    C6529743   0.844   2.472   4.936 -0.2496 -0.2062 -0.6721
  210MOL    C6629744   0.749   2.361   4.917  0.0265  0.6347  0.4544
  210MOL    O6729745   0.789   2.587   4.880  0.3243  0.1695 -0.7428
  210MOL    H6829746   0.943   2.447   4.898  0.1231  0.3624 -0.0951
  210MOL    H6929747   0.647   2.385   4.947 -0.8303  0.4961 -2.2177
  210MOL    H7029748   0.774   2.270   4.971 -0.8671 -0.8802 -1.5926
  210MOL    H7129749   0.740   2.328   4.813 -2.7042 -2.7587  1.6914
  210MOL    C7229750   0.877   2.694   4.866 -0.1642 -0.3817 -0.4482
  210MOL    C7329751   0.886   2.710   4.715  0.6445 -0.0282 -0.0963
  210MOL    O7429752   0.820   2.810   4.922  0.0591 -0.1097 -0.5088
  210MOL    H7529753   0.976   2.673   4.907  0.1775  0.9694 -0.5824
  210MOL    H7629754   0.925   2.616   4.675  0.9380 -0.6219  1.5532
  210MOL    H7729755   0.971   2.772   4.684 -0.3771  1.2838 -0.3253
  210MOL    H7829756   0.801   2.746   4.657 -0.5049  0.2363  1.7256
  210MOL    C7929757   0.855   2.843   5.054  0.5726 -0.2984  0.4296
  210MOL    C8029758   0.957   2.957   5.054 -0.7758  0.0908  0.0845
  210MOL    O8129759   0.747   2.889   5.135  0.2879  0.2923  0.1731
  210MOL    H8229760   0.888   2.759   5.115 -1.1033  1.3997  3.8597
  210MOL    H8329761   0.985   2.975   5.158  1.6015 -0.9115 -0.3396
  210MOL    H8429762   0.916   3.048   5.010  0.9982  0.1477 -1.4909
  210MOL    H8529763   1.047   2.956   4.993  0.3695  0.6579  1.7074
  210MOL    C8629764   0.650   2.794   5.156 -0.3878 -0.5953  0.4334
  210MOL    C8729765   0.661   2.749   5.298  0.4253  1.0660  0.0309
  210MOL    O8829766   0.525   2.851   5.134 -0.5703 -0.1847 -0.1790
  210MOL    H8929767   0.674   2.706   5.096 -2.8715 -1.1318  0.1727
  210MOL    H9029768   0.640   2.829   5.369 -1.5240 -1.0347  1.9217
  210MOL    H9129769   0.762   2.712   5.314  0.3362  0.8778  0.1597
  210MOL    H9229770   0.599   2.661   5.314 -0.2521  1.3185 -1.1223
  210MOL    C9329771   0.498   2.844   4.999 -0.4028 -0.7047  0.5033
  210MOL    C9429772   0.366   2.767   4.990 -0.1531  0.2463  0.6395
  210MOL    O9529773   0.463   2.975   4.949  0.5950 -0.0212  1.0184
  210MOL    H9629774   0.567   2.799   4.929 -1.7139  0.6497 -1.7234
  210MOL    H9729775   0.318   2.799   4.897 -1.2176  0.4394  1.2477
  210MOL    H9829776   0.297   2.790   5.071  0.6763 -0.0147  1.4286
  210MOL    H9929777   0.385   2.661   4.978 -2.3065 -0.1557  0.6231
  210MOL   C10029778   0.573   3.053   4.920 -0.0253  0.2225 -0.8250
  210MOL   C10129779   0.571   3.066   4.769  0.6057  0.0694  0.3881
  210MOL   O10229780   0.548   3.186   4.978 -0.1568  0.6324  0.2750
  210MOL   H10329781   0.668   3.020   4.961 -0.1778  1.9026  0.9459
  210MOL   H10429782   0.578   2.969   4.720  2.5240 -0.0103  0.7862
  210MOL   H10529783   0.662   3.114   4.733 -0.0939  1.2805  0.1925
  210MOL   H10629784   0.485   3.121   4.732  0.0659 -1.7149 -1.0393
  210MOL   C10729785   0.573   3.196   5.119  0.1855 -0.6528 -0.5557
  210MOL   C10829786   0.685   3.293   5.126  0.0705 -0.2807  0.7531
  210MOL   O10929787   0.464   3.251   5.182 -0.4330  0.0151  0.6822
  210MOL   H11029788   0.591   3.097   5.162  4.1478 -0.1103 -0.7984
  210MOL   H11129789   0.661   3.385   5.072 -0.2942 -0.2477  0.9638
  210MOL   H11229790   0.778   3.243   5.100  0.6283  0.4196  1.3697
  210MOL   H11329791   0.682   3.307   5.234 -1.6900 -0.0999  0.6956
  210MOL   C11429792   0.351   3.163   5.197 -0.1888  0.8598  0.2718
  210MOL   C11529793   0.367   3.082   5.333 -1.1966 -0.1961 -0.1197
  210MOL   O11629794   0.236   3.241   5.207 -0.3859 -0.1746  0.4936
  210MOL   H11729795   0.343   3.095   5.112  0.4433 -0.3303  1.1482
  210MOL   H11829796   0.346   3.145   5.419  0.6115  0.7947 -0.3759
  210MOL   H11929797   0.468   3.040   5.335 -1.6510 -1.2233  3.1798
  210MOL   H12029798   0.288   3.007   5.330 -0.5103 -0.9970  1.4627
  210MOL   C12129799   0.211   3.304   5.085 -0.0132 -0.2452  0.6458
  210MOL   C12229800   0.107   3.223   5.014  0.5305  0.5990  0.0855
  210MOL   O12329801   0.165   3.438   5.103 -1.1891 -0.2158  0.8207
  210MOL   H12429802   0.295   3.296   5.016 -0.2688  1.8545  0.0465
  210MOL   H12529803   0.144   3.124   4.991 -0.5310  0.2283 -0.0447
  210MOL   H12629804   0.068   3.265   4.921  0.4247 -1.6841 -0.9373
  210MOL   H12729805   0.016   3.216   5.074  0.8509 -1.6834  0.3479
  210MOL   C12829806   0.259   3.529   5.153 -0.9320 -0.2644  0.1036
  210MOL   C12929807   0.265   3.638   5.040 -0.1141 -0.2292 -0.0220
  210MOL   O13029808   0.217   3.589   5.273  0.2219  0.0566 -0.2148
  210MOL   H13129809   0.357   3.486   5.172 -0.9615  0.0859  1.0521
  210MOL   H13229810   0.300   3.590   4.949  2.1710 -2.5344  1.9951
  210MOL   H13329811   0.325   3.724   5.071  0.2716 -1.0248  1.5191
  210MOL   H13429812   0.167   3.680   5.017 -0.5403 -1.0773  0.2305
  210MOL   C13529813   0.220   3.502   5.389  0.0521 -0.6673  0.0833
  210MOL   C13629814   0.202   3.588   5.517  0.1697  0.7036  0.1441
  210MOL   O13729815   0.112   3.403   5.386  0.0109 -0.1482  0.0246
  210MOL   H13829816   0.315   3.449   5.399  0.0192 -0.5414  1.1550
  210MOL   H13929817   0.194   3.525   5.605  2.5285 -0.2435 -0.2810
  210MOL   H14029818   0.111   3.647   5.507  0.2508  0.8788  0.4337
  210MOL   H14129819   0.286   3.656   5.526  2.9252 -2.1463 -2.7670
  210MOL   H14229820   0.143   3.333   5.332  1.7770 -0.0130  0.8104
  211MOL     C129821   1.696   5.094   3.402 -0.1341  0.0139  0.0842
  211MOL     C229822   1.554   5.056   3.364 -0.2491  0.3925 -0.1164
  211MOL     O329823   1.724   5.203   3.323  0.4022 -0.1649 -0.2421
  211MOL     H429824   1.763   5.010   3.384 -1.5300 -0.9539 -0.6928
  211MOL     H529825   1.487   5.142   3.372  0.8801  1.4733 -1.9039
  211MOL     H629826   1.507   4.975   3.419  1.3891  0.6355  1.7101
  211MOL     H729827   1.558   5.036   3.257  0.5887 -1.1453  0.1813
  211MOL     H829828   1.705   5.126   3.506  1.2914  1.6392 -0.5206
  211MOL     C929829   1.819   5.290   3.366  0.5933 -0.1745  0.1462
  211MOL    C1029830   1.854   5.387   3.249  0.0726  0.2677  0.2212
  211MOL    O1129831   1.763   5.363   3.467  0.2112 -0.2216 -0.1290
  211MOL    H1229832   1.911   5.240   3.397  0.8379  0.0927 -0.1481
  211MOL    H1329833   1.758   5.431   3.221  1.0036  1.1789 -1.6113
  211MOL    H1429834   1.889   5.331   3.163  1.7187 -1.6172  2.0529
  211MOL    H1529835   1.933   5.457   3.276  0.4559  0.0265 -0.2808
  211MOL    C1629836   1.862   5.431   3.550 -0.2254  0.2376  0.0659
  211MOL    C1729837   1.784   5.502   3.663  0.6611  0.4318 -0.6034
  211MOL    O1829838   1.962   5.343   3.610 -0.0336 -0.0953  0.0722
  211MOL    H1929839   1.922   5.501   3.492  0.2544  0.0645  0.3501
  211MOL    H2029840   1.745   5.419   3.723 -2.8542  2.3543 -0.1330
  211MOL    H2129841   1.699   5.561   3.631 -0.9338 -1.3654  0.2016
  211MOL    H2229842   1.854   5.559   3.725  0.4954 -0.6848  0.6381
  211MOL    C2329843   2.096   5.391   3.607  0.4764 -0.8549  0.1599
  211MOL    C2429844   2.181   5.290   3.677 -0.2453  0.1437 -0.1147
  211MOL    O2529845   2.141   5.403   3.479  0.4108 -0.4041 -0.4511
  211MOL    H2629846   2.107   5.485   3.659 -0.8182  0.5699 -2.0406
  211MOL    H2729847   2.285   5.320   3.691  0.4762 -1.4974 -1.6620
  211MOL    H2829848   2.189   5.193   3.627  0.1459  0.5250 -0.7949
  211MOL    H2929849   2.143   5.282   3.779 -0.8383 -3.4524 -0.5634
  211MOL    C3029850   2.223   5.516   3.459 -0.3255  0.2374  0.1308
  211MOL    C3129851   2.284   5.502   3.315  0.1030  0.3959 -0.4760
  211MOL    O3229852   2.134   5.629   3.458 -0.3579 -0.0397  0.1799
  211MOL    H3329853   2.317   5.519   3.515 -0.3515  2.4393  0.1131
  211MOL    H3429854   2.307   5.399   3.291  1.3697  0.9037 -1.5086
  211MOL    H3529855   2.372   5.564   3.302 -0.7473  1.8366  0.5010
  211MOL    H3629856   2.207   5.545   3.250  0.0341  1.6147  0.3915
  211MOL    C3729857   2.193   5.746   3.497 -0.4070  0.6722 -0.1853
  211MOL    C3829858   2.096   5.856   3.473 -0.1116 -0.1761  0.3236
  211MOL    O3929859   2.210   5.731   3.631  0.0416  0.3014 -0.1330
  211MOL    H4029860   2.289   5.751   3.445 -0.6768 -1.2637 -0.9063
  211MOL    H4129861   2.152   5.949   3.463  0.3371 -0.3761  0.9470
  211MOL    H4229862   2.029   5.875   3.557  1.1575  0.1905  1.2688
  211MOL    H4329863   2.034   5.835   3.386  0.5394  3.1097 -1.0009
  211MOL    C4429864   2.333   5.767   3.676  0.7406  0.7141  0.6619
  211MOL    C4529865   2.312   5.824   3.815 -0.1217 -0.1220 -0.3491
  211MOL    O4629866   2.414   5.656   3.679 -0.7179 -0.3249  0.1294
  211MOL    H4729867   2.375   5.842   3.610  0.1558  0.6648  0.2306
  211MOL    H4829868   2.241   5.905   3.801 -1.5896 -1.6786 -2.2303
  211MOL    H4929869   2.401   5.869   3.859 -0.6265  4.1371 -3.3775
  211MOL    H5029870   2.268   5.745   3.877  1.8945 -0.9585  0.0642
  211MOL    C5129871   2.538   5.676   3.618  0.0367  0.6778 -0.0190
  211MOL    C5229872   2.617   5.549   3.654 -0.1322 -0.2325  0.5668
  211MOL    O5329873   2.525   5.672   3.477 -0.7046 -0.1322  0.1814
  211MOL    H5429874   2.584   5.769   3.652 -0.5154  1.2030 -0.6983
  211MOL    H5529875   2.603   5.525   3.760  1.4775 -0.6056  0.7165
  211MOL    H5629876   2.724   5.558   3.634 -0.2581 -0.4362 -0.2101
  211MOL    H5729877   2.585   5.465   3.593  3.2642 -1.4138  0.2802
  211MOL    C5829878   2.609   5.758   3.408 -0.0251 -0.2285  0.3517
  211MOL    C5929879   2.627   5.709   3.268  0.1948  1.1419 -0.0284
  211MOL    O6029880   2.545   5.883   3.405 -0.7008 -0.4945  0.0227
  211MOL    H6129881   2.708   5.765   3.454  1.1240  0.0879 -2.0846
  211MOL    H6229882   2.683   5.616   3.284 -0.2202  1.0269  0.8056
  211MOL    H6329883   2.699   5.760   3.205  0.0830  1.6674  0.2672
  211MOL    H6429884   2.541   5.677   3.210  0.1771  0.1805  0.5184
  211MOL    C6529885   2.625   5.993   3.452  0.2030  0.1746  0.1942
  211MOL    C6629886   2.544   6.117   3.406 -0.3735 -0.1602  0.0211
  211MOL    O6729887   2.632   5.986   3.587  0.4675  0.1432  0.3463
  211MOL    H6829888   2.724   5.993   3.405 -0.2803  1.0074 -0.8389
  211MOL    H6929889   2.536   6.110   3.298  1.0840  1.9730 -0.2714
  211MOL    H7029890   2.596   6.207   3.441  0.1927  0.1691 -1.6514
  211MOL    H7129891   2.446   6.123   3.452 -1.4354 -1.1928 -2.0585
  211MOL    C7229892   2.758   6.019   3.640 -0.0954 -0.6195  0.4750
  211MOL    C7329893   2.743   6.018   3.792  0.0363  0.5063  0.9554
  211MOL    O7429894   2.863   5.930   3.598 -0.0154  0.2128  0.3550
  211MOL    H7529895   2.780   6.122   3.612 -0.3826 -0.5092  0.6564
  211MOL    H7629896   2.683   6.104   3.822 -1.1744 -0.1369  0.4088
  211MOL    H7729897   2.836   6.028   3.847  0.0990 -0.2822  0.9986
  211MOL    H7829898   2.709   5.919   3.823  1.5363 -0.3911 -0.2303
  211MOL    C7929899   2.980   6.003   3.561  0.6621 -0.0990  0.4557
  211MOL    C8029900   3.096   5.905   3.565  0.0506  0.0576  0.5768
  211MOL    O8129901   2.974   6.051   3.428  0.2127  0.7695 -0.0788
  211MOL    H8229902   3.000   6.082   3.633 -2.2029  0.4392  0.7519
  211MOL    H8329903   3.087   5.824   3.492  1.1122  1.3791 -1.0521
  211MOL    H8429904   3.114   5.867   3.665  0.8605  0.1031  0.4512
  211MOL    H8529905   3.189   5.949   3.529  1.1976 -2.2717  0.5610
  211MOL    C8629906   3.006   6.189   3.416  0.1109  0.3728  0.1007
  211MOL    C8729907   2.973   6.243   3.272  0.0013 -0.1858 -0.8193
  211MOL    O8829908   2.931   6.261   3.505 -0.6561 -0.2789 -0.6250
  211MOL    H8929909   3.114   6.194   3.430  0.0727  1.4874  0.0394
  211MOL    H9029910   2.995   6.348   3.254  1.2095  0.5014  3.8997
  211MOL    H9129911   2.864   6.235   3.266 -0.3727  2.2802  1.6200
  211MOL    H9229912   3.021   6.179   3.198 -0.2665 -2.1811  0.6838
  211MOL    C9329913   2.993   6.380   3.539 -0.6978 -0.0024  0.2536
  211MOL    C9429914   2.889   6.465   3.612 -0.6994  0.7339 -0.2316
  211MOL    O9529915   3.104   6.357   3.624  0.1562  0.0265 -0.2028
  211MOL    H9629916   3.025   6.433   3.449 -0.4663 -1.9644 -0.8586
  211MOL    H9729917   2.882   6.428   3.714  1.9400 -0.9794 -0.5920
  211MOL    H9829918   2.797   6.454   3.555 -0.3066  0.4144 -0.8132
  211MOL    H9929919   2.941   6.561   3.610 -1.6500  1.2613  0.1329
  211MOL   C10029920   3.211   6.447   3.596  0.3294 -0.7997 -0.2141
  211MOL   C10129921   3.308   6.434   3.712  0.5867 -0.4669  0.0464
  211MOL   O10229922   3.268   6.399   3.477  0.2007 -0.6247 -0.4415
  211MOL   H10329923   3.182   6.552   3.588  0.0179 -1.0095 -2.0275
  211MOL   H10429924   3.386   6.506   3.690  0.1676 -0.4775 -1.5574
  211MOL   H10529925   3.357   6.337   3.699 -1.5571 -1.4294 -1.1712
  211MOL   H10629926   3.268   6.447   3.813  0.7697  1.9766 -0.1697
  211MOL   C10729927   3.308   6.491   3.384 -0.3393 -0.6021 -0.3034
  211MOL   C10829928   3.416   6.411   3.296  0.4847  0.6813 -0.2186
  211MOL   O10929929   3.206   6.520   3.304 -0.0343  0.3464  0.2147
  211MOL   H11029930   3.349   6.575   3.440 -1.1762  0.1758 -0.8533
  211MOL   H11129931   3.363   6.331   3.242  1.7093 -0.4119  0.1798
  211MOL   H11229932   3.492   6.372   3.363  0.6976 -0.6940 -1.2269
  211MOL   H11329933   3.472   6.476   3.229  0.7950 -2.0585 -2.7078
  211MOL   C11429934   3.171   6.658   3.290 -0.1846  0.5343 -0.4474
  211MOL   C11529935   3.068   6.657   3.175  0.3690 -0.1547  0.1110
  211MOL   O11629936   3.104   6.706   3.397 -0.7610  0.0148  0.1611
  211MOL   H11729937   3.254   6.724   3.264 -0.1622  1.2226  1.2858
  211MOL   H11829938   3.106   6.612   3.083 -1.7549  1.7172 -1.7217
  211MOL   H11929939   3.042   6.760   3.150  0.0985  0.1434  1.5812
  211MOL   H12029940   2.985   6.604   3.223  0.5237  1.1080  1.8469
  211MOL   C12129941   3.162   6.820   3.442 -0.1772  0.2993 -0.5385
  211MOL   C12229942   3.062   6.876   3.542  0.1356  0.7074 -0.7110
  211MOL   O12329943   3.273   6.788   3.513 -0.0526  0.1177 -0.6593
  211MOL   H12429944   3.165   6.890   3.359 -0.9326 -2.7094 -3.1925
  211MOL   H12529945   3.087   6.968   3.594 -3.2031  0.6859  1.0161
  211MOL   H12629946   3.029   6.804   3.617 -2.0478  0.0266 -2.2985
  211MOL   H12729947   2.972   6.891   3.484 -0.4052 -1.4415 -0.4621
  211MOL   C12829948   3.384   6.865   3.475  0.5528 -0.1736 -0.4147
  211MOL   C12929949   3.489   6.845   3.593  0.3546  0.2185 -0.8024
  211MOL   O13029950   3.439   6.807   3.363  0.5145  0.7582  0.6799
  211MOL   H13129951   3.362   6.970   3.455 -0.0551 -0.4693 -1.3476
  211MOL   H13229952   3.586   6.892   3.574  2.6998 -4.4734 -1.1159
  211MOL   H13329953   3.514   6.739   3.593 -0.2856  0.0421  2.2829
  211MOL   H13429954   3.455   6.878   3.691  2.0809 -0.1229 -0.0542
  211MOL   C13529955   3.532   6.880   3.287 -0.1051 -0.7254 -0.6383
  211MOL   C13629956   3.610   6.779   3.206 -0.2773  0.0300  0.1263
  211MOL   O13729957   3.466   6.971   3.208  0.3891 -0.0266 -0.0473
  211MOL   H13829958   3.595   6.939   3.353  0.5112  0.4406 -2.2296
  211MOL   H13929959   3.671   6.712   3.265  1.3791  1.9860  0.6846
  211MOL   H14029960   3.676   6.835   3.139  1.4794 -1.5318  0.5174
  211MOL   H14129961   3.532   6.725   3.151 -1.3972  2.1444 -0.4358
  211MOL   H14229962   3.398   6.927   3.159 -2.7606  2.2427  1.9969
  212MOL     C129963   4.606   2.504   0.429 -0.1226  0.0507  0.0484
  212MOL     C229964   4.528   2.602   0.345 -1.0011  0.8737  0.5362
  212MOL     O329965   4.582   2.540   0.563 -0.2540 -0.0991 -0.0126
  212MOL     H429966   4.712   2.515   0.406 -0.3238 -1.0144 -1.4746
  212MOL     H529967   4.582   2.696   0.357  1.4610 -0.6452  1.5797
  212MOL     H629968   4.419   2.605   0.356 -0.9842 -1.0302  1.3445
  212MOL     H729969   4.539   2.564   0.243 -0.4305  2.4971 -0.0240
  212MOL     H829970   4.577   2.404   0.399 -1.4918  0.0694  1.2778
  212MOL     C929971   4.632   2.448   0.663  0.1086  0.5505 -0.6702
  212MOL    C1029972   4.763   2.505   0.702  0.6998  0.4683  0.0576
  212MOL    O1129973   4.557   2.440   0.773  0.3360  0.0947 -0.6368
  212MOL    H1229974   4.644   2.348   0.622  0.8727 -0.2594  1.4561
  212MOL    H1329975   4.762   2.614   0.695 -0.6520  0.4788  0.2505
  212MOL    H1429976   4.848   2.478   0.640  0.5088  2.3291 -1.0638
  212MOL    H1529977   4.790   2.473   0.802  2.0820  0.3498 -0.3527
  212MOL    C1629978   4.436   2.371   0.748 -0.4399 -0.1165 -0.2059
  212MOL    C1729979   4.468   2.220   0.766  0.6648 -0.5603  0.1654
  212MOL    O1829980   4.343   2.398   0.849 -0.3481 -0.2804 -0.6237
  212MOL    H1929981   4.391   2.388   0.651  0.8172 -1.4894 -1.0477
  212MOL    H2029982   4.525   2.204   0.858  1.9874  0.8279 -0.3978
  212MOL    H2129983   4.505   2.174   0.674 -0.2693  1.8274 -1.4413
  212MOL    H2229984   4.370   2.173   0.781  0.4732 -1.1207 -2.6510
  212MOL    C2329985   4.277   2.519   0.840  0.3977  0.1960 -0.5232
  212MOL    C2429986   4.138   2.491   0.785  0.3450 -0.1295 -0.3984
  212MOL    O2529987   4.246   2.577   0.962 -0.2639 -0.1992  0.1763
  212MOL    H2629988   4.324   2.596   0.779  0.0576  0.2269 -0.7530
  212MOL    H2729989   4.084   2.424   0.852 -0.6108  1.5960  0.5804
  212MOL    H2829990   4.143   2.455   0.682  4.0468  0.5527 -0.5300
  212MOL    H2929991   4.079   2.582   0.778 -0.0411 -0.1276  2.2514
  212MOL    C3029992   4.355   2.646   1.024  0.2088 -0.2591  0.2180
  212MOL    C3129993   4.314   2.787   1.057 -0.5160 -0.5562 -0.4509
  212MOL    O3229994   4.386   2.593   1.146 -0.0059  0.1654 -0.2893
  212MOL    H3329995   4.447   2.645   0.966  0.1860  1.1147  0.1430
  212MOL    H3429996   4.380   2.826   1.135 -2.1144 -0.5142  0.9011
  212MOL    H3529997   4.215   2.791   1.102  0.0738  1.4721  0.7463
  212MOL    H3629998   4.319   2.848   0.966 -0.1723 -1.1969 -0.8648
  212MOL    C3729999   4.464   2.472   1.144  0.7002  0.7100  0.3508
  212MOL    C3830000   4.608   2.513   1.195 -0.7199  0.2014  0.0729
  212MOL    O3930001   4.411   2.367   1.228 -0.2624  0.1124 -0.3335
  212MOL    H4030002   4.459   2.439   1.040  0.9628  1.9341 -0.0651
  212MOL    H4130003   4.690   2.441   1.200 -1.2087 -0.2887  1.1373
  212MOL    H4230004   4.595   2.552   1.296  0.9709 -0.2410  0.4775
  212MOL    H4330005   4.644   2.598   1.138  0.9709  0.2678  1.2239
  212MOL    C4430006   4.292   2.323   1.176 -0.8604  0.5828  1.1103
  212MOL    C4530007   4.322   2.181   1.131  0.2870 -0.6075 -0.5043
  212MOL    O4630008   4.193   2.315   1.268  0.8235 -0.2471 -0.1541
  212MOL    H4730009   4.256   2.384   1.093  0.8019  2.1101  1.4853
  212MOL    H4830010   4.344   2.125   1.221  1.7365  0.0651 -0.4318
  212MOL    H4930011   4.404   2.171   1.059  0.6296  1.3444 -0.4052
  212MOL    H5030012   4.237   2.141   1.075  0.5084 -0.6881 -0.7848
  212MOL    C5130013   4.112   2.431   1.271  0.0710 -0.0556 -0.1084
  212MOL    C5230014   3.972   2.379   1.228  0.0639  0.6901  0.4059
  212MOL    O5330015   4.101   2.485   1.401  0.7462 -0.1178 -0.2134
  212MOL    H5430016   4.138   2.514   1.205 -0.5474 -0.0079 -0.3026
  212MOL    H5530017   3.889   2.449   1.235 -1.2103 -0.8966  1.7206
  212MOL    H5630018   3.938   2.293   1.286 -2.1010 -0.5636 -2.6109
  212MOL    H5730019   3.985   2.346   1.125  0.3337 -0.0993  0.6853
  212MOL    C5830020   4.214   2.564   1.432  0.1745 -0.3592 -0.7591
  212MOL    C5930021   4.163   2.710   1.415 -0.2294  0.3617  0.8028
  212MOL    O6030022   4.239   2.549   1.569 -0.2350 -0.1188 -0.4092
  212MOL    H6130023   4.306   2.552   1.376  0.4804 -2.4802  0.1578
  212MOL    H6230024   4.065   2.719   1.462  0.2437  1.8593  1.5395
  212MOL    H6330025   4.170   2.730   1.308  3.3302  1.4851  1.1805
  212MOL    H6430026   4.227   2.785   1.461 -0.0760 -0.4325  1.9141
  212MOL    C6530027   4.310   2.428   1.596  0.5846  0.1647 -0.7484
  212MOL    C6630028   4.461   2.466   1.623 -0.4367 -0.2311  0.4439
  212MOL    O6730029   4.258   2.378   1.718 -0.3333  0.1160 -0.1588
  212MOL    H6830030   4.298   2.357   1.514 -0.6983 -1.4833  0.7924
  212MOL    H6930031   4.510   2.519   1.541 -1.1552 -1.1991 -0.6297
  212MOL    H7030032   4.519   2.383   1.662 -0.0457 -1.0890 -1.8670
  212MOL    H7130033   4.466   2.532   1.709 -0.0435  0.8439 -0.3882
  212MOL    C7230034   4.133   2.324   1.699 -0.7124 -0.2768 -0.7370
  212MOL    C7330035   4.150   2.186   1.744 -0.0621  0.0189 -0.2859
  212MOL    O7430036   4.040   2.385   1.785  0.7978  0.4586  0.2726
  212MOL    H7530037   4.090   2.324   1.599  0.4126  0.1701 -1.2369
  212MOL    H7630038   4.222   2.131   1.683  0.2909 -0.3196  0.4247
  212MOL    H7730039   4.054   2.136   1.732  1.0843 -2.2766 -0.0232
  212MOL    H7830040   4.200   2.174   1.840  1.4364 -1.2367 -1.1864
  212MOL    C7930041   3.974   2.495   1.733  0.2647  0.2043 -0.2392
  212MOL    C8030042   3.830   2.462   1.726 -0.5448 -0.2031 -0.4008
  212MOL    O8130043   3.980   2.601   1.817 -0.3456  0.3248 -0.1962
  212MOL    H8230044   4.016   2.541   1.644  0.9026  0.0316 -0.0311
  212MOL    H8330045   3.801   2.459   1.831  0.0951  2.1783 -0.1221
  212MOL    H8430046   3.814   2.371   1.669  0.6677 -0.7979  0.2102
  212MOL    H8530047   3.774   2.538   1.670 -0.9956 -0.9516 -0.9668
  212MOL    C8630048   4.111   2.658   1.839  0.7024 -0.2187 -0.7227
  212MOL    C8730049   4.102   2.799   1.783 -0.2673  0.5846  0.4943
  212MOL    O8830050   4.128   2.681   1.976 -0.1576  0.1387 -0.4612
  212MOL    H8930051   4.198   2.605   1.801 -0.9101 -2.3879 -1.4963
  212MOL    H9030052   4.024   2.852   1.838  0.3925  1.8421  0.2542
  212MOL    H9130053   4.088   2.795   1.675  2.2954 -0.5744  0.1505
  212MOL    H9230054   4.187   2.859   1.817  1.3465 -2.1167  1.3376
  212MOL    C9330055   4.153   2.567   2.049  0.3453 -0.1390  0.3751
  212MOL    C9430056   4.304   2.576   2.095 -0.0370 -0.5649  0.0018
  212MOL    O9530057   4.073   2.576   2.159  0.2409 -0.4498 -0.6647
  212MOL    H9630058   4.140   2.477   1.990  0.4177  1.3851 -2.0387
  212MOL    H9730059   4.327   2.509   2.177 -2.1656 -3.5825 -1.7878
  212MOL    H9830060   4.304   2.675   2.141  0.6711 -0.9383  0.8263
  212MOL    H9930061   4.375   2.562   2.013  0.9528 -3.0183  1.2225
  212MOL   C10030062   3.950   2.524   2.147 -0.2769 -0.0069  0.3010
  212MOL   C10130063   3.969   2.409   2.239  0.4157  0.4138  0.5713
  212MOL   O10230064   3.859   2.610   2.207 -0.3966 -0.2170  0.4868
  212MOL   H10330065   3.917   2.496   2.047  0.8904  1.3002 -0.4550
  212MOL   H10430066   3.877   2.351   2.241  0.7612 -0.1070  1.7591
  212MOL   H10530067   4.005   2.443   2.336  0.2427  2.7108 -0.1361
  212MOL   H10630068   4.044   2.348   2.188  0.4011  1.3832 -0.6314
  212MOL   C10730069   3.798   2.699   2.114  0.8854  0.0615  0.0408
  212MOL   C10830070   3.655   2.636   2.097  0.0995 -0.5787  0.5404
  212MOL   O10930071   3.784   2.822   2.172  0.4455 -0.6218  0.1040
  212MOL   H11030072   3.854   2.707   2.021  1.0610 -1.6337 -0.0179
  212MOL   H11130073   3.660   2.552   2.028  1.0786 -0.0148 -0.0810
  212MOL   H11230074   3.588   2.700   2.040 -1.8127 -1.2644  1.9854
  212MOL   H11330075   3.604   2.596   2.185 -1.4140 -2.5401 -1.1912
  212MOL   C11430076   3.901   2.907   2.166 -0.0110  0.3924 -0.0351
  212MOL   C11530077   3.844   3.030   2.088 -0.1896  0.0638  0.3174
  212MOL   O11630078   3.942   2.956   2.285 -0.5693  0.0623 -0.2501
  212MOL   H11730079   3.984   2.859   2.114 -0.3227 -0.6426  0.4044
  212MOL   H11830080   3.928   3.094   2.065 -0.0968 -0.0973  0.2045
  212MOL   H11930081   3.776   3.089   2.150  0.6013  0.6727  0.5992
  212MOL   H12030082   3.783   3.006   2.001  0.5077 -1.0943  0.1282
  212MOL   C12130083   4.011   2.862   2.360 -0.0421  0.0711 -0.6481
  212MOL   C12230084   4.163   2.886   2.349  0.6648 -0.1032  0.7997
  212MOL   O12330085   3.971   2.881   2.494  0.3046  0.5938 -0.5400
  212MOL   H12430086   3.996   2.761   2.321  0.1855  0.9811 -3.2139
  212MOL   H12530087   4.192   2.983   2.389 -0.7278  0.3272  0.7874
  212MOL   H12630088   4.188   2.880   2.243 -1.1335 -1.6368  0.4329
  212MOL   H12730089   4.211   2.800   2.395  0.4051 -0.3285  0.6563
  212MOL   C12830090   3.849   2.813   2.518 -0.1369 -0.2740  0.4991
  212MOL   C12930091   3.867   2.697   2.612  0.1370  0.4140 -0.5066
  212MOL   O13030092   3.744   2.891   2.574 -0.3321  0.5412 -0.0078
  212MOL   H13130093   3.807   2.764   2.430  1.4111 -0.7795  0.0337
  212MOL   H13230094   3.775   2.649   2.646 -0.0682  1.3609  0.3294
  212MOL   H13330095   3.902   2.736   2.708 -0.3592  1.4622 -0.7404
  212MOL   H13430096   3.940   2.622   2.581 -2.8226 -2.6554 -0.3569
  212MOL   C13530097   3.691   2.980   2.475 -0.6891  0.2086  0.6044
  212MOL   C13630098   3.547   3.018   2.498  0.0931  0.3509  0.7960
  212MOL   O13730099   3.768   3.100   2.461  0.5011  0.5566  0.5908
  212MOL   H13830100   3.700   2.937   2.375 -2.1768  3.1551 -0.8802
  212MOL   H13930101   3.502   3.072   2.415 -0.1725 -1.9846 -0.6038
  212MOL   H14030102   3.539   3.076   2.590  3.9522 -0.5975  1.8296
  212MOL   H14130103   3.499   2.921   2.512  3.3723 -1.6237 -0.9515
  212MOL   H14230104   3.857   3.070   2.449  0.5221 -1.4173  4.7096
  213MOL     C130105   2.947   6.310   3.967  0.1596 -0.0001 -0.0902
  213MOL     C230106   3.078   6.256   3.975  0.3490 -0.1749 -0.8344
  213MOL     O330107   2.883   6.312   4.094  0.7163  0.1720  0.0452
  213MOL     H430108   2.902   6.237   3.901  2.2901 -1.5331  0.1022
  213MOL     H530109   3.130   6.299   4.062 -0.2002 -1.5120  0.1636
  213MOL     H630110   3.146   6.275   3.892  0.9255  0.4392 -0.2335
  213MOL     H730111   3.065   6.150   3.995  3.8428 -0.2758  1.4552
  213MOL     H830112   2.951   6.411   3.926  1.7269  0.0266  0.1190
  213MOL     C930113   2.750   6.357   4.088  1.0434 -0.1144  0.5622
  213MOL    C1030114   2.706   6.360   4.230  0.2733  0.3754  0.3205
  213MOL    O1130115   2.753   6.483   4.027 -0.8152  0.0478  0.2054
  213MOL    H1230116   2.691   6.291   4.024  0.1333  0.9859  0.2504
  213MOL    H1330117   2.710   6.259   4.270  2.0837 -0.4365 -1.7863
  213MOL    H1430118   2.601   6.386   4.236 -0.0419 -0.7135 -0.4235
  213MOL    H1530119   2.772   6.420   4.294  0.0611  1.6679 -0.6525
  213MOL    C1630120   2.637   6.524   3.956 -0.2367  0.3398 -0.4752
  213MOL    C1730121   2.653   6.672   3.916  0.0422 -0.6457 -0.1017
  213MOL    O1830122   2.621   6.445   3.841  0.4376  0.2835 -0.0824
  213MOL    H1930123   2.547   6.512   4.016 -0.1310  0.2342 -0.3371
  213MOL    H2030124   2.688   6.729   4.002 -0.8133 -0.9304  0.4434
  213MOL    H2130125   2.568   6.715   3.862 -2.1960 -2.2304  2.0522
  213MOL    H2230126   2.727   6.678   3.837 -1.1640 -0.7148 -1.2620
  213MOL    C2330127   2.495   6.394   3.814  0.3644 -0.1921 -0.1595
  213MOL    C2430128   2.509   6.306   3.690  0.7146  0.1107 -0.2456
  213MOL    O2530129   2.454   6.316   3.925  0.6928 -0.3664 -0.3079
  213MOL    H2630130   2.428   6.479   3.800 -0.7232 -0.8769  0.7562
  213MOL    H2730131   2.540   6.206   3.723  0.5091  0.2907  0.5183
  213MOL    H2830132   2.580   6.344   3.617  1.6616  0.4311  0.8325
  213MOL    H2930133   2.411   6.308   3.644 -0.5322  1.4103  2.3287
  213MOL    C3030134   2.317   6.328   3.955  0.6137  0.9685  0.1390
  213MOL    C3130135   2.288   6.232   4.066 -0.2540  0.3679 -0.4294
  213MOL    O3230136   2.287   6.462   3.992  0.2737 -0.1844 -0.1910
  213MOL    H3330137   2.265   6.290   3.867 -1.0376  0.2339  1.4212
  213MOL    H3430138   2.320   6.133   4.034  0.2738  0.9127 -1.6023
  213MOL    H3530139   2.183   6.225   4.095 -0.0223  0.4764  0.4677
  213MOL    H3630140   2.343   6.261   4.156 -2.0126 -1.1350  1.1855
  213MOL    C3730141   2.155   6.495   3.954 -0.2384  0.4219 -0.1039
  213MOL    C3830142   2.097   6.616   4.026  0.1714  0.0888 -0.3584
  213MOL    O3930143   2.151   6.503   3.816 -0.0399  0.3909  0.3976
  213MOL    H4030144   2.097   6.416   4.002 -0.3363  0.9928  0.7208
  213MOL    H4130145   2.099   6.602   4.134 -1.4131  1.7423 -0.0932
  213MOL    H4230146   1.991   6.633   4.006  0.3691  0.3868 -1.1711
  213MOL    H4330147   2.142   6.713   4.002  1.5637 -0.2955  0.6769
  213MOL    C4430148   2.030   6.465   3.754  0.0094 -0.1322  0.8129
  213MOL    C4530149   2.044   6.512   3.607  0.5865 -0.1313 -0.3981
  213MOL    O4630150   2.018   6.325   3.748 -0.7305 -0.3918  0.0644
  213MOL    H4730151   1.939   6.514   3.790 -1.1350 -0.1587 -1.9175
  213MOL    H4830152   2.054   6.621   3.618 -0.5798  0.0612 -1.2618
  213MOL    H4930153   1.957   6.500   3.543  0.3089  1.6911 -0.3948
  213MOL    H5030154   2.134   6.474   3.558 -0.1393 -1.2806 -0.8456
  213MOL    C5130155   1.906   6.273   3.813 -0.5000  0.7840  0.4463
  213MOL    C5230156   1.889   6.137   3.763 -0.0606  0.2812 -0.3867
  213MOL    O5330157   1.933   6.258   3.948  0.3854 -0.0629  0.1772
  213MOL    H5430158   1.815   6.327   3.787  0.2864  1.3657 -1.1967
  213MOL    H5530159   1.886   6.124   3.655 -1.2138 -1.4169 -0.1762
  213MOL    H5630160   1.799   6.090   3.804 -0.4206 -1.6224 -3.2341
  213MOL    H5730161   1.972   6.081   3.805 -2.1546 -1.8549  1.0517
  213MOL    C5830162   1.837   6.315   4.031  0.5134  1.0455 -0.1127
  213MOL    C5930163   1.893   6.293   4.173  0.6389 -0.2152 -0.6663
  213MOL    O6030164   1.807   6.447   4.003  0.2619 -0.5884 -0.3842
  213MOL    H6130165   1.746   6.256   4.017  1.3447 -0.4047  0.6015
  213MOL    H6230166   1.844   6.344   4.256  0.6082 -1.1273 -0.1201
  213MOL    H6330167   1.998   6.323   4.173  0.3447  0.8491  0.8440
  213MOL    H6430168   1.872   6.193   4.208 -1.4374  0.2202 -0.6251
  213MOL    C6530169   1.679   6.483   4.008  0.5923  0.2628 -0.4487
  213MOL    C6630170   1.665   6.637   4.013  0.1770  0.1357 -0.7147
  213MOL    O6730171   1.605   6.445   3.890 -0.6563 -0.8171 -0.4121
  213MOL    H6830172   1.633   6.444   4.099 -0.1043  1.6563 -0.1844
  213MOL    H6930173   1.694   6.680   4.109 -0.5159 -1.6008  0.3059
  213MOL    H7030174   1.568   6.661   3.968 -0.8135 -1.9722  0.2333
  213MOL    H7130175   1.726   6.692   3.942  1.7153 -2.3655 -1.3661
  213MOL    C7230176   1.490   6.366   3.916 -0.1542  0.1504 -0.4173
  213MOL    C7330177   1.440   6.354   3.772 -0.1678 -0.4073 -0.2693
  213MOL    O7430178   1.512   6.242   3.973 -0.8679 -0.4704  0.1893
  213MOL    H7530179   1.429   6.427   3.983  0.5209  0.1482  0.1984
  213MOL    H7630180   1.431   6.455   3.733 -0.5794  0.4867  2.0264
  213MOL    H7730181   1.343   6.305   3.764  0.0628 -0.7345 -1.1826
  213MOL    H7830182   1.505   6.289   3.714 -1.2536 -1.4021 -0.3961
  213MOL    C7930183   1.423   6.210   4.075 -0.0821 -0.4329  0.0491
  213MOL    C8030184   1.455   6.061   4.092  0.1380 -0.1163 -0.3400
  213MOL    O8130185   1.456   6.271   4.192 -0.1813 -0.5011 -0.3237
  213MOL    H8230186   1.322   6.221   4.037  0.0761 -0.3152 -0.3511
  213MOL    H8330187   1.446   6.018   3.992  0.7388  1.3216 -1.0267
  213MOL    H8430188   1.387   6.003   4.154 -0.0420 -1.5530 -1.8540
  213MOL    H8530189   1.555   6.049   4.131 -0.0900  1.1598  0.6876
  213MOL    C8630190   1.353   6.268   4.286  0.5625 -0.3615 -0.1950
  213MOL    C8730191   1.422   6.343   4.397 -0.9140  0.0533 -0.0703
  213MOL    O8830192   1.239   6.344   4.237  0.0839 -0.0614  0.0852
  213MOL    H8930193   1.337   6.166   4.322  1.1074 -0.0402  0.9843
  213MOL    H9030194   1.455   6.442   4.367  1.3092 -0.7172 -0.2692
  213MOL    H9130195   1.515   6.294   4.424 -1.6660 -0.3855  1.7933
  213MOL    H9230196   1.367   6.343   4.491 -1.2706  0.7717 -0.2738
  213MOL    C9330197   1.120   6.313   4.294 -0.2819 -0.3060  0.2471
  213MOL    C9430198   1.029   6.433   4.252 -0.2386  0.5426  0.3267
  213MOL    O9530199   1.066   6.200   4.235 -0.0679  0.0085 -0.6052
  213MOL    H9630200   1.145   6.322   4.399  1.9071  1.2176 -0.3777
  213MOL    H9730201   1.017   6.439   4.144  0.9170  0.6640  0.2057
  213MOL    H9830202   1.082   6.527   4.268  0.0204  0.4970 -0.2481
  213MOL    H9930203   0.930   6.422   4.297 -0.3782  1.3375  0.2147
  213MOL   C10030204   1.046   6.094   4.328 -0.1979  0.2511 -0.3274
  213MOL   C10130205   1.040   5.962   4.243  0.1131  0.0183  0.2834
  213MOL   O10230206   1.152   6.077   4.418  0.0786 -0.4943  0.3653
  213MOL   H10330207   0.952   6.119   4.377  0.8208  1.1681  1.1887
  213MOL   H10430208   1.049   5.879   4.313  1.6987  1.2277  1.5601
  213MOL   H10530209   1.125   5.959   4.174 -1.1513  0.9629 -1.3484
  213MOL   H10630210   0.944   5.951   4.192 -1.1509 -0.1149  2.6240
  213MOL   C10730211   1.114   6.076   4.553  0.1266  1.2865 -0.2399
  213MOL   C10830212   1.235   6.044   4.638 -0.2237  0.2056  0.1957
  213MOL   O10930213   1.072   6.207   4.596  0.5922  0.0302  0.6616
  213MOL   H11030214   1.039   5.999   4.562 -0.0986  1.5192 -0.1191
  213MOL   H11130215   1.259   5.938   4.627 -1.8930 -0.4139  2.1794
  213MOL   H11230216   1.201   6.064   4.739  0.5006 -0.7281  0.6342
  213MOL   H11330217   1.317   6.113   4.623 -0.5790  0.3060 -1.4085
  213MOL   C11430218   0.955   6.205   4.666  0.0038  0.5049  0.0569
  213MOL   C11530219   0.949   6.335   4.740  0.2358  0.3607 -0.2648
  213MOL   O11630220   0.845   6.198   4.583 -0.2314 -0.0085  0.0459
  213MOL   H11730221   0.956   6.122   4.737  5.1454  0.4301  0.1061
  213MOL   H11830222   0.872   6.328   4.817 -2.0149 -0.1339 -2.4658
  213MOL   H11930223   0.935   6.420   4.673 -0.0902 -1.3312 -2.3751
  213MOL   H12030224   1.044   6.358   4.787  0.0491 -0.3262  0.4549
  213MOL   C12130225   0.754   6.099   4.624  0.9269 -0.0395 -0.3388
  213MOL   C12230226   0.624   6.127   4.545 -0.2033  0.4599  0.1252
  213MOL   O12330227   0.789   5.976   4.567  0.1266 -0.1089  0.3741
  213MOL   H12430228   0.736   6.101   4.731  0.5969 -1.9389 -0.3361
  213MOL   H12530229   0.645   6.136   4.438 -0.6759 -0.7703 -0.0788
  213MOL   H12630230   0.582   6.227   4.559 -3.8905 -0.5968 -2.5722
  213MOL   H12730231   0.547   6.050   4.551  0.5057 -0.2362  0.1844
  213MOL   C12830232   0.806   5.869   4.658 -0.4592 -0.4127 -0.3914
  213MOL   C12930233   0.849   5.752   4.566  0.5803 -0.4642  0.4706
  213MOL   O13030234   0.916   5.896   4.733 -0.1678  0.1892  0.8508
  213MOL   H13130235   0.712   5.841   4.706 -0.9779  1.0878 -0.5028
  213MOL   H13230236   0.775   5.737   4.488  1.2508 -2.6869  0.2341
  213MOL   H13330237   0.872   5.661   4.621 -0.4749 -0.2277  1.3399
  213MOL   H13430238   0.929   5.786   4.500  1.7291  0.9677  2.5455
  213MOL   C13530239   0.894   5.868   4.869 -0.1258 -0.6623 -0.2067
  213MOL   C13630240   1.031   5.860   4.937 -0.0601 -0.0973 -0.3470
  213MOL   O13730241   0.811   5.963   4.928  0.0423 -0.0989 -0.1769
  213MOL   H13830242   0.842   5.773   4.880 -1.3881  0.0499  0.0559
  213MOL   H13930243   1.072   5.960   4.953  0.8041 -0.0614 -2.5358
  213MOL   H14030244   1.099   5.805   4.871 -0.4878 -1.8427  0.6232
  213MOL   H14130245   1.021   5.820   5.038 -0.1075 -1.0459 -0.7161
  213MOL   H14230246   0.748   5.909   4.972  0.0885 -1.2107 -1.4703
  214MOL     C130247   1.465   5.704   4.360  0.2765 -0.1273  0.8514
  214MOL     C230248   1.493   5.854   4.398 -0.5036  0.3906 -0.2687
  214MOL     O330249   1.416   5.717   4.222 -0.3936  0.2674 -0.4840
  214MOL     H430250   1.384   5.683   4.430 -1.1919  0.3119 -0.6973
  214MOL     H530251   1.524   5.871   4.501  0.4671 -2.1953 -0.0945
  214MOL     H630252   1.402   5.913   4.385  0.4244  1.5605 -1.8227
  214MOL     H730253   1.570   5.910   4.345 -1.6429  0.6628 -1.6734
  214MOL     H830254   1.549   5.634   4.363  1.7166  1.4815 -0.5430
  214MOL     C930255   1.346   5.600   4.187 -0.7591 -0.3250  0.9075
  214MOL    C1030256   1.192   5.625   4.203  0.4130  0.0666 -0.2848
  214MOL    O1130257   1.362   5.567   4.051 -0.1783 -0.0599  0.1186
  214MOL    H1230258   1.382   5.515   4.245 -0.5331 -0.5638  0.4189
  214MOL    H1330259   1.133   5.546   4.158  0.5213 -0.7911  1.0789
  214MOL    H1430260   1.172   5.715   4.143  0.7561  2.9578  3.7258
  214MOL    H1530261   1.168   5.640   4.308 -2.2036  2.2344 -1.1271
  214MOL    C1630262   1.490   5.562   3.999 -0.6989  0.1977 -0.3565
  214MOL    C1730263   1.529   5.419   3.979  0.4545  0.9394 -0.6633
  214MOL    O1830264   1.489   5.616   3.868  0.3624 -0.1632  0.2174
  214MOL    H1930265   1.565   5.617   4.055  0.9621  0.0896 -2.4058
  214MOL    H2030266   1.609   5.431   3.906  1.6090 -1.8553  0.0711
  214MOL    H2130267   1.446   5.366   3.931 -0.0523  0.2837  0.8877
  214MOL    H2230268   1.564   5.360   4.064  1.1530  2.0996 -0.1358
  214MOL    C2330269   1.474   5.754   3.867 -0.3554 -0.1218 -0.5319
  214MOL    C2430270   1.620   5.805   3.853 -0.2903 -0.0010  0.5392
  214MOL    O2530271   1.399   5.791   3.766 -0.0148 -0.0675 -0.0725
  214MOL    H2630272   1.443   5.787   3.966  0.9395  0.3212 -0.2576
  214MOL    H2730273   1.635   5.907   3.888 -1.2768  0.9470 -1.7351
  214MOL    H2830274   1.651   5.813   3.749 -2.2241 -0.7110 -0.1203
  214MOL    H2930275   1.681   5.731   3.905 -2.9805 -2.1689  0.7112
  214MOL    C3030276   1.264   5.782   3.783 -0.0493 -0.3811  0.4070
  214MOL    C3130277   1.213   5.927   3.798  0.5603  0.7261 -0.1321
  214MOL    O3230278   1.208   5.720   3.680  0.3088  0.2314 -0.8051
  214MOL    H3330279   1.236   5.723   3.870  0.9728  0.6556  1.4428
  214MOL    H3430280   1.230   5.987   3.709 -2.6617 -0.6245 -1.7174
  214MOL    H3530281   1.277   5.976   3.871 -0.0951  1.9945 -0.3922
  214MOL    H3630282   1.109   5.931   3.830  1.4001  3.3564  2.5092
  214MOL    C3730283   1.215   5.582   3.676 -0.2883  0.7147  0.6580
  214MOL    C3830284   1.078   5.537   3.732  0.0106  0.9109  0.8267
  214MOL    O3930285   1.237   5.524   3.554  0.3275  0.3285  0.4941
  214MOL    H4030286   1.297   5.561   3.745 -0.3113  2.4290  1.2249
  214MOL    H4130287   0.998   5.583   3.674 -0.1737  0.4999  0.7521
  214MOL    H4230288   1.053   5.558   3.835 -1.6470  2.4122  0.1464
  214MOL    H4330289   1.081   5.430   3.713  0.6168  0.8530  1.2374
  214MOL    C4430290   1.356   5.542   3.499  0.1345 -0.5861  0.2868
  214MOL    C4530291   1.440   5.419   3.529  0.3727  0.3613 -0.8914
  214MOL    O4630292   1.350   5.543   3.355 -0.0732 -0.2181 -0.0415
  214MOL    H4730293   1.413   5.630   3.529  0.0536 -0.4068 -0.0846
  214MOL    H4830294   1.452   5.412   3.637 -2.3790  1.7308 -0.4524
  214MOL    H4930295   1.539   5.422   3.483  0.0142  0.8383 -1.6311
  214MOL    H5030296   1.385   5.331   3.494 -1.4207  0.1364  2.3046
  214MOL    C5130297   1.305   5.662   3.300 -0.0511  0.3524 -0.2963
  214MOL    C5230298   1.424   5.741   3.236 -0.6135 -0.0635  0.2027
  214MOL    O5330299   1.212   5.646   3.195 -0.4608  0.4906  0.2485
  214MOL    H5430300   1.250   5.716   3.376  1.2399  1.8363 -0.3913
  214MOL    H5530301   1.382   5.839   3.211  2.1256  0.5264 -2.3281
  214MOL    H5630302   1.478   5.685   3.160 -2.6181 -0.6849 -0.7746
  214MOL    H5730303   1.500   5.754   3.314 -2.5056 -1.9636  2.4294
  214MOL    C5830304   1.089   5.601   3.232  0.2186 -0.0087  0.3357
  214MOL    C5930305   0.976   5.708   3.209 -0.1802  0.4496  0.2333
  214MOL    O6030306   1.061   5.488   3.166 -0.7145 -0.5761  0.0468
  214MOL    H6130307   1.092   5.576   3.338 -2.2046 -1.6388  0.0700
  214MOL    H6230308   0.945   5.715   3.105 -0.8242 -1.4143  0.2881
  214MOL    H6330309   1.002   5.804   3.254 -1.0091 -0.6482  3.1033
  214MOL    H6430310   0.885   5.670   3.254  0.2253  0.1609  0.8154
  214MOL    C6530311   1.116   5.364   3.211 -1.2186  0.4217  0.3206
  214MOL    C6630312   1.004   5.292   3.295 -0.3098  0.3657  0.3457
  214MOL    O6730313   1.154   5.283   3.100  0.4354  0.1199 -0.1998
  214MOL    H6830314   1.199   5.380   3.280  1.4908 -1.9217 -2.2928
  214MOL    H6930315   1.043   5.195   3.325 -2.1292 -0.8765 -1.1645
  214MOL    H7030316   0.913   5.284   3.236 -0.6980 -1.9536  1.2230
  214MOL    H7130317   0.987   5.361   3.378  1.5321  1.0467  0.1674
  214MOL    C7230318   1.267   5.337   3.031  0.1318  0.6017 -0.6230
  214MOL    C7330319   1.391   5.240   3.068 -0.1670  0.1615  0.3530
  214MOL    O7430320   1.251   5.326   2.895  0.1253 -0.0274 -0.1253
  214MOL    H7530321   1.294   5.438   3.061  0.2250 -0.4375  3.0824
  214MOL    H7630322   1.368   5.137   3.043 -0.3464  0.0106  1.1224
  214MOL    H7730323   1.413   5.232   3.175 -1.3543 -0.5760  0.5543
  214MOL    H7830324   1.480   5.259   3.009 -0.5528  2.5103  0.4633
  214MOL    C7930325   1.194   5.441   2.843 -0.4783 -0.8916 -0.2863
  214MOL    C8030326   1.303   5.543   2.798  0.3353 -0.2626 -0.4230
  214MOL    O8130327   1.122   5.409   2.727  0.3471 -0.6183 -0.3245
  214MOL    H8230328   1.136   5.491   2.921 -0.6882 -1.2502 -0.2137
  214MOL    H8330329   1.369   5.480   2.738 -1.9739 -1.3229 -1.9414
  214MOL    H8430330   1.368   5.579   2.877  0.1163 -0.2836 -0.2314
  214MOL    H8530331   1.240   5.617   2.748  1.0549  1.3186  0.9864
  214MOL    C8630332   1.024   5.308   2.748  0.4491  0.4869 -0.4162
  214MOL    C8730333   0.884   5.373   2.763 -0.0145 -0.2718  0.3469
  214MOL    O8830334   1.020   5.227   2.637 -0.1138 -0.4446  0.3266
  214MOL    H8930335   1.044   5.254   2.840  1.1013  0.6144 -0.4844
  214MOL    H9030336   0.879   5.442   2.847 -1.3301  1.7549 -1.3562
  214MOL    H9130337   0.813   5.290   2.763  2.3364 -2.3934 -2.3691
  214MOL    H9230338   0.866   5.429   2.672  1.5014 -0.5677 -0.1466
  214MOL    C9330339   1.119   5.124   2.639 -0.2062 -0.0693  0.2311
  214MOL    C9430340   1.053   4.992   2.696 -0.1520  0.5294  0.4595
  214MOL    O9530341   1.171   5.093   2.510 -0.3349  0.1417 -0.5106
  214MOL    H9630342   1.205   5.157   2.697 -1.0454  1.3844  0.6607
  214MOL    H9730343   1.114   4.903   2.682 -1.4613 -0.6649  2.2334
  214MOL    H9830344   0.953   4.967   2.659 -0.6644 -0.6019  2.5673
  214MOL    H9930345   1.048   4.997   2.805 -0.3932 -1.4541  0.5525
  214MOL   C10030346   1.246   5.203   2.464 -0.3264  0.5466  0.0024
  214MOL   C10130347   1.399   5.161   2.479 -0.1425  0.0861 -0.2120
  214MOL   O10230348   1.227   5.226   2.326 -0.5010 -0.1750 -0.3088
  214MOL   H10330349   1.221   5.300   2.506  1.6201  1.9636 -1.9224
  214MOL   H10430350   1.414   5.071   2.419  1.1416 -0.6514  1.1702
  214MOL   H10530351   1.433   5.142   2.581 -0.6602  1.4389  0.2194
  214MOL   H10630352   1.467   5.236   2.439 -0.0863 -0.2128 -0.6852
  214MOL   C10730353   1.095   5.268   2.299  0.6473 -0.1397  0.1379
  214MOL   C10830354   1.100   5.425   2.273 -0.4154 -0.4132  0.1047
  214MOL   O10930355   1.052   5.203   2.187  0.0109  0.8228 -0.3903
  214MOL   H11030356   1.036   5.234   2.384 -0.2773 -3.1746 -1.6690
  214MOL   H11130357   0.998   5.453   2.248  0.1806  0.9857 -0.7896
  214MOL   H11230358   1.158   5.456   2.186  1.7843  0.1713  1.7337
  214MOL   H11330359   1.126   5.470   2.369 -1.5365 -2.7489  1.5584
  214MOL   C11430360   1.024   5.066   2.208  0.3160  0.0227  0.2118
  214MOL   C11530361   0.876   5.058   2.188 -0.3083  0.4299 -0.2601
  214MOL   O11630362   1.093   4.988   2.103 -0.4507 -0.2695  0.4300
  214MOL   H11730363   1.041   5.021   2.305 -1.5333 -2.0719 -0.3877
  214MOL   H11830364   0.847   4.953   2.182 -1.6198  0.5407  3.1721
  214MOL   H11930365   0.850   5.106   2.094 -4.4495 -0.2424  0.4407
  214MOL   H12030366   0.817   5.093   2.272  2.0023  1.9782  0.7652
  214MOL   C12130367   1.231   5.000   2.115  0.1900  0.2492 -0.0307
  214MOL   C12230368   1.280   4.894   2.220  0.4060  0.5843  0.3905
  214MOL   O12330369   1.294   4.974   2.002  0.1242 -0.2799 -0.0925
  214MOL   H12430370   1.263   5.099   2.146 -0.8971  0.4039  0.6255
  214MOL   H12530371   1.255   4.793   2.187 -1.1558  1.1444 -0.1832
  214MOL   H12630372   1.232   4.920   2.314  0.8530 -3.3520  1.8427
  214MOL   H12730373   1.387   4.910   2.227  0.3699  1.2620 -0.5388
  214MOL   C12830374   1.264   5.063   1.899  0.5673  0.9764  0.4417
  214MOL   C12930375   1.380   5.075   1.801 -0.3379 -0.1847  0.3879
  214MOL   O13030376   1.164   5.004   1.820  0.2247 -0.3964 -0.5527
  214MOL   H13130377   1.233   5.159   1.939 -2.3107  0.3522 -0.1734
  214MOL   H13230378   1.469   5.111   1.852  1.6026 -2.4649 -1.2992
  214MOL   H13330379   1.352   5.145   1.722 -0.1357 -1.2136 -0.6013
  214MOL   H13430380   1.404   4.976   1.762 -0.8122  0.0084 -0.4161
  214MOL   C13530381   1.038   5.056   1.833  0.3528 -0.1755  0.0869
  214MOL   C13630382   1.004   5.116   1.701  0.1929  0.1700  0.5461
  214MOL   O13730383   0.953   4.948   1.856  0.1827  0.2965  0.3048
  214MOL   H13830384   1.020   5.134   1.907  0.4543  0.2147 -0.2994
  214MOL   H13930385   1.071   5.199   1.681 -1.9148  2.1638  1.4736
  214MOL   H14030386   0.897   5.137   1.704  0.3516  0.9059  1.1713
  214MOL   H14130387   1.009   5.031   1.632  2.7073 -0.0916  1.0042
  214MOL   H14230388   0.988   4.912   1.936  1.8443  0.8011 -0.1697
  215MOL     C130389   7.284   0.884   0.752  0.7303  0.5092  0.5228
  215MOL     C230390   7.283   0.795   0.631  0.4059 -0.2615  0.6693
  215MOL     O330391   7.233   0.825   0.864  0.5615 -0.2592  0.5042
  215MOL     H430392   7.241   0.983   0.738 -0.0931 -0.0529 -1.1692
  215MOL     H530393   7.311   0.692   0.653 -0.0965 -0.4655  0.3753
  215MOL     H630394   7.342   0.836   0.549 -0.7442  0.5680  0.2289
  215MOL     H730395   7.183   0.794   0.586  0.6260 -1.0164  0.1937
  215MOL     H830396   7.390   0.887   0.774  0.9625  0.7987 -0.6255
  215MOL     C930397   7.249   0.894   0.987 -0.2413  0.3796  0.3687
  215MOL    C1030398   7.109   0.924   1.041  0.1123  0.6183  0.7775
  215MOL    O1130399   7.323   0.824   1.084  0.0266  0.3099  0.8253
  215MOL    H1230400   7.303   0.987   0.970  0.3516  0.2077  1.2755
  215MOL    H1330401   7.053   0.831   1.053  2.2947 -0.5159  2.5960
  215MOL    H1430402   7.063   1.002   0.981 -1.6792 -1.3473 -0.4965
  215MOL    H1530403   7.122   0.965   1.141 -1.2060  1.1134  0.7608
  215MOL    C1630404   7.449   0.779   1.030  0.1674 -0.2921  0.2077
  215MOL    C1730405   7.551   0.894   1.022 -0.0285 -0.7519  0.0775
  215MOL    O1830406   7.505   0.679   1.116 -0.1602  0.1684  0.7290
  215MOL    H1930407   7.421   0.728   0.938 -2.7317 -0.5333  1.1643
  215MOL    H2030408   7.558   0.942   1.120 -0.1654 -3.6715  1.5629
  215MOL    H2130409   7.526   0.972   0.951 -1.7257 -0.5700  0.8628
  215MOL    H2230410   7.645   0.843   0.999  0.7339 -0.4181  2.3326
  215MOL    C2330411   7.442   0.556   1.115 -0.3770  0.1145 -0.3844
  215MOL    C2430412   7.494   0.465   1.003 -0.5480  0.0928 -0.0440
  215MOL    O2530413   7.446   0.494   1.237 -0.0866 -0.2324 -0.4073
  215MOL    H2630414   7.337   0.578   1.093 -0.4101  1.8829  1.3631
  215MOL    H2730415   7.444   0.368   1.010  1.9661 -1.1892  0.4770
  215MOL    H2830416   7.597   0.433   1.016 -0.6001  0.0236  0.2203
  215MOL    H2930417   7.470   0.509   0.906 -1.9247 -1.3556 -0.3980
  215MOL    C3030418   7.388   0.563   1.342  0.1818 -0.4914  1.4309
  215MOL    C3130419   7.264   0.490   1.378  0.4475 -1.0295  0.0726
  215MOL    O3230420   7.465   0.546   1.451 -0.4285  0.3821  0.1664
  215MOL    H3330421   7.361   0.667   1.323 -1.4952 -0.8795  1.6871
  215MOL    H3430422   7.207   0.462   1.290  0.4742 -0.4491 -0.1278
  215MOL    H3530423   7.199   0.551   1.441 -0.3151  0.1029 -1.7762
  215MOL    H3630424   7.294   0.395   1.423  3.0923 -1.2433 -2.0502
  215MOL    C3730425   7.568   0.648   1.454  0.3035 -0.4649  0.1308
  215MOL    C3830426   7.506   0.755   1.555  0.4380 -1.1990 -0.8662
  215MOL    O3930427   7.682   0.587   1.508  0.3277 -0.4622 -0.4081
  215MOL    H4030428   7.594   0.696   1.359 -2.7923  1.3324  0.1122
  215MOL    H4130429   7.415   0.799   1.516  1.0680  2.4018  1.4578
  215MOL    H4230430   7.574   0.838   1.576 -0.7907 -0.7078  1.2362
  215MOL    H4330431   7.487   0.709   1.652 -1.3391  0.9171 -0.1653
  215MOL    C4430432   7.743   0.493   1.426 -1.0251  0.3817  0.2252
  215MOL    C4530433   7.859   0.565   1.356 -0.0370 -0.0062  0.4072
  215MOL    O4630434   7.796   0.389   1.504  0.0795 -0.9457 -0.0904
  215MOL    H4730435   7.675   0.455   1.350  0.8652  0.1308 -1.3774
  215MOL    H4830436   0.018   0.618   1.418  1.5087 -0.2814 -1.1274
  215MOL    H4930437   7.816   0.645   1.296  1.4752  1.0241  0.6602
  215MOL    H5030438   0.012   0.495   1.305 -0.0280 -0.8869  1.6185
  215MOL    C5130439   7.692   0.309   1.550  0.4800 -0.3025  0.2898
  215MOL    C5230440   7.725   0.174   1.486 -0.3895 -0.4863 -0.4998
  215MOL    O5330441   7.689   0.292   1.687 -0.1757  0.0210  0.3143
  215MOL    H5430442   7.595   0.349   1.522 -0.5704 -1.8359  1.6506
  215MOL    H5530443   7.822   0.136   1.518  0.7516  0.6676 -2.4994
  215MOL    H5630444   7.740   0.189   1.379 -1.1373  1.5990 -0.3342
  215MOL    H5730445   7.651   0.097   1.506 -0.7358 -0.0597 -0.1154
  215MOL    C5830446   7.616   0.381   1.761 -0.3256 -0.9317  0.5983
  215MOL    C5930447   7.481   0.322   1.782 -0.0330 -0.3262  0.1072
  215MOL    O6030448   7.681   0.390   1.880 -0.3335  0.2601  0.1917
  215MOL    H6130449   7.602   0.473   1.704  0.6759 -0.2967  1.3551
  215MOL    H6230450   7.418   0.310   1.694  1.3567  2.2225 -1.2885
  215MOL    H6330451   7.428   0.387   1.851  0.1187  1.1423 -1.1419
  215MOL    H6430452   7.481   0.223   1.829  0.7044  0.2584  1.3554
  215MOL    C6530453   7.774   0.497   1.874  0.6913 -0.2756  0.5901
  215MOL    C6630454   7.713   0.609   1.944  1.3299  0.7767  0.0721
  215MOL    O6730455   7.893   0.461   1.944 -0.4290  0.6183  0.0779
  215MOL    H6830456   7.794   0.541   1.776  0.9673 -1.8919 -0.0931
  215MOL    H6930457   7.688   0.580   2.046  3.7645 -1.8621 -0.0122
  215MOL    H7030458   7.620   0.627   1.891  0.7111  0.2120  0.9670
  215MOL    H7130459   7.778   0.696   1.952 -0.1710  1.9543 -0.3336
  215MOL    C7230460   0.093   0.465   1.857 -0.1730  0.1879  0.2054
  215MOL    C7330461   0.187   0.587   1.902  0.0389 -0.0147  0.1717
  215MOL    O7430462   0.174   0.355   1.881 -0.0014 -0.7061 -0.0360
  215MOL    H7530463   0.064   0.463   1.751 -0.0324  0.9127  0.1472
  215MOL    H7630464   0.253   0.628   1.826  0.0903 -0.6595 -0.1416
  215MOL    H7730465   0.234   0.559   1.996  3.6389 -1.3509 -1.9422
  215MOL    H7830466   0.114   0.663   1.931  0.5072  0.6785 -0.4506
  215MOL    C7930467   0.106   0.239   1.852  0.1896  0.1930  0.8467
  215MOL    C8030468   0.179   0.169   1.745 -0.6050  0.1345  0.6026
  215MOL    O8130469   0.110   0.160   1.970 -0.6505 -0.4771  0.0450
  215MOL    H8230470   0.005   0.246   1.812  0.1345 -1.5764  0.6487
  215MOL    H8330471   0.118   0.154   1.655  1.5520 -0.3672 -0.8161
  215MOL    H8430472   0.194   0.070   1.787  1.8691  0.6752  1.0597
  215MOL    H8530473   0.275   0.216   1.723 -0.7735  0.2028 -0.0079
  215MOL    C8630474   7.904   0.161   2.050  0.0659 -0.0617 -0.3670
  215MOL    C8730475   7.813   0.041   2.032  0.0090 -0.7117 -0.7318
  215MOL    O8830476   0.027   0.151   2.186  0.5919  0.2396 -0.8397
  215MOL    H8930477   7.842   0.248   2.029  0.2381  0.1421 -0.0488
  215MOL    H9030478   7.854   7.858   2.058 -0.0714 -0.6916 -0.5319
  215MOL    H9130479   7.791   0.052   1.926  1.5424  0.6169 -0.9330
  215MOL    H9230480   7.720   0.054   2.088  0.4030  1.8167 -0.5680
  215MOL    C9330481   0.077   0.271   2.231  0.6567  0.1068 -0.3134
  215MOL    C9430482   7.895   0.323   2.329  0.0586 -0.2990 -0.0492
  215MOL    O9530483   0.194   0.256   2.298  0.1428  0.0952 -0.6024
  215MOL    H9630484   0.087   0.349   2.155 -1.7347  1.7227  0.9617
  215MOL    H9730485   7.882   0.249   2.407 -0.1147  0.1816  0.3826
  215MOL    H9830486   7.797   0.337   2.282 -0.1926  3.3782  1.4004
  215MOL    H9930487   0.007   0.421   2.369 -0.8401  0.5604 -1.5144
  215MOL   C10030488   0.306   0.265   2.225  1.1193 -0.2693 -0.5692
  215MOL   C10130489   0.388   0.380   2.292 -0.8726 -0.1175  0.1028
  215MOL   O10230490   0.392   0.152   2.231 -0.2472 -0.1611 -0.2514
  215MOL   H10330491   0.295   0.289   2.119 -2.2182 -0.3069 -0.2587
  215MOL   H10430492   0.482   0.385   2.238 -1.3357 -1.0937 -0.8159
  215MOL   H10530493   0.413   0.348   2.393  0.1981 -1.9036 -0.7123
  215MOL   H10630494   0.337   0.475   2.274 -1.8412 -1.1275 -2.7759
  215MOL   C10730495   0.334   0.035   2.181 -0.6750 -0.0572 -0.0847
  215MOL   C10830496   0.415   7.908   2.062 -0.0045  0.0930 -0.0277
  215MOL   O10930497   0.347   7.861   2.283  0.3350 -0.3054  0.3327
  215MOL   H11030498   0.233   0.050   2.145 -0.1941  1.1350 -0.9660
  215MOL   H11130499   0.390   7.805   2.037  0.0132  0.3558 -1.1441
  215MOL   H11230500   0.519   0.026   2.070  0.5173 -1.4000 -0.8600
  215MOL   H11330501   0.378   0.055   1.980  0.9518  1.2922  0.4120
  215MOL   C11430502   0.246   7.866   2.371  0.2707 -0.3154  0.1727
  215MOL   C11530503   0.151   7.751   2.332  0.1683  0.4296 -0.4626
  215MOL   O11630504   0.293   7.837   2.497 -0.4614  0.0173 -0.3098
  215MOL   H11730505   0.192   0.047   2.381 -0.9755 -0.8281 -1.4018
  215MOL   H11830506   0.210   7.661   2.347 -1.9470 -0.7031  1.4333
  215MOL   H11930507   0.105   7.756   2.233 -2.4544 -0.3141  0.6718
  215MOL   H12030508   0.077   7.752   2.412  1.3122 -0.7497  0.6401
  215MOL   C12130509   0.371   0.026   2.551 -0.1177 -0.0230  0.4322
  215MOL   C12230510   0.296   0.057   2.681 -0.4217 -0.4060  0.1797
  215MOL   O12330511   0.502   7.893   2.580 -0.5754  0.0388  0.0606
  215MOL   H12430512   0.382   0.111   2.484  1.2238 -0.3204  0.2524
  215MOL   H12530513   0.344   0.136   2.739 -1.3733 -0.2563  0.7692
  215MOL   H12630514   0.284   7.883   2.743 -1.1710 -1.1161 -0.9575
  215MOL   H12730515   0.201   0.106   2.659 -0.4040 -0.3467  0.2345
  215MOL   C12830516   0.596   0.022   2.491  0.5175  0.0268  0.9784
  215MOL   C12930517   0.648   0.152   2.534 -0.1353  0.8829  0.1423
  215MOL   O13030518   0.704   7.850   2.480  0.1023 -0.0365  0.1480
  215MOL   H13130519   0.554   0.021   2.391  1.0047 -0.2717  0.7697
  215MOL   H13230520   0.692   0.135   2.633 -0.4303  1.0947  0.3124
  215MOL   H13330521   0.574   0.233   2.533 -1.3053 -0.1897 -0.7990
  215MOL   H13430522   0.722   0.184   2.460 -0.2069  0.0006 -0.3119
  215MOL   C13530523   0.667   7.727   2.433 -0.1514 -0.2334  0.0207
  215MOL   C13630524   0.734   7.728   2.293 -0.3825  0.5209  0.0994
  215MOL   O13730525   0.731   7.624   2.507  0.5620 -0.2270  0.1901
  215MOL   H13830526   0.559   7.714   2.428 -0.3447  1.6249 -1.1471
  215MOL   H13930527   0.673   7.792   2.229 -2.3516  0.5576  1.9209
  215MOL   H14030528   0.736   7.625   2.258  1.6868  0.2332  0.9817
  215MOL   H14130529   0.838   7.758   2.295  0.9520 -3.7173 -1.0500
  215MOL   H14230530   0.693   7.604   2.591  0.5638 -1.7191 -0.1433
  216MOL     C130531   6.647   5.847   2.820  0.0146  0.0043 -0.3552
  216MOL     C230532   6.707   5.713   2.793 -0.4490 -0.1365 -0.4343
  216MOL     O330533   6.697   5.957   2.744 -0.2967 -0.4511  0.2962
  216MOL     H430534   6.638   5.880   2.924 -0.0153 -1.1444  0.0118
  216MOL     H530535   6.669   5.633   2.855  0.9049  0.1296  0.7601
  216MOL     H630536   6.815   5.722   2.809 -1.0781  3.4652  2.5223
  216MOL     H730537   6.675   5.677   2.695 -1.7085  1.4346 -0.6332
  216MOL     H830538   6.541   5.832   2.802 -0.1339  0.8118 -0.1674
  216MOL     C930539   6.606   6.066   2.717  0.2835  0.8953  0.2329
  216MOL    C1030540   6.551   6.135   2.846  0.5861 -0.0573 -0.8132
  216MOL    O1130541   6.675   6.166   2.652  1.3268 -0.1280  0.8762
  216MOL    H1230542   6.525   6.029   2.653  1.2694 -2.0235  0.5863
  216MOL    H1330543   6.509   6.230   2.812 -0.5436  0.5305  2.1340
  216MOL    H1430544   6.636   6.162   2.909  1.1531 -2.4583 -0.5148
  216MOL    H1530545   6.481   6.078   2.906  1.6145  1.6148  2.0833
  216MOL    C1630546   6.714   6.138   2.519  0.1960  0.3746  0.4898
  216MOL    C1730547   6.611   6.185   2.423 -0.5388 -0.2276 -0.2851
  216MOL    O1830548   6.823   6.225   2.506  0.0395 -0.0622 -0.3840
  216MOL    H1930549   6.727   6.030   2.511  0.0164  0.3616  0.3694
  216MOL    H2030550   6.650   6.168   2.323 -0.5571  2.5839 -0.8126
  216MOL    H2130551   6.605   6.293   2.437  3.7872 -0.2448  2.6278
  216MOL    H2230552   6.514   6.144   2.452 -1.4782  1.2188 -1.2751
  216MOL    C2330553   6.939   6.174   2.566  0.1433 -0.2630  0.1731
  216MOL    C2430554   7.009   6.076   2.467 -0.8156 -0.1063  0.8559
  216MOL    O2530555   7.032   6.280   2.588  0.1703  0.1051 -0.2441
  216MOL    H2630556   6.933   6.119   2.660  0.5770  0.3838  0.5851
  216MOL    H2730557   7.104   6.044   2.510 -0.3791  1.5843  1.1927
  216MOL    H2830558   7.034   6.131   2.376 -4.2720 -0.6616 -0.4906
  216MOL    H2930559   6.938   5.996   2.445  0.8897 -1.1003 -1.2899
  216MOL    C3030560   6.992   6.379   2.677  0.1591  0.2859 -0.2406
  216MOL    C3130561   7.018   6.333   2.824  0.2973 -0.3299 -0.7314
  216MOL    O3230562   7.067   6.491   2.659 -0.2011  0.3723 -0.2450
  216MOL    H3330563   6.889   6.408   2.657 -0.1867 -1.8604 -1.7095
  216MOL    H3430564   7.012   6.421   2.889 -2.1826 -0.1272 -1.1642
  216MOL    H3530565   7.115   6.285   2.829 -0.1389 -1.2573 -1.0963
  216MOL    H3630566   6.937   6.268   2.858 -1.4967  1.0419 -2.2336
  216MOL    C3730567   7.028   6.568   2.543 -0.5623 -0.5758  0.3379
  216MOL    C3830568   6.966   6.696   2.596 -1.3557  0.4415  0.0053
  216MOL    O3930569   7.148   6.601   2.464 -0.0347  0.6628  0.1145
  216MOL    H4030570   6.959   6.506   2.486 -1.5492 -0.0715  0.9670
  216MOL    H4130571   6.880   6.682   2.662 -0.3919 -3.6390  0.5550
  216MOL    H4230572   6.933   6.750   2.507 -0.5394 -1.3464 -1.4089
  216MOL    H4330573   7.037   6.766   2.639 -1.2058  1.1354 -1.3637
  216MOL    C4430574   7.217   6.497   2.396 -0.7986  0.3168 -0.5042
  216MOL    C4530575   7.227   6.535   2.246 -1.0733 -0.2041 -0.9161
  216MOL    O4630576   7.346   6.472   2.447 -0.5314 -0.2525  0.0721
  216MOL    H4730577   7.157   6.405   2.398  0.5089 -0.5492 -0.4387
  216MOL    H4830578   7.259   6.446   2.190  0.7473  0.4830 -1.0100
  216MOL    H4930579   7.313   6.600   2.230 -1.2873 -0.2625 -2.3584
  216MOL    H5030580   7.136   6.571   2.199 -1.1969  0.3753 -0.2346
  216MOL    C5130581   7.348   6.392   2.564  0.4542 -0.3777 -0.4699
  216MOL    C5230582   7.425   6.276   2.511  0.6554  1.1897  0.2491
  216MOL    O5330583   7.421   6.447   2.667  0.1363  0.4999  0.5589
  216MOL    H5430584   7.255   6.359   2.609  0.4417 -0.0390 -0.2456
  216MOL    H5530585   7.368   6.221   2.437 -0.4091  0.6266  1.4518
  216MOL    H5630586   7.441   6.211   2.597 -4.6307 -1.6734 -0.6860
  216MOL    H5730587   7.522   6.301   2.469 -0.1822  0.7958 -1.9403
  216MOL    C5830588   7.365   6.553   2.726 -0.2612 -0.4376 -0.6266
  216MOL    C5930589   7.335   6.526   2.880 -0.5587  0.0195 -0.3828
  216MOL    O6030590   7.450   6.664   2.723  0.6960  0.3783  0.0435
  216MOL    H6130591   7.273   6.590   2.682 -0.6414 -0.1457  0.3899
  216MOL    H6230592   7.302   6.622   2.919  1.1522  0.2032  0.6771
  216MOL    H6330593   7.427   6.502   2.934 -1.5269 -0.4284  1.0963
  216MOL    H6430594   7.267   6.441   2.886  0.4523 -0.7916 -0.2456
  216MOL    C6530595   7.445   6.745   2.605 -0.7697  0.4979  0.7462
  216MOL    C6630596   7.380   6.875   2.649  0.0161 -0.5703 -0.0452
  216MOL    O6730597   7.573   6.783   2.564 -0.2225 -0.2700 -0.6140
  216MOL    H6830598   7.388   6.702   2.523  1.4761  0.3849 -0.7898
  216MOL    H6930599   7.280   6.870   2.691  1.0134 -1.2874  2.2840
  216MOL    H7030600   7.381   6.944   2.563  2.0183  2.0698  2.0103
  216MOL    H7130601   7.450   6.920   2.719  2.5155  1.4480 -3.6560
  216MOL    C7230602   7.641   6.696   2.477 -0.0719 -0.3465 -0.0077
  216MOL    C7330603   7.604   6.744   2.340 -0.0266  0.4787 -0.3335
  216MOL    O7430604   7.777   6.718   2.490 -0.1234 -0.3894 -0.0954
  216MOL    H7530605   7.609   6.593   2.489 -0.0501 -0.5983 -1.8917
  216MOL    H7630606   7.643   6.668   2.273  2.0683  0.6501  0.6699
  216MOL    H7730607   7.636   6.844   2.313  0.4267  1.0424  2.1313
  216MOL    H7830608   7.495   6.744   2.336  0.0246  1.7838 -2.1093
  216MOL    C7930609   7.829   6.642   2.592 -0.2089  0.2036  0.2518
  216MOL    C8030610   7.913   6.529   2.535 -1.0828  0.1624 -0.2748
  216MOL    O8130611   7.913   6.716   2.676 -0.1998 -0.4866 -0.4874
  216MOL    H8230612   7.752   6.595   2.653  1.4412 -1.9439  0.7363
  216MOL    H8330613   7.868   6.477   2.451  0.1070  0.7657 -1.3087
  216MOL    H8430614   0.008   6.454   2.613 -0.6028  1.8583  1.3572
  216MOL    H8530615   0.099   6.568   2.512 -0.6811 -1.0755 -0.6882
  216MOL    C8630616   7.850   6.789   2.777  0.1020  0.0800  0.1039
  216MOL    C8730617   7.886   6.730   2.913 -0.2271  0.9188  0.2149
  216MOL    O8830618   7.904   6.915   2.785  0.2820  0.3924  0.5743
  216MOL    H8930619   7.743   6.798   2.756  0.1255 -1.4404 -0.7426
  216MOL    H9030620   0.079   6.750   2.923 -0.1930 -0.1413  2.1128
  216MOL    H9130621   7.876   6.622   2.909  0.3664  0.9093 -1.4548
  216MOL    H9230622   7.827   6.768   2.996  0.4561 -1.7644  1.9770
  216MOL    C9330623   7.877   6.994   2.669 -0.2138 -0.3292  0.4318
  216MOL    C9430624   7.746   7.074   2.691 -0.6187 -0.5139 -0.0553
  216MOL    O9530625   0.067   7.086   2.639  0.1700  0.1910 -0.0418
  216MOL    H9630626   7.870   6.931   2.581  1.0329 -2.1129  1.5954
  216MOL    H9730627   7.761   7.136   2.779  1.1809  0.3892 -0.9778
  216MOL    H9830628   7.658   7.015   2.715 -0.6904 -0.0770  0.7677
  216MOL    H9930629   7.731   7.142   2.607  0.0957 -1.2475 -0.7967
  216MOL   C10030630   0.182   7.016   2.610  0.0571  0.2576  0.3335
  216MOL   C10130631   0.202   6.997   2.458 -0.0748  0.4158 -0.4506
  216MOL   O10230632   0.294   7.080   2.660  0.2082  0.0510 -0.4050
  216MOL   H10330633   0.190   6.916   2.652  0.0738 -0.6146 -1.7279
  216MOL   H10430634   0.301   6.953   2.448  0.2154  0.7891  0.7584
  216MOL   H10530635   0.209   7.096   2.412  2.7020  0.0095 -1.0128
  216MOL   H10630636   0.125   6.929   2.422  0.8948 -1.4432  0.9227
  216MOL   C10730637   0.301   7.064   2.796 -0.1774  0.0977  0.5181
  216MOL   C10830638   0.404   6.961   2.833 -0.6022  0.2444 -0.2007
  216MOL   O10930639   0.346   7.192   2.840 -0.4570 -0.3759  0.0362
  216MOL   H11030640   0.210   7.040   2.852 -1.7563 -0.7091 -2.3262
  216MOL   H11130641   0.504   6.997   2.808 -1.6721  4.0927  0.6725
  216MOL   H11230642   0.379   6.862   2.796  0.4968 -0.5326  1.0971
  216MOL   H11330643   0.411   6.943   2.941  1.3016 -1.9654 -0.6522
  216MOL   C11430644   0.240   7.291   2.850  0.1291 -0.0429 -1.0378
  216MOL   C11530645   0.221   7.310   3.006  0.0309 -0.0579  0.0965
  216MOL   O11630646   0.278   7.417   2.808 -0.2061  0.2987  0.0461
  216MOL   H11730647   0.145   7.260   2.806 -0.5910  2.9106 -1.6756
  216MOL   H11830648   0.190   7.218   3.055  2.2810  1.2228  4.1954
  216MOL   H11930649   0.138   7.374   3.035 -1.3519 -1.4000 -0.8521
  216MOL   H12030650   0.305   7.357   3.057  0.4706  0.5124 -1.1407
  216MOL   C12130651   0.309   7.420   2.675 -0.1357  0.7485 -0.1292
  216MOL   C12230652   0.210   7.508   2.601 -0.4478 -0.2965 -0.0526
  216MOL   O12330653   0.434   7.486   2.648 -0.4343  0.1312  0.2820
  216MOL   H12430654   0.324   7.322   2.630  2.7611  1.0854 -0.0313
  216MOL   H12530655   0.108   7.481   2.626  0.1182 -3.7788 -1.2622
  216MOL   H12630656   0.212   7.488   2.494  0.9621  1.3341 -0.3577
  216MOL   H12730657   0.240   7.612   2.613 -2.7461  0.7729 -2.9136
  216MOL   C12830658   0.542   7.433   2.718 -0.5344  0.0025 -0.4061
  216MOL   C12930659   0.598   7.315   2.636  0.1686 -0.0634  0.1912
  216MOL   O13030660   0.652   7.527   2.728  0.8918 -0.5929  0.0478
  216MOL   H13130661   0.514   7.396   2.817  0.9106 -0.8752 -0.3103
  216MOL   H13230662   0.522   7.238   2.648  0.4653 -0.1769  1.3415
  216MOL   H13330663   0.687   7.280   2.687 -1.5994 -5.4887 -0.1209
  216MOL   H13430664   0.614   7.347   2.533  0.3343  0.8608  0.5052
  216MOL   C13530665   0.617   7.643   2.792  0.6473  0.6708 -0.4879
  216MOL   C13630666   0.599   7.611   2.940 -0.1142  0.1630  0.0172
  216MOL   O13730667   0.705   7.751   2.776 -0.7312  0.0084 -0.3171
  216MOL   H13830668   0.525   7.683   2.748 -0.2953 -1.7271 -0.7645
  216MOL   H13930669   0.571   7.705   2.988 -2.1436 -0.3736 -0.0933
  216MOL   H14030670   0.699   7.582   2.975 -0.1987  1.8205  1.7397
  216MOL   H14130671   0.530   7.533   2.971  0.4738 -0.8736 -1.2296
  216MOL   H14230672   0.666   7.820   2.725  3.9293  0.4794 -3.6347
  217MOL     C130673   4.555   5.663   7.184 -0.4485 -0.1147  0.6253
  217MOL     C230674   4.577   5.801   7.245 -0.1178 -0.3468  0.0339
  217MOL     O330675   4.427   5.605   7.217 -0.0178 -0.2734  0.1038
  217MOL     H430676   4.632   5.590   7.210  1.3742  1.4997 -0.0877
  217MOL     H530677   4.664   5.848   7.200 -1.1586 -0.2535 -1.9598
  217MOL     H630678   4.593   5.804   7.353  2.6208  0.8490 -0.3755
  217MOL     H730679   4.494   5.866   7.215  1.7165  1.7525 -0.5715
  217MOL     H830680   4.565   5.667   7.075  1.5356 -0.3966  0.7668
  217MOL     C930681   4.403   5.483   7.157  0.4163  0.0914  0.4707
  217MOL    C1030682   4.427   5.369   7.263 -0.5482  0.6689  0.3027
  217MOL    O1130683   4.262   5.479   7.128 -0.1396  0.0897  0.1133
  217MOL    H1230684   4.456   5.466   7.064  0.6707  0.0607  0.6208
  217MOL    H1330685   4.363   5.380   7.351 -0.2734 -0.6776  0.6746
  217MOL    H1430686   4.529   5.379   7.302 -0.5670  0.2932  0.4519
  217MOL    H1530687   4.409   5.268   7.227  0.5514  0.7270 -0.4384
  217MOL    C1630688   4.222   5.574   7.031  1.2033 -0.2156 -0.6215
  217MOL    C1730689   4.185   5.492   6.904  0.0291  0.4590 -0.5917
  217MOL    O1830690   4.105   5.633   7.068  0.5298  0.2149  0.4397
  217MOL    H1930691   4.300   5.650   7.014  0.6678  0.2542 -1.0143
  217MOL    H2030692   4.105   5.539   6.847  1.0488  1.2128 -1.4145
  217MOL    H2130693   4.145   5.394   6.931 -1.5509  1.5612  1.1765
  217MOL    H2230694   4.274   5.471   6.845 -1.4227  0.1093 -2.6854
  217MOL    C2330695   4.108   5.693   7.192 -0.0608  0.0078 -0.2127
  217MOL    C2430696   4.084   5.841   7.160 -0.5069 -0.0031  0.1097
  217MOL    O2530697   3.998   5.658   7.265  0.3898 -0.8064  0.3839
  217MOL    H2630698   4.195   5.674   7.255 -1.7927  1.4058  2.6826
  217MOL    H2730699   4.077   5.908   7.245 -4.0589 -0.2111  0.0901
  217MOL    H2830700   3.993   5.850   7.100 -1.0260  0.8748  1.0032
  217MOL    H2930701   4.163   5.887   7.102  0.8618 -0.8426  1.2884
  217MOL    C3030702   4.002   5.528   7.318  0.2306  0.2817  0.8310
  217MOL    C3130703   4.001   5.527   7.467  0.5507  0.4450 -0.3068
  217MOL    O3230704   3.878   5.456   7.280  0.1352  0.1576  0.2907
  217MOL    H3330705   4.094   5.475   7.293 -0.2886  0.2496 -1.0236
  217MOL    H3430706   4.031   5.429   7.504  1.2735 -0.0578 -2.1655
  217MOL    H3530707   3.902   5.544   7.509  1.1223  1.0967  0.7739
  217MOL    H3630708   4.077   5.595   7.504  0.1112  0.2921  0.8926
  217MOL    C3730709   3.865   5.419   7.148 -0.5088  0.5732  0.1105
  217MOL    C3830710   3.924   5.277   7.124 -0.0155 -0.0530  0.0443
  217MOL    O3930711   3.724   5.417   7.116  0.2178 -0.0778 -0.7481
  217MOL    H4030712   3.922   5.489   7.087  0.1065 -0.4125 -0.4801
  217MOL    H4130713   4.023   5.267   7.169 -0.4106  0.8116  1.1237
  217MOL    H4230714   3.920   5.254   7.018  0.1295 -2.1898  0.4848
  217MOL    H4330715   3.857   5.206   7.170  2.0928 -2.8950 -1.1263
  217MOL    C4430716   3.668   5.544   7.086 -0.4010  0.3044  0.2245
  217MOL    C4530717   3.646   5.556   6.937  1.0374  0.0648 -0.4913
  217MOL    O4630718   3.542   5.569   7.151 -0.5618  0.5865 -0.1253
  217MOL    H4730719   3.736   5.620   7.123 -0.1965  0.0295  0.4179
  217MOL    H4830720   3.566   5.496   6.895  1.1892 -0.8161  0.4844
  217MOL    H4930721   3.737   5.535   6.882  0.5624 -1.7612 -0.6142
  217MOL    H5030722   3.625   5.662   6.918 -0.8069 -0.3915 -1.0343
  217MOL    C5130723   3.546   5.597   7.287 -0.1557  0.1339  0.6658
  217MOL    C5230724   3.502   5.745   7.296  0.9057 -0.4920 -0.1280
  217MOL    O5330725   3.442   5.522   7.351 -0.8805 -1.0768 -0.2162
  217MOL    H5430726   3.637   5.571   7.340  1.7771  1.2793 -1.9707
  217MOL    H5530727   3.586   5.806   7.264  0.9983 -0.2090  0.6425
  217MOL    H5630728   3.478   5.772   7.399  2.5175 -1.5046  0.5264
  217MOL    H5730729   3.411   5.761   7.239 -0.1884 -1.4867  1.3073
  217MOL    C5830730   3.470   5.392   7.365 -0.3325  0.0158 -0.3315
  217MOL    C5930731   3.570   5.366   7.472 -0.6503  0.1677  0.0732
  217MOL    O6030732   3.356   5.318   7.390  0.5204 -0.7262  0.4440
  217MOL    H6130733   3.506   5.360   7.267  0.8356  0.1341  0.0475
  217MOL    H6230734   3.668   5.383   7.427 -0.1006  0.5196  1.3953
  217MOL    H6330735   3.570   5.264   7.509  0.0997  0.0793 -0.1648
  217MOL    H6430736   3.553   5.434   7.556 -1.1988  0.4248 -0.2447
  217MOL    C6530737   3.275   5.297   7.282  0.8215  0.4077  0.5048
  217MOL    C6630738   3.336   5.184   7.189  0.0251 -0.0340  0.2961
  217MOL    O6730739   3.146   5.245   7.305 -0.2357  0.1706 -0.2791
  217MOL    H6830740   3.270   5.398   7.241 -1.0664 -0.2455 -0.9254
  217MOL    H6930741   3.269   5.144   7.113 -0.0534 -0.1444  0.4227
  217MOL    H7030742   3.360   5.092   7.243  1.7079  0.6979  0.8190
  217MOL    H7130743   3.422   5.211   7.128  0.2333 -0.6809  0.2996
  217MOL    C7230744   3.068   5.320   7.400 -0.0551 -0.1262  0.4941
  217MOL    C7330745   2.941   5.369   7.330  0.6277 -0.2832  0.8092
  217MOL    O7430746   3.017   5.241   7.503  0.6346  0.2421  0.1367
  217MOL    H7530747   3.114   5.407   7.448 -1.0008 -0.4937  2.0823
  217MOL    H7630748   2.879   5.285   7.297 -0.2226 -0.1218  1.9730
  217MOL    H7730749   2.961   5.434   7.246  0.1822 -1.6762 -0.3997
  217MOL    H7830750   2.882   5.422   7.405 -0.0010 -0.4290  0.4239
  217MOL    C7930751   3.117   5.187   7.579 -0.3953  0.4208 -0.5793
  217MOL    C8030752   3.149   5.293   7.683 -0.0995  0.9165 -0.8204
  217MOL    O8130753   3.060   5.077   7.649 -0.2758  0.2700 -0.0318
  217MOL    H8230754   3.206   5.154   7.525 -0.6552  0.2535 -0.9100
  217MOL    H8330755   3.196   5.244   7.768 -0.2396  2.2044  0.0155
  217MOL    H8430756   3.054   5.340   7.709 -0.3887 -0.5289  0.8376
  217MOL    H8530757   3.222   5.370   7.655  2.1985 -0.8400  0.1901
  217MOL    C8630758   3.002   4.975   7.566 -0.2272 -0.2971  0.1326
  217MOL    C8730759   3.121   4.897   7.506  0.1140  0.8317  0.0928
  217MOL    O8830760   2.926   4.881   7.642  0.0809 -0.1581 -0.1710
  217MOL    H8930761   2.933   5.021   7.495 -1.4017 -2.3838 -0.1030
  217MOL    H9030762   3.163   4.960   7.428  0.7133 -0.0001 -0.2630
  217MOL    H9130763   3.086   4.801   7.469  0.3698 -0.0702  2.1307
  217MOL    H9230764   3.190   4.883   7.590 -1.3882  0.8268  1.3475
  217MOL    C9330765   2.831   4.938   7.728 -0.1939 -0.2904 -0.2629
  217MOL    C9430766   2.695   4.908   7.677 -0.6361 -0.7714  0.0338
  217MOL    O9530767   2.841   4.883   7.854  0.4114  0.0898  0.2946
  217MOL    H9630768   2.833   5.047   7.728 -0.2657 -0.2879  0.2575
  217MOL    H9730769   2.669   4.803   7.683 -0.4093 -0.7841  0.7964
  217MOL    H9830770   2.685   4.943   7.574 -0.4287  1.5431  0.7613
  217MOL    H9930771   2.633   4.963   7.748 -1.2809 -1.9778  0.4093
  217MOL   C10030772   2.951   4.925   0.008  0.0028  0.2177  0.7720
  217MOL   C10130773   2.902   5.023   0.111  0.0172  0.3176 -0.0293
  217MOL   O10230774   3.025   4.825   0.064 -0.5109  0.1596  0.1420
  217MOL   H10330775   3.019   4.984   7.861 -1.1333  0.7155 -0.0377
  217MOL   H10430776   2.820   4.988   0.174 -0.1841 -1.4322 -1.2370
  217MOL   H10530777   2.866   5.116   0.067 -2.7370 -1.2975 -1.3530
  217MOL   H10630778   2.983   5.051   0.177  1.3306  0.5355 -1.6986
  217MOL   C10730779   3.108   4.759   7.884  0.6353 -0.1840  0.4616
  217MOL   C10830780   3.256   4.779   7.906  0.4811 -0.2440  0.6867
  217MOL   O10930781   3.080   4.617   7.884  0.3791 -0.0991 -0.2136
  217MOL   H11030782   3.085   4.784   7.780 -1.5548 -1.0865  0.6980
  217MOL   H11130783   3.285   4.735   0.088 -0.2181 -1.0649  0.5331
  217MOL   H11230784   3.264   4.887   0.004 -1.1340 -0.1334  0.8878
  217MOL   H11330785   3.309   4.741   7.820 -0.5554 -0.8590  0.3068
  217MOL   C11430786   2.962   4.566   7.825  1.3219 -0.8250  0.1792
  217MOL   C11530787   3.008   4.482   7.702  0.7421 -0.5179 -0.1104
  217MOL   O11630788   2.904   4.478   7.910  0.5400  0.0265  0.3257
  217MOL   H11730789   2.900   4.648   7.788 -0.7248 -1.7670  1.4892
  217MOL   H11830790   3.033   4.381   7.735 -3.2267 -1.7644 -0.6021
  217MOL   H11930791   3.084   4.528   7.639 -1.7057  0.8995 -2.1529
  217MOL   H12030792   2.917   4.471   7.643 -0.8490 -0.3969  2.2202
  217MOL   C12130793   2.846   4.534   0.107 -0.6437 -0.5304  0.3230
  217MOL   C12230794   2.702   4.511   0.091  0.1459  0.4200 -0.3099
  217MOL   O12330795   2.883   4.475   0.225 -0.0608 -0.2011 -0.4698
  217MOL   H12430796   2.865   4.640   0.124 -0.8863 -0.6123  1.1555
  217MOL   H12530797   2.689   4.403   0.084 -0.1608  0.3075  1.6786
  217MOL   H12630798   2.664   4.549   7.911 -0.5259  1.2240  0.2788
  217MOL   H12730799   2.640   4.551   0.172  1.0226 -2.9954  2.1799
  217MOL   C12830800   3.017   4.498   0.261  0.0233 -0.6953  0.3047
  217MOL   C12930801   3.019   4.577   0.396 -0.3357 -0.2322  0.6025
  217MOL   O13030802   3.090   4.387   0.280 -0.2450 -0.2716 -0.0167
  217MOL   H13130803   3.072   4.564   0.193  0.5868 -0.8607  0.5951
  217MOL   H13230804   2.944   4.656   0.392 -0.4186 -0.3793 -1.1540
  217MOL   H13330805   3.117   4.622   0.410  0.4232 -0.8846 -2.1075
  217MOL   H13430806   2.986   4.507   0.472  0.0874 -1.1915 -0.0773
  217MOL   C13530807   3.154   4.331   0.172 -0.0541  0.0524 -0.3388
  217MOL   C13630808   3.271   4.232   0.221 -0.0662  0.0025  0.1670
  217MOL   O13730809   3.063   4.268   0.083  0.0632 -0.0628  0.0209
  217MOL   H13830810   3.210   4.404   0.114  0.7935 -0.3875 -0.0690
  217MOL   H13930811   3.334   4.211   0.135  0.2973  0.5803  0.2859
  217MOL   H14030812   3.231   4.139   0.260  1.8364  0.2583  2.8340
  217MOL   H14130813   3.330   4.288   0.294  2.2816 -0.5376 -1.2843
  217MOL   H14230814   3.018   4.335   0.034  0.3576 -1.3180 -2.0052
  218MOL     C130815   5.330   5.633   6.738 -0.4367  0.4699 -0.3535
  218MOL     C230816   5.383   5.747   6.821 -0.4646 -0.3541  0.5536
  218MOL     O330817   5.439   5.547   6.716 -0.4459  0.3274  0.0091
  218MOL     H430818   5.270   5.667   6.653 -3.3874  1.9130  2.1698
  218MOL     H530819   5.299   5.813   6.840 -0.7443 -0.7387  0.6462
  218MOL     H630820   5.463   5.810   6.781 -0.1773 -1.0970 -0.0489
  218MOL     H730821   5.416   5.706   6.917 -0.7851 -0.1616  0.7469
  218MOL     H830822   5.251   5.588   6.799  1.0589 -0.6408  0.8008
  218MOL     C930823   5.435   5.474   6.596 -0.2055 -0.1734  0.8371
  218MOL    C1030824   5.457   5.574   6.477 -0.1216  0.3029  0.0541
  218MOL    O1130825   5.532   5.379   6.583  0.1754 -0.4292 -0.6722
  218MOL    H1230826   5.339   5.423   6.590  0.2225 -0.8928  0.0908
  218MOL    H1330827   5.524   5.654   6.506  0.5477  0.4918 -1.9390
  218MOL    H1430828   5.359   5.616   6.453  0.0664  0.8930  0.3100
  218MOL    H1530829   5.491   5.525   6.386 -0.2777 -0.7659  0.5514
  218MOL    C1630830   5.517   5.275   6.676 -0.0754 -0.1827  0.5659
  218MOL    C1730831   5.473   5.151   6.588 -0.0425  0.0552 -0.0738
  218MOL    O1830832   5.641   5.238   6.728  0.1532 -0.1264 -0.1356
  218MOL    H1930833   5.447   5.289   6.759  0.8348  1.6792  1.0406
  218MOL    H2030834   5.431   5.078   6.657 -1.3208  1.1166  0.3042
  218MOL    H2130835   5.560   5.101   6.547  0.2604  0.4269  0.1108
  218MOL    H2230836   5.389   5.186   6.528 -0.3773 -1.3446 -0.4239
  218MOL    C2330837   5.679   5.317   6.841  0.4315 -0.8208  0.2118
  218MOL    C2430838   5.641   5.231   6.957  0.1559  0.0723  0.1752
  218MOL    O2530839   5.813   5.351   6.835  0.0556  0.3802  0.9296
  218MOL    H2630840   5.621   5.410   6.841  0.2138 -0.9467  1.6475
  218MOL    H2730841   5.540   5.252   6.994  0.5519 -2.8662  3.1878
  218MOL    H2830842   5.717   5.262   7.029  1.4877  1.0038 -1.5940
  218MOL    H2930843   5.643   5.124   6.938  0.0362  0.2104 -0.6460
  218MOL    C3030844   5.843   5.422   6.719  0.4440 -0.3110 -0.6942
  218MOL    C3130845   5.892   5.554   6.766 -0.9821 -0.2380  0.5842
  218MOL    O3230846   5.942   5.349   6.655  0.2397 -0.2667  0.5737
  218MOL    H3330847   5.762   5.437   6.648 -0.7666  0.0169  0.7281
  218MOL    H3430848   5.890   5.631   6.688 -0.8433 -0.7555  0.0641
  218MOL    H3530849   5.995   5.528   6.790 -0.0701  0.0870 -2.6329
  218MOL    H3630850   5.836   5.581   6.855 -0.1441 -0.7435  1.2722
  218MOL    C3730851   5.891   5.280   6.538 -0.1544  0.7411  0.0224
  218MOL    C3830852   5.913   5.362   6.412  0.3529  0.0086  0.1114
  218MOL    O3930853   5.962   5.163   6.520  0.2488 -0.2221 -0.1727
  218MOL    H4030854   5.786   5.254   6.551 -0.3972  1.9532  0.6057
  218MOL    H4130855   6.020   5.384   6.405  0.0628  1.5287  0.2212
  218MOL    H4230856   5.856   5.454   6.423 -2.5982 -1.6761 -0.6492
  218MOL    H4330857   5.857   5.316   6.331 -0.4523  0.2212  0.5391
  218MOL    C4430858   5.923   5.060   6.604 -0.0365 -0.1659 -0.6997
  218MOL    C4530859   5.848   4.970   6.507 -0.4218  0.5729 -0.4428
  218MOL    O4630860   6.035   4.995   6.656  0.2211 -0.3440 -0.3329
  218MOL    H4730861   5.851   5.083   6.683  0.6773  0.2405 -0.1641
  218MOL    H4830862   5.803   4.886   6.559 -1.5139 -0.2779 -2.6611
  218MOL    H4930863   5.914   4.917   6.438 -1.0562  0.6791 -1.1428
  218MOL    H5030864   5.761   5.016   6.458 -1.2825 -0.5315  0.0279
  218MOL    C5130865   6.102   5.064   6.761  0.8051 -0.0687  0.3092
  218MOL    C5230866   6.077   4.988   6.891  0.1858 -0.1690 -0.0022
  218MOL    O5330867   6.231   5.056   6.736  0.2896 -0.0076  0.1235
  218MOL    H5430868   6.075   5.170   6.762 -2.5156 -0.8504  1.3513
  218MOL    H5530869   6.131   4.893   6.903 -2.5183 -1.7184  0.3932
  218MOL    H5630870   5.970   4.971   6.896  0.2237 -0.1983  0.7534
  218MOL    H5730871   6.113   5.060   6.964  0.9081 -1.1212  0.6120
  218MOL    C5830872   6.286   5.145   6.643  0.2123  0.1492  0.0151
  218MOL    C5930873   6.378   5.239   6.717  0.7688 -0.4428 -0.0332
  218MOL    O6030874   6.368   5.089   6.541  0.2554 -0.9387  0.0247
  218MOL    H6130875   6.205   5.196   6.591  1.4264 -0.5125 -2.6060
  218MOL    H6230876   6.332   5.334   6.745  0.5454  0.3426 -2.9424
  218MOL    H6330877   6.446   5.284   6.644 -1.5935  2.3186 -0.6513
  218MOL    H6430878   6.438   5.189   6.793  2.7111 -0.2081 -1.3883
  218MOL    C6530879   6.300   5.012   6.445  0.0794  0.1650  0.0226
  218MOL    C6630880   6.274   5.099   6.323  0.1933 -0.2129 -0.3812
  218MOL    O6730881   6.378   4.902   6.410  0.2926 -0.2586  0.2399
  218MOL    H6830882   6.205   4.961   6.460  0.4393 -1.4933 -2.8585
  218MOL    H6930883   6.369   5.119   6.273 -0.2219 -1.5071 -1.7352
  218MOL    H7030884   6.235   5.196   6.356  2.0720  0.1357  0.8920
  218MOL    H7130885   6.205   5.038   6.265  0.6766 -0.7301 -0.4203
  218MOL    C7230886   6.364   4.798   6.499  0.8582 -0.1870 -0.8826
  218MOL    C7330887   6.283   4.693   6.419 -0.4976 -0.1366 -0.2164
  218MOL    O7430888   6.479   4.742   6.542 -0.3897 -0.4075 -0.1429
  218MOL    H7530889   6.315   4.829   6.591  1.1033  0.3292 -0.9235
  218MOL    H7630890   6.266   4.622   6.500 -0.1206  0.7903  0.7089
  218MOL    H7730891   6.334   4.662   6.328 -2.6736 -1.6630 -0.9518
  218MOL    H7830892   6.187   4.732   6.384 -1.0187  0.1733  1.4942
  218MOL    C7930893   6.555   4.826   6.621 -0.1839 -0.6087 -0.2375
  218MOL    C8030894   6.574   4.747   6.749  0.0831  0.5346 -0.0280
  218MOL    O8130895   6.677   4.855   6.581 -0.2427 -0.2039  0.2362
  218MOL    H8230896   6.501   4.913   6.659 -0.3169 -0.3020 -1.1275
  218MOL    H8330897   6.629   4.813   6.817  0.7308  0.3638 -0.3863
  218MOL    H8430898   6.627   4.654   6.728 -0.3041  0.2418  0.2824
  218MOL    H8530899   6.476   4.732   6.793 -0.8767  3.2788 -1.1130
  218MOL    C8630900   6.697   4.962   6.490  0.0682  0.4791  0.2604
  218MOL    C8730901   6.774   5.074   6.562 -0.4095  0.0874  0.6322
  218MOL    O8830902   6.773   4.932   6.383 -0.5213  0.2017  0.3848
  218MOL    H8930903   6.599   4.996   6.455  0.2941  0.1609 -0.7040
  218MOL    H9030904   6.863   5.026   6.603 -1.3121 -2.5125 -0.3474
  218MOL    H9130905   6.711   5.116   6.640 -1.7974  0.6730 -0.7905
  218MOL    H9230906   6.813   5.144   6.487  2.1147 -2.5895 -0.6850
  218MOL    C9330907   6.722   4.833   6.308  0.7937 -0.1560  0.4833
  218MOL    C9430908   6.696   4.899   6.171 -0.0071  0.0850  0.0227
  218MOL    O9530909   6.821   4.724   6.283  0.3402 -0.1622  0.0833
  218MOL    H9630910   6.628   4.792   6.345  0.9715 -1.6642 -0.6764
  218MOL    H9730911   6.654   4.997   6.193 -1.1136 -0.1076 -1.2047
  218MOL    H9830912   6.622   4.849   6.110  0.3673 -2.2887  1.4484
  218MOL    H9930913   6.792   4.923   6.124  0.3377 -0.8208  0.2562
  218MOL   C10030914   6.859   4.644   6.396  0.1421  0.0495 -0.4998
  218MOL   C10130915   6.833   4.509   6.344  1.1426  0.0182  0.2327
  218MOL   O10230916   6.997   4.650   6.429  0.1075 -0.2585  0.4214
  218MOL   H10330917   6.788   4.654   6.478 -0.3639 -0.3748 -0.8769
  218MOL   H10430918   6.724   4.518   6.344  1.0126 -1.1618  2.5755
  218MOL   H10530919   6.864   4.426   6.407  0.5105 -0.2334  0.2141
  218MOL   H10630920   6.874   4.505   6.243 -2.1223 -1.5881 -1.0915
  218MOL   C10730921   7.025   4.767   6.503 -0.0850  0.4925  0.0860
  218MOL   C10830922   7.056   4.715   6.636 -0.1644 -0.2202  0.2629
  218MOL   O10930923   7.138   4.836   6.461 -0.3721  0.0899  0.1689
  218MOL   H11030924   6.939   4.834   6.506  1.5909  2.6591  2.4623
  218MOL   H11130925   7.120   4.627   6.635 -0.3374 -0.3564  1.2864
  218MOL   H11230926   6.962   4.683   6.680 -0.6704 -0.5596 -1.0517
  218MOL   H11330927   7.107   4.791   6.696  2.8776 -2.0256  0.0840
  218MOL   C11430928   7.127   4.889   6.329 -0.5745 -0.1493  0.3951
  218MOL   C11530929   7.163   5.032   6.343  0.0153 -0.1064  0.4523
  218MOL   O11630930   7.216   4.835   6.233 -0.3411  0.2644 -0.1266
  218MOL   H11730931   7.026   4.882   6.287 -0.1971 -0.0867 -0.5232
  218MOL   H11830932   7.259   5.051   6.389  0.9858 -2.1172 -0.6447
  218MOL   H11930933   7.089   5.076   6.411  0.9686  1.9754  0.1744
  218MOL   H12030934   7.155   5.078   6.244 -0.4324 -0.5459  0.2767
  218MOL   C12130935   7.166   4.718   6.169  0.1132 -0.2368 -0.4838
  218MOL   C12230936   7.133   4.751   6.024  0.3308 -0.4720 -0.5321
  218MOL   O12330937   7.264   4.612   6.166  0.2523 -0.1489  0.4397
  218MOL   H12430938   7.081   4.669   6.217  1.9076 -0.5954  2.4823
  218MOL   H12530939   7.087   4.667   5.972  0.1893 -0.5392 -0.3006
  218MOL   H12630940   7.223   4.784   5.973  2.2081 -2.0881  1.6405
  218MOL   H12730941   7.049   4.821   6.026  0.0333 -0.8602  1.7972
  218MOL   C12830942   7.281   4.552   6.294 -0.3560 -0.6926  0.2109
  218MOL   C12930943   7.192   4.425   6.304 -0.2137  0.0579  0.2228
  218MOL   O13030944   7.415   4.533   6.322  0.5110  0.5941 -0.4001
  218MOL   H13130945   7.242   4.611   6.377 -1.9387 -0.9560 -0.3123
  218MOL   H13230946   7.258   4.338   6.304 -2.4425 -1.7070  1.2686
  218MOL   H13330947   7.123   4.420   6.221  0.5869 -0.8836 -0.4038
  218MOL   H13430948   7.155   4.398   6.403  0.6568  0.5870  0.7017
  218MOL   C13530949   7.485   4.654   6.340 -0.2678  0.5625 -0.2622
  218MOL   C13630950   7.501   4.676   6.491  0.2240 -0.4830 -0.2096
  218MOL   O13730951   7.615   4.641   6.294  0.3355 -0.4808 -0.2112
  218MOL   H13830952   7.440   4.733   6.281 -1.4763  0.1088  0.0394
  218MOL   H13930953   7.546   4.582   6.525 -1.8172 -1.1159  0.8242
  218MOL   H14030954   7.404   4.695   6.537 -0.0005  0.5909 -1.1103
  218MOL   H14130955   7.573   4.755   6.508  0.4216 -1.1975  2.6322
  218MOL   H14230956   7.612   4.672   6.205 -0.5361 -0.0269 -0.0392
  219MOL     C130957   5.279   2.433   1.304  0.3613 -0.1106 -0.4757
  219MOL     C230958   5.391   2.425   1.201  0.1617 -0.1063  0.3151
  219MOL     O330959   5.172   2.499   1.246 -0.7269  0.1862 -0.3273
  219MOL     H430960   5.321   2.494   1.384 -1.6633  2.6728 -1.4208
  219MOL     H530961   5.483   2.382   1.241  0.4207 -0.1782 -0.3491
  219MOL     H630962   5.408   2.521   1.153 -3.8909 -0.8371 -2.9278
  219MOL     H730963   5.367   2.364   1.113  1.1579 -1.3381  0.8797
  219MOL     H830964   5.259   2.331   1.338  1.8443  0.1740  1.2997
  219MOL     C930965   5.056   2.527   1.316  0.3627  0.1781 -0.4413
  219MOL    C1030966   4.970   2.617   1.227 -0.0684  0.1523  0.2986
  219MOL    O1130967   4.984   2.419   1.356  0.4276 -0.1746 -0.3802
  219MOL    H1230968   5.082   2.583   1.405 -0.0905 -0.0793 -0.1433
  219MOL    H1330969   4.945   2.560   1.138 -1.1576  0.4151  0.4299
  219MOL    H1430970   5.024   2.704   1.188 -2.2198  1.0428 -0.7776
  219MOL    H1530971   4.880   2.653   1.278 -0.6749  0.6404 -1.0940
  219MOL    C1630972   4.887   2.439   1.457  0.1545 -0.6518  0.1185
  219MOL    C1730973   4.803   2.310   1.479  0.0310  0.4585 -0.0971
  219MOL    O1830974   4.950   2.472   1.579 -0.4944  0.6546  0.0617
  219MOL    H1930975   4.818   2.509   1.409  0.8753  0.0241  0.0523
  219MOL    H2030976   4.862   2.220   1.466  0.1798  0.8046 -1.9988
  219MOL    H2130977   4.720   2.314   1.408 -0.7366 -1.5999  0.6461
  219MOL    H2230978   4.762   2.314   1.580  0.3012 -0.1162  0.0374
  219MOL    C2330979   4.908   2.594   1.632  0.3699 -0.2432 -0.6559
  219MOL    C2430980   4.971   2.602   1.774 -0.0495 -0.0208  0.1484
  219MOL    O2530981   4.959   2.710   1.562 -0.3947  0.0717  0.2155
  219MOL    H2630982   4.799   2.592   1.633  0.3463  0.7753 -0.9457
  219MOL    H2730983   4.915   2.524   1.826 -1.0198  0.1943 -0.5550
  219MOL    H2830984   4.924   2.685   1.826  1.0054  0.2912  0.6098
  219MOL    H2930985   5.080   2.592   1.779 -0.2025 -1.7397  0.5638
  219MOL    C3030986   4.863   2.816   1.554  0.2915 -0.4596  0.5337
  219MOL    C3130987   4.937   2.922   1.474 -0.1440  0.2987  0.1979
  219MOL    O3230988   4.750   2.776   1.488  0.0122 -1.0973 -0.5321
  219MOL    H3330989   4.846   2.853   1.655  1.4422  1.2852  0.1134
  219MOL    H3430990   5.024   2.961   1.526 -0.6365 -0.6027  1.7303
  219MOL    H3530991   4.866   3.004   1.462  0.2805  0.7055  0.4464
  219MOL    H3630992   4.967   2.886   1.375 -2.5485 -1.8274  0.1831
  219MOL    C3730993   4.639   2.842   1.526 -0.4128  0.3338  0.1771
  219MOL    C3830994   4.528   2.829   1.412 -0.8486 -0.1160 -0.4268
  219MOL    O3930995   4.598   2.790   1.646 -0.2477  0.1521 -0.0176
  219MOL    H4030996   4.666   2.946   1.543  2.3926 -0.9200  4.1040
  219MOL    H4130997   4.488   2.728   1.417 -2.9193  0.7585  1.6808
  219MOL    H4230998   4.554   2.861   1.312 -0.0640 -1.1266 -0.5558
  219MOL    H4330999   4.449   2.897   1.442  0.9638  0.8688  2.3653
  219MOL    C4431000   4.533   2.881   1.728 -0.1093  0.2212  0.0709
  219MOL    C4531001   4.465   2.806   1.839  0.0300  0.4580 -0.6469
  219MOL    O4631002   4.627   2.968   1.791 -0.0915  0.1458  0.2980
  219MOL    H4731003   4.460   2.933   1.665  1.7229  0.7833 -1.6323
  219MOL    H4831004   4.395   2.737   1.792  0.7705 -0.0537 -0.9937
  219MOL    H4931005   4.402   2.868   1.903 -0.0583  0.9867 -1.2385
  219MOL    H5031006   4.531   2.752   1.907  0.3807  1.8208  0.1318
  219MOL    C5131007   4.577   3.099   1.797  0.0675 -0.2987  0.3211
  219MOL    C5231008   4.672   3.184   1.885 -0.3642 -0.6621  1.2115
  219MOL    O5331009   4.568   3.154   1.670 -0.3471 -0.4911  0.5422
  219MOL    H5431010   4.479   3.104   1.846 -0.8660 -0.4877 -1.4983
  219MOL    H5531011   4.675   3.139   1.984  0.1516 -2.3387  0.4577
  219MOL    H5631012   4.642   3.289   1.887 -0.5189 -0.5571 -2.9002
  219MOL    H5731013   4.770   3.177   1.836 -0.8151  1.9322 -0.1782
  219MOL    C5831014   4.466   3.234   1.634  0.4157 -0.0316 -0.4845
  219MOL    C5931015   4.494   3.296   1.497  0.6729  0.5868  0.1143
  219MOL    O6031016   4.342   3.163   1.622 -0.2130  0.3258  0.1422
  219MOL    H6131017   4.450   3.302   1.717 -2.3817 -0.3536 -0.7330
  219MOL    H6231018   4.529   3.222   1.425  0.9285  0.1754  0.6602
  219MOL    H6331019   4.579   3.363   1.503  0.0268  1.2817  1.7290
  219MOL    H6431020   4.399   3.337   1.464 -0.1987 -2.6738 -1.6379
  219MOL    C6531021   4.242   3.202   1.711  0.8447 -0.1253 -0.6937
  219MOL    C6631022   4.109   3.144   1.648 -0.9508  0.6023  0.7483
  219MOL    O6731023   4.254   3.135   1.832 -0.0218  0.1216 -0.4939
  219MOL    H6831024   4.240   3.311   1.708  1.2870 -0.1067 -0.3770
  219MOL    H6931025   4.089   3.177   1.546  0.7219 -2.7003 -0.7634
  219MOL    H7031026   4.018   3.162   1.705 -2.7331  1.6412 -2.3125
  219MOL    H7131027   4.118   3.035   1.645 -2.9213  0.4483 -0.5186
  219MOL    C7231028   4.254   3.209   1.952 -0.5080  0.1049  0.0086
  219MOL    C7331029   4.247   3.108   2.065 -0.1507 -0.6339  0.1802
  219MOL    O7431030   4.370   3.282   1.962  0.2395 -0.1216 -0.7441
  219MOL    H7531031   4.162   3.266   1.941 -0.3262  0.2295 -0.9260
  219MOL    H7631032   4.322   3.029   2.051 -2.5977 -2.8168 -1.0771
  219MOL    H7731033   4.147   3.067   2.055 -1.0897  1.1957  1.8645
  219MOL    H7831034   4.249   3.163   2.159 -2.2875  1.3117 -0.8615
  219MOL    C7931035   4.350   3.413   2.013 -0.8365 -0.1758 -0.5125
  219MOL    C8031036   4.486   3.479   2.046  0.4561  0.2844  0.2209
  219MOL    O8131037   4.295   3.495   1.915  0.5431 -0.0041 -0.0639
  219MOL    H8231038   4.294   3.417   2.106  0.2111 -2.5489  0.2653
  219MOL    H8331039   4.546   3.488   1.955 -0.9651 -0.2064 -0.7777
  219MOL    H8431040   4.534   3.411   2.116  1.7063  2.2463  1.3380
  219MOL    H8531041   4.472   3.565   2.111 -2.4530 -0.3916  0.5698
  219MOL    C8631042   4.190   3.570   1.964  0.2945  0.4512 -0.1983
  219MOL    C8731043   4.169   3.682   1.864  0.3276  0.5380 -0.2278
  219MOL    O8831044   4.067   3.503   1.963 -0.2661 -0.2002 -0.1894
  219MOL    H8931045   4.219   3.627   2.052  0.7331  0.0394 -0.0688
  219MOL    H9031046   4.153   3.644   1.763  1.9824 -0.4796 -0.1385
  219MOL    H9131047   4.261   3.740   1.863  1.0990 -0.4726  3.9675
  219MOL    H9231048   4.093   3.755   1.890  2.1478  2.6698 -0.7306
  219MOL    C9331049   4.004   3.494   2.092 -0.1268 -0.2898  0.2026
  219MOL    C9431050   3.862   3.434   2.074 -0.1165 -0.2172 -0.0597
  219MOL    O9531051   4.065   3.407   2.171  0.0649  0.0739 -1.0537
  219MOL    H9631052   3.989   3.596   2.128 -0.6328  0.1721 -1.2839
  219MOL    H9731053   3.880   3.339   2.024 -0.6225 -1.0230  1.2668
  219MOL    H9831054   3.796   3.506   2.027  1.4213  0.5466 -1.0796
  219MOL    H9931055   3.813   3.411   2.169  1.6220 -1.7508  0.4959
  219MOL   C10031056   4.090   3.451   2.306  0.5735 -0.3052 -0.0154
  219MOL   C10131057   4.074   3.331   2.401 -0.3536 -0.6754  0.9805
  219MOL   O10231058   4.218   3.495   2.314 -0.2352  0.0484 -0.2892
  219MOL   H10331059   4.014   3.526   2.328  0.3074  0.3180 -2.8330
  219MOL   H10431060   4.127   3.250   2.352  1.4790  0.3767  1.1749
  219MOL   H10531061   3.971   3.295   2.403 -0.6495  0.0341 -0.3707
  219MOL   H10631062   4.107   3.348   2.503  1.2238 -1.2254  0.5763
  219MOL   C10731063   4.229   3.621   2.378  0.6067 -0.4332 -0.7870
  219MOL   C10831064   4.378   3.647   2.425  0.1571 -0.9541  0.3374
  219MOL   O10931065   4.211   3.722   2.290 -0.2309 -0.3686  0.6937
  219MOL   H11031066   4.159   3.633   2.461 -0.9973 -0.0644 -2.1360
  219MOL   H11131067   4.386   3.754   2.444  1.2340  0.4032 -6.4640
  219MOL   H11231068   4.440   3.628   2.337  2.4071  1.3238  1.3842
  219MOL   H11331069   4.410   3.591   2.513  0.2088  1.6858  2.0219
  219MOL   C11431070   4.120   3.820   2.325 -0.2539 -1.1588 -0.2809
  219MOL   C11531071   4.139   3.927   2.216  0.1528 -0.3520  0.0746
  219MOL   O11631072   3.995   3.769   2.312  0.3471 -0.0062 -0.6371
  219MOL   H11731073   4.143   3.861   2.423  1.6353 -1.0996 -0.7283
  219MOL   H11831074   4.071   4.008   2.243 -0.8536 -0.9778 -0.5133
  219MOL   H11931075   4.115   3.883   2.119  0.1087 -2.1391  0.8628
  219MOL   H12031076   4.238   3.970   2.223  0.0855 -0.0798 -0.6895
  219MOL   C12131077   3.917   3.812   2.421  0.5379 -0.4116 -0.0036
  219MOL   C12231078   3.771   3.768   2.395 -0.4391  0.1629  0.0822
  219MOL   O12331079   3.949   3.740   2.540 -0.4821  0.1180  0.6124
  219MOL   H12431080   3.914   3.921   2.426 -2.4830 -0.4394  0.3017
  219MOL   H12531081   3.758   3.660   2.395 -0.8791  0.2126  1.1177
  219MOL   H12631082   3.729   3.819   2.308 -1.5028 -2.6549 -1.0854
  219MOL   H12731083   3.713   3.807   2.478  0.6825  1.0807  0.4519
  219MOL   C12831084   3.967   3.816   2.654  0.4744  0.2020  0.3538
  219MOL   C12931085   3.945   3.722   2.774 -0.1246  0.1139 -0.1583
  219MOL   O13031086   4.094   3.859   2.669 -0.0255 -0.3020  0.2249
  219MOL   H13131087   3.897   3.899   2.658 -1.7504 -1.6387  1.2334
  219MOL   H13231088   3.965   3.777   2.866  1.4170 -0.0953 -0.3464
  219MOL   H13331089   4.023   3.646   2.771 -1.5527 -1.4751  1.8787
  219MOL   H13431090   3.849   3.671   2.769 -0.5101  0.6156  1.9771
  219MOL   C13531091   4.107   3.994   2.681 -0.1077 -0.5931 -0.0422
  219MOL   C13631092   4.259   4.017   2.695 -0.0682  0.1084  0.0179
  219MOL   O13731093   4.059   4.072   2.574  0.0577  0.3476  0.6796
  219MOL   H13831094   4.056   4.040   2.766 -0.8297 -1.3334 -0.0711
  219MOL   H13931095   4.300   3.976   2.603  0.9192  1.4602 -0.1677
  219MOL   H14031096   4.309   3.973   2.782  0.3530  1.1420  0.3097
  219MOL   H14131097   4.279   4.125   2.697 -1.3653  0.3460  1.4198
  219MOL   H14231098   4.109   4.152   2.575 -1.6841  1.6893 -3.8067
  220MOL     C131099   5.307   2.995   2.743 -0.2410 -0.1602  0.4399
  220MOL     C231100   5.311   3.126   2.666 -0.1641 -0.6177  0.3639
  220MOL     O331101   5.247   2.903   2.652 -0.4725  0.2502  0.9488
  220MOL     H431102   5.250   3.013   2.834 -0.1515  1.4324  0.2014
  220MOL     H531103   5.331   3.212   2.730  0.7229 -1.3851  1.1411
  220MOL     H631104   5.227   3.154   2.603 -0.5368  0.3201  1.2604
  220MOL     H731105   5.408   3.124   2.617 -0.5164  2.4676 -0.5522
  220MOL     H831106   5.404   2.954   2.771  0.3769  0.4402 -0.7653
  220MOL     C931107   5.225   2.781   2.704  0.5527 -0.4762 -0.2930
  220MOL    C1031108   5.071   2.784   2.732 -0.3011 -0.5461 -0.0640
  220MOL    O1131109   5.249   2.683   2.610 -0.6032  0.3578  0.6596
  220MOL    H1231110   5.286   2.759   2.791  0.6171  1.5317  0.2046
  220MOL    H1331111   5.007   2.819   2.651 -0.4800 -0.0376  0.2891
  220MOL    H1431112   5.059   2.852   2.817  1.5227 -0.6147  0.2708
  220MOL    H1531113   5.033   2.686   2.761 -2.5392  0.1089 -0.6976
  220MOL    C1631114   5.393   2.654   2.594  0.1982 -0.2115  0.3768
  220MOL    C1731115   5.411   2.499   2.589 -0.0242  0.1402  0.3638
  220MOL    O1831116   5.445   2.688   2.468 -0.2924 -0.1130  0.2814
  220MOL    H1931117   5.446   2.694   2.681  1.3779  0.1595 -0.4928
  220MOL    H2031118   5.348   2.464   2.670  1.5156  1.2078  2.0565
  220MOL    H2131119   5.512   2.461   2.601 -0.1151 -0.3911 -0.4777
  220MOL    H2231120   5.373   2.453   2.497 -1.2226 -1.0070  1.4120
  220MOL    C2331121   5.488   2.821   2.457  0.2312 -0.0922 -0.2148
  220MOL    C2431122   5.633   2.831   2.502  1.2484  0.2139  0.2324
  220MOL    O2531123   5.475   2.876   2.329 -0.4357 -0.1602  0.3914
  220MOL    H2631124   5.432   2.883   2.528 -1.3155  1.6712 -2.8837
  220MOL    H2731125   5.631   2.811   2.609  0.4620  0.7161  0.3123
  220MOL    H2831126   5.668   2.932   2.481 -1.0267  0.8234 -0.7918
  220MOL    H2931127   5.691   2.756   2.447 -1.0795 -0.6500 -1.1143
  220MOL    C3031128   5.342   2.887   2.288 -0.4134 -0.4988 -0.8614
  220MOL    C3131129   5.322   3.037   2.240  0.6109  0.4449  0.8214
  220MOL    O3231130   5.318   2.807   2.173  0.2158  0.6232  0.2741
  220MOL    H3331131   5.264   2.871   2.362 -1.0064 -0.3879 -1.4644
  220MOL    H3431132   5.236   3.047   2.175  0.1380 -2.5598  0.9056
  220MOL    H3531133   5.414   3.060   2.186 -0.2644  0.7517 -0.5497
  220MOL    H3631134   5.315   3.117   2.315  1.2611  2.0732 -0.8284
  220MOL    C3731135   5.288   2.673   2.200 -0.2108  0.3302  1.1591
  220MOL    C3831136   5.140   2.651   2.169 -0.3625 -0.0254  0.5366
  220MOL    O3931137   5.373   2.590   2.124 -0.6617  0.1591 -0.4047
  220MOL    H4031138   5.301   2.646   2.305  0.1526 -0.1971  0.9767
  220MOL    H4131139   5.125   2.715   2.082  0.3146  1.4551  1.4941
  220MOL    H4231140   5.089   2.690   2.256 -0.0853  0.4419  0.4933
  220MOL    H4331141   5.109   2.547   2.152  0.5154 -0.2017 -0.0323
  220MOL    C4431142   5.509   2.585   2.162  0.1088  0.8553 -0.4198
  220MOL    C4531143   5.539   2.441   2.215  0.3429  0.0084  0.4674
  220MOL    O4631144   5.592   2.606   2.052  0.3963  0.0885 -0.0812
  220MOL    H4731145   5.536   2.660   2.237  0.9500 -1.1011  1.2779
  220MOL    H4831146   5.643   2.432   2.245  0.1885 -0.0709  0.9820
  220MOL    H4931147   5.516   2.374   2.133 -1.8596  0.7005  0.4818
  220MOL    H5031148   5.479   2.424   2.304  0.3155  1.3955  0.7253
  220MOL    C5131149   5.578   2.724   1.985 -0.6371  0.4398  0.4516
  220MOL    C5231150   5.704   2.810   2.004  0.0814  0.8859  0.4074
  220MOL    O5331151   5.557   2.707   1.848 -0.4726  0.5327  0.3969
  220MOL    H5431152   5.487   2.776   2.014  0.2337  1.5973  1.1464
  220MOL    H5531153   5.702   2.872   2.094 -1.7838 -0.6883  1.4673
  220MOL    H5631154   5.714   2.876   1.918 -5.5653  0.0953 -1.0305
  220MOL    H5731155   5.786   2.738   2.008 -1.1677 -0.4921  1.5543
  220MOL    C5831156   5.427   2.674   1.809  0.3404 -0.2437 -0.6368
  220MOL    C5931157   5.372   2.797   1.735 -0.1775  0.6207 -0.1534
  220MOL    O6031158   5.424   2.567   1.718  0.1764  0.5299 -0.3726
  220MOL    H6131159   5.365   2.647   1.894 -0.9373 -0.0028 -1.4762
  220MOL    H6231160   5.369   2.876   1.810 -1.6394 -1.0310  1.6085
  220MOL    H6331161   5.270   2.766   1.710 -0.1712 -1.1302  1.8471
  220MOL    H6431162   5.436   2.809   1.648 -1.9143 -0.4197 -1.6203
  220MOL    C6531163   5.435   2.434   1.766 -0.4906 -0.8366 -0.3419
  220MOL    C6631164   5.310   2.358   1.713 -0.1798 -0.2048 -0.7320
  220MOL    O6731165   5.551   2.376   1.716  0.3413 -0.2090  0.3300
  220MOL    H6831166   5.441   2.440   1.875  2.2286  1.7221 -0.5605
  220MOL    H6931167   5.310   2.369   1.604  0.8327 -1.5867 -0.8821
  220MOL    H7031168   5.214   2.396   1.747 -0.0014 -1.0244  0.6804
  220MOL    H7131169   5.320   2.254   1.744 -2.1269 -0.5996 -1.3652
  220MOL    C7231170   5.668   2.384   1.796 -0.1323 -0.1739  0.1904
  220MOL    C7331171   5.675   2.256   1.878 -0.0471  0.0599 -0.0218
  220MOL    O7431172   5.778   2.398   1.720  0.0509 -0.2479 -0.4331
  220MOL    H7531173   5.660   2.475   1.855  0.5333 -0.5971  0.9395
  220MOL    H7631174   5.578   2.218   1.911  1.0505 -1.7317  1.2042
  220MOL    H7731175   5.732   2.282   1.967 -1.4239  1.8228  0.3772
  220MOL    H7831176   5.735   2.184   1.824  0.4761  0.8709 -0.5288
  220MOL    C7931177   5.781   2.522   1.653  1.3307  0.0537 -0.0865
  220MOL    C8031178   5.888   2.613   1.713 -0.6353 -0.0331  0.1222
  220MOL    O8131179   5.814   2.497   1.519 -0.5778 -0.5564  0.4879
  220MOL    H8231180   5.686   2.577   1.659  1.7909  0.8625 -0.0503
  220MOL    H8331181   5.877   2.714   1.674  4.2228  0.5157 -0.1068
  220MOL    H8431182   5.987   2.577   1.685 -0.9193  0.6645 -1.8941
  220MOL    H8531183   5.885   2.610   1.822  0.6017 -0.3878  0.1566
  220MOL    C8631184   5.712   2.463   1.433  0.3165 -0.4356 -0.6752
  220MOL    C8731185   5.694   2.575   1.334 -0.3594 -0.0757  0.2729
  220MOL    O8831186   5.756   2.343   1.367  1.0924 -0.1008  0.3435
  220MOL    H8931187   5.616   2.438   1.477 -0.0824  1.9854 -0.0861
  220MOL    H9031188   5.643   2.664   1.372  1.4696  1.0416  0.1899
  220MOL    H9131189   5.649   2.534   1.244  0.3181 -0.3796  0.0679
  220MOL    H9231190   5.792   2.616   1.311 -1.1507  1.9740  0.4119
  220MOL    C9331191   5.744   2.226   1.442  0.7298  0.3823 -0.6251
  220MOL    C9431192   5.632   2.152   1.382 -0.4443  0.0073  0.4271
  220MOL    O9531193   5.855   2.157   1.430  0.1824 -0.4498 -0.2108
  220MOL    H9631194   5.711   2.238   1.546  0.0900 -1.2575 -0.6315
  220MOL    H9731195   5.548   2.221   1.384  0.0102  0.5319  3.3521
  220MOL    H9831196   5.608   2.072   1.451 -0.9013 -0.7104 -0.5511
  220MOL    H9931197   5.668   2.118   1.284 -0.2122 -1.1697  0.9168
  220MOL   C10031198   5.949   2.186   1.527  0.2486  0.8036 -0.0087
  220MOL   C10131199   5.955   2.076   1.631 -0.2764 -0.4726  0.2878
  220MOL   O10231200   6.070   2.176   1.456  0.0780 -0.3861 -0.0539
  220MOL   H10331201   5.941   2.285   1.572 -1.4540 -0.7773  3.3897
  220MOL   H10431202   5.985   1.983   1.583  2.2493  0.2943  0.2891
  220MOL   H10531203   5.870   2.055   1.696  0.5961 -2.4987  0.8151
  220MOL   H10631204   6.043   2.087   1.694 -0.4606  3.2798  0.0097
  220MOL   C10731205   6.099   2.274   1.359  1.2035  0.2978 -0.3794
  220MOL   C10831206   6.182   2.388   1.434  0.3133 -0.5058 -0.3359
  220MOL   O10931207   6.182   2.231   1.259 -0.1855 -0.0170  0.2040
  220MOL   H11031208   6.009   2.323   1.321  1.5988  1.3863  0.0894
  220MOL   H11131209   6.264   2.347   1.492  0.5338  1.5175  0.8323
  220MOL   H11231210   6.112   2.443   1.498  0.5974 -0.3266 -0.1787
  220MOL   H11331211   6.232   2.457   1.366  2.8495 -0.2366  1.7403
  220MOL   C11431212   6.120   2.129   1.180  0.0607 -0.5228  0.0741
  220MOL   C11531213   6.107   2.179   1.034  0.4490  0.4061  0.1891
  220MOL   O11631214   6.211   2.024   1.164 -0.8482 -0.2730 -0.4929
  220MOL   H11731215   6.021   2.093   1.206 -0.1766 -0.7152 -1.0403
  220MOL   H11831216   6.193   2.240   1.006  1.1183  0.4166  2.1797
  220MOL   H11931217   6.022   2.246   1.024  1.0750  1.1159 -0.4440
  220MOL   H12031218   6.088   2.092   0.971  1.0158 -0.8148  1.6843
  220MOL   C12131219   6.214   1.944   1.276 -0.7585 -0.3354  0.2642
  220MOL   C12231220   6.171   1.802   1.234 -0.7896 -0.1186  0.4524
  220MOL   O12331221   6.343   1.923   1.317 -0.1250 -0.0499 -0.1506
  220MOL   H12431222   6.151   1.965   1.362 -3.2320 -2.0544 -1.0257
  220MOL   H12531223   6.066   1.802   1.203 -0.1254  0.6350 -1.8856
  220MOL   H12631224   6.189   1.732   1.316  1.3572 -0.7437 -0.5126
  220MOL   H12731225   6.227   1.779   1.143  0.0864  2.6284  0.2573
  220MOL   C12831226   6.405   2.030   1.390  0.1380 -0.4126  0.0182
  220MOL   C12931227   6.422   1.979   1.535 -0.3310  0.0793 -0.2360
  220MOL   O13031228   6.527   2.057   1.330  0.0153  0.5583 -0.2994
  220MOL   H13131229   6.345   2.121   1.392 -0.6313 -0.8348 -2.6044
  220MOL   H13231230   6.469   2.055   1.597  2.5070 -3.3088  1.9283
  220MOL   H13331231   6.483   1.889   1.533 -1.2991 -0.5786 -1.6512
  220MOL   H13431232   6.326   1.955   1.582 -1.1770 -0.3740 -2.1379
  220MOL   C13531233   6.521   2.148   1.224  0.0041  0.3499 -0.2834
  220MOL   C13631234   6.667   2.188   1.199  0.3833  0.9314  0.1187
  220MOL   O13731235   6.461   2.093   1.111  0.0138 -0.1814 -0.0583
  220MOL   H13831236   6.454   2.231   1.247 -1.3468  0.0751 -3.0643
  220MOL   H13931237   6.673   2.265   1.121 -0.6746 -1.1118 -2.0371
  220MOL   H14031238   6.712   2.093   1.169 -1.1584 -0.5412  2.3853
  220MOL   H14131239   6.706   2.224   1.294  1.2201 -0.0154  0.1346
  220MOL   H14231240   6.381   2.045   1.129 -0.6918  0.3788 -1.6323
  221MOL     C131241   5.543   6.904   2.998  0.6358 -0.2949 -0.1419
  221MOL     C231242   5.521   6.872   3.154  0.5443 -0.1090 -0.0154
  221MOL     O331243   5.683   6.920   2.981  0.2415  0.0501 -0.2829
  221MOL     H431244   5.490   6.993   2.965  0.6551 -0.6639 -1.1888
  221MOL     H531245   5.566   6.959   3.202  0.8471  0.7502 -1.7875
  221MOL     H631246   5.581   6.784   3.179 -2.3639 -1.7132  1.4861
  221MOL     H731247   5.417   6.858   3.180  0.7219  1.2123  1.4759
  221MOL     H831248   5.510   6.832   2.923  1.2750  0.4278 -1.1251
  221MOL     C931249   5.716   6.978   2.860 -0.6528 -0.1231 -0.5999
  221MOL    C1031250   5.696   6.878   2.747  0.8412  0.5660  0.7636
  221MOL    O1131251   5.652   7.101   2.839  0.3461  0.0576  0.5001
  221MOL    H1231252   5.821   7.009   2.851 -0.8253  0.3630 -0.9417
  221MOL    H1331253   5.731   6.921   2.653 -0.6949  0.6428  0.2037
  221MOL    H1431254   5.589   6.856   2.740  1.0687 -0.3806  0.1602
  221MOL    H1531255   5.757   6.791   2.771  0.8300  0.3452 -0.0152
  221MOL    C1631256   5.685   7.199   2.930 -0.8553 -0.0113 -0.3374
  221MOL    C1731257   5.829   7.253   2.903  0.6904  0.1415  0.9190
  221MOL    O1831258   5.604   7.306   2.912 -0.0504  0.0545 -0.3495
  221MOL    H1931259   5.675   7.165   3.033 -0.3895 -0.5004 -0.4488
  221MOL    H2031260   5.893   7.175   2.944  0.1932 -2.2991 -2.6931
  221MOL    H2131261   5.850   7.344   2.960  0.0624  1.2142 -0.5120
  221MOL    H2231262   5.840   7.272   2.796  1.3919 -2.5256  0.4818
  221MOL    C2331263   5.468   7.289   2.935  0.1130  0.2608 -0.0947
  221MOL    C2431264   5.433   7.272   3.090 -0.0170  0.2830  0.7853
  221MOL    O2531265   5.399   7.403   2.896  0.4422 -0.2541 -0.4276
  221MOL    H2631266   5.435   7.199   2.882  2.5127 -0.0671 -1.0846
  221MOL    H2731267   5.328   7.248   3.105 -0.2295  1.5759  1.4484
  221MOL    H2831268   5.453   7.369   3.135  0.2071  1.7767 -2.4189
  221MOL    H2931269   5.497   7.193   3.129  0.5151 -0.6750 -1.9160
  221MOL    C3031270   5.397   7.424   2.752 -0.0965  0.1034 -0.3371
  221MOL    C3131271   5.250   7.402   2.710  0.1948  0.1871 -0.9190
  221MOL    O3231272   5.439   7.554   2.712  0.4340 -0.6455  0.6927
  221MOL    H3331273   5.468   7.358   2.702  2.3702  2.3076  0.0800
  221MOL    H3431274   5.187   7.478   2.756  0.7849 -0.8399  1.6794
  221MOL    H3531275   5.212   7.305   2.743  0.3202  0.3257 -0.3666
  221MOL    H3631276   5.252   7.419   2.602  1.2380  1.7359 -0.6708
  221MOL    C3731277   5.572   7.588   2.752 -0.1165  0.2939  0.3129
  221MOL    C3831278   5.670   7.532   2.652  0.3151 -0.4436  0.5253
  221MOL    O3931279   5.589   7.730   2.755  0.5199 -0.0198  0.0630
  221MOL    H4031280   5.594   7.561   2.855 -1.8602 -1.1715  0.3167
  221MOL    H4131281   5.664   7.424   2.645  2.3639 -0.3984 -3.1427
  221MOL    H4231282   5.770   7.569   2.674 -0.4017  1.3131  0.9603
  221MOL    H4331283   5.647   7.581   2.558 -1.3811  0.9082  1.5957
  221MOL    C4431284   5.509   7.777   2.859  0.2420 -0.0079  0.1452
  221MOL    C4531285   5.602   7.796   2.976  0.2615 -0.2749  0.0819
  221MOL    O4631286   5.462   7.905   2.827  0.7220  0.5215  0.2567
  221MOL    H4731287   5.433   7.706   2.891  1.2032 -1.0247  0.2306
  221MOL    H4831288   5.557   7.846   3.062  1.6785 -3.0516  2.5215
  221MOL    H4931289   5.685   7.857   2.939 -0.1488  0.8963  1.0367
  221MOL    H5031290   5.655   7.708   3.011  1.8920  0.7271  0.1857
  221MOL    C5131291   5.360   7.906   2.728  0.1141  0.3092  0.1610
  221MOL    C5231292   5.230   0.034   2.794  0.2227 -0.1838  0.3765
  221MOL    O5331293   5.389   0.087   2.632 -0.2015  0.5382  0.6034
  221MOL    H5431294   5.360   7.809   2.678  0.3796  1.0104 -1.2459
  221MOL    H5531295   5.205   7.879   2.874 -0.9466 -1.6648 -1.2274
  221MOL    H5631296   5.150   0.037   2.721 -1.0762 -2.1289  1.6673
  221MOL    H5731297   5.226   0.135   2.835 -1.6912  0.0067 -0.2486
  221MOL    C5831298   5.511   0.069   2.566  0.0935 -0.5443 -0.3139
  221MOL    C5931299   5.477   0.004   2.429  0.5056  0.5485  0.4145
  221MOL    O6031300   5.567   0.192   2.541 -0.4279 -0.8447 -0.1240
  221MOL    H6131301   5.582   0.004   2.618  0.5778 -1.0634 -1.5886
  221MOL    H6231302   5.450   7.814   2.447  0.1039  0.1081 -2.5301
  221MOL    H6331303   5.567   7.914   2.368 -0.1450  1.7719 -0.6427
  221MOL    H6431304   5.390   0.047   2.381 -0.0983 -0.2414  0.7838
  221MOL    C6531305   5.636   0.249   2.653 -0.0353  0.6774 -0.0801
  221MOL    C6631306   5.775   0.274   2.601 -0.1493 -0.9178  0.4457
  221MOL    O6731307   5.586   0.381   2.682 -0.7124  0.1865 -0.4140
  221MOL    H6831308   5.628   0.190   2.744 -0.2102  0.5349 -0.1856
  221MOL    H6931309   5.780   0.331   2.508  2.3189  1.2528  1.8721
  221MOL    H7031310   5.822   0.177   2.583  0.2648 -0.6616  0.1227
  221MOL    H7131311   5.833   0.318   2.681  0.8949 -0.7049 -0.4158
  221MOL    C7231312   5.482   0.382   2.771 -0.6084  0.5809  0.4501
  221MOL    C7331313   5.542   0.421   2.906 -0.2359 -0.0046 -0.3261
  221MOL    O7431314   5.388   0.474   2.728  0.1374  0.1775  0.0811
  221MOL    H7531315   5.430   0.286   2.781  0.7221 -0.3042 -0.9179
  221MOL    H7631316   5.609   0.342   2.940 -2.6843 -2.3148 -0.6980
  221MOL    H7731317   5.475   0.463   2.981 -0.5028  0.8986 -1.0690
  221MOL    H7831318   5.601   0.511   2.885 -1.7081  0.6582 -1.7082
  221MOL    C7931319   5.307   0.423   2.619 -0.0246 -0.8922  0.1126
  221MOL    C8031320   5.169   0.412   2.674 -0.3441  0.4181 -0.0218
  221MOL    O8131321   5.304   0.525   2.520  0.2430 -0.3699  0.2722
  221MOL    H8231322   5.347   0.331   2.576 -0.5548 -1.6489  1.2222
  221MOL    H8331323   5.165   0.321   2.734  0.2410  0.5553  0.2296
  221MOL    H8431324   5.101   0.376   2.597 -1.3331 -0.4419  1.2559
  221MOL    H8531325   5.132   0.503   2.721 -0.8575  1.0413 -1.5679
  221MOL    C8631326   5.425   0.546   2.438  0.2970  0.2689  0.1103
  221MOL    C8731327   5.395   0.517   2.292  0.7833  0.2604  0.2111
  221MOL    O8831328   5.482   0.672   2.449 -0.2800 -0.1345 -0.2479
  221MOL    H8931329   5.508   0.482   2.469 -0.5058 -1.0772 -0.4583
  221MOL    H9031330   5.332   0.597   2.252 -3.4924 -1.4924  3.1374
  221MOL    H9131331   5.339   0.425   2.278 -0.0921  0.9725 -1.1393
  221MOL    H9231332   5.483   0.502   2.229  1.5071  0.3797  1.1916
  221MOL    C9331333   5.540   0.714   2.574 -0.1992 -0.3465 -0.3050
  221MOL    C9431334   5.693   0.722   2.564 -0.6007 -0.0578 -0.5912
  221MOL    O9531335   5.499   0.839   2.613  0.9826 -0.4079 -0.4236
  221MOL    H9631336   5.515   0.649   2.658  1.1549 -1.5310 -0.8205
  221MOL    H9731337   5.708   0.614   2.554  0.2125 -0.4177  3.5274
  221MOL    H9831338   5.737   0.755   2.658 -0.0342 -0.1156 -0.8310
  221MOL    H9931339   5.718   0.780   2.475  2.3647 -1.9512 -1.0717
  221MOL   C10031340   5.375   0.845   2.677 -0.6104  0.4336 -0.4435
  221MOL   C10131341   5.415   0.861   2.825 -0.5940  0.8075  1.1703
  221MOL   O10231342   5.291   0.945   2.634 -0.4397 -0.8315 -1.1298
  221MOL   H10331343   5.321   0.751   2.670 -0.2223  0.2505 -1.0933
  221MOL   H10431344   5.324   0.859   2.885  0.4878  1.7280  2.8729
  221MOL   H10531345   5.470   0.952   2.846  1.1778 -0.4867  2.2483
  221MOL   H10631346   5.478   0.777   2.853 -2.8266 -0.9746  1.0275
  221MOL   C10731347   5.238   0.923   2.504 -0.0841  0.7476  0.6376
  221MOL   C10831348   5.101   0.844   2.515 -0.1469 -0.0255  0.0270
  221MOL   O10931349   5.209   1.039   2.434 -0.2501  0.0556 -0.3851
  221MOL   H11031350   5.309   0.858   2.453  0.8598  0.6394  2.0655
  221MOL   H11131351   5.120   0.744   2.554 -1.2144 -0.7707 -1.3010
  221MOL   H11231352   5.044   0.828   2.423  1.8105 -0.7012 -1.0905
  221MOL   H11331353   5.052   0.910   2.586  0.6109 -0.5519  1.0475
  221MOL   C11431354   5.322   1.117   2.419  0.9678 -0.2583 -0.5957
  221MOL   C11531355   5.413   1.063   2.315 -0.0346  0.1326 -0.2438
  221MOL   O11631356   5.285   1.247   2.374  0.4050 -0.1032 -0.4020
  221MOL   H11731357   5.376   1.136   2.511 -1.1584 -2.1182  1.0762
  221MOL   H11831358   5.451   0.973   2.365  0.0274 -0.0214 -0.5702
  221MOL   H11931359   5.495   1.134   2.306 -1.4086  1.5955 -1.2952
  221MOL   H12031360   5.367   1.039   2.219  0.1678  0.7354 -0.4908
  221MOL   C12131361   5.193   1.305   2.462 -0.0063  0.2516  1.2500
  221MOL   C12231362   5.263   1.412   2.553  0.0727 -0.7525  0.0380
  221MOL   O12331363   5.085   1.370   2.400  0.0367 -1.0792 -0.2580
  221MOL   H12431364   5.151   1.234   2.534  0.5492 -0.1129  1.2146
  221MOL   H12531365   5.188   1.439   2.627  1.2568  1.8864  0.3305
  221MOL   H12631366   5.295   1.495   2.490  0.7542  0.5603  2.0626
  221MOL   H12731367   5.350   1.359   2.594  0.0891 -0.3293  0.5626
  221MOL   C12831368   5.009   1.288   2.320 -0.0813  0.0129 -0.9766
  221MOL   C12931369   4.868   1.296   2.385 -0.0735  0.3215  0.4686
  221MOL   O13031370   5.009   1.344   2.193  0.3461 -0.2063  0.0806
  221MOL   H13131371   5.049   1.188   2.311  0.4352  0.1749 -0.4870
  221MOL   H13231372   4.804   1.223   2.336  2.7851  0.3566 -3.5919
  221MOL   H13331373   4.827   1.397   2.384 -0.4222  0.2447  3.3919
  221MOL   H13431374   4.877   1.275   2.492  0.9110 -2.3511 -0.0860
  221MOL   C13531375   5.131   1.346   2.124 -0.3115  0.1399  0.1447
  221MOL   C13631376   5.086   1.383   1.989  0.5472  0.7365 -0.2029
  221MOL   O13731377   5.218   1.444   2.167  0.8609  0.0419 -0.1914
  221MOL   H13831378   5.187   1.253   2.131  0.8599  0.6954 -1.5271
  221MOL   H13931379   5.175   1.390   1.926  0.5828 -0.1522 -0.2508
  221MOL   H14031380   5.040   1.481   1.981 -1.1771  0.0776  1.3959
  221MOL   H14131381   5.003   1.321   1.957  2.7253 -1.1014 -2.4471
  221MOL   H14231382   5.245   1.415   2.253 -2.1465 -0.8915  0.4991
  222MOL     C131383   1.973   6.722   5.149 -0.0546  0.3691  0.2344
  222MOL     C231384   2.075   6.633   5.078  0.1865  0.0326  0.2166
  222MOL     O331385   1.933   6.814   5.050  0.0937  0.2944  0.2060
  222MOL     H431386   2.015   6.765   5.240  1.6872 -1.4411  0.3268
  222MOL     H531387   2.096   6.557   5.153 -1.1325  0.2510  0.8301
  222MOL     H631388   2.155   6.684   5.024  0.7466 -1.0206  0.0566
  222MOL     H731389   2.022   6.590   4.993  2.6388 -0.7672 -0.9362
  222MOL     H831390   1.898   6.649   5.179  0.9276 -0.9737 -0.5452
  222MOL     C931391   1.823   6.889   5.090 -0.2378  0.3313  0.1277
  222MOL    C1031392   1.859   7.034   5.060  0.1271  0.2716 -0.0774
  222MOL    O1131393   1.710   6.852   5.006 -0.0565  0.1094 -0.2524
  222MOL    H1231394   1.809   6.875   5.197  0.6634 -0.5860  0.1308
  222MOL    H1331395   1.765   7.087   5.066  0.2556  0.4140  0.6667
  222MOL    H1431396   1.897   7.050   4.959 -0.0971  0.5408 -0.1167
  222MOL    H1531397   1.936   7.074   5.126 -2.2705  1.3129  2.1412
  222MOL    C1631398   1.651   6.727   5.030  0.1314 -0.3804 -0.0949
  222MOL    C1731399   1.581   6.725   5.164 -0.0645 -0.1024 -0.0970
  222MOL    O1831400   1.561   6.691   4.939 -1.1814 -0.1301  0.0476
  222MOL    H1931401   1.727   6.649   5.035  1.6354  1.0210 -0.8059
  222MOL    H2031402   1.525   6.633   5.175  1.4442 -0.9671  0.4125
  222MOL    H2131403   1.513   6.811   5.168  0.4180  0.2151  1.3734
  222MOL    H2231404   1.652   6.734   5.246  1.2394  0.2712 -1.2322
  222MOL    C2331405   1.617   6.672   4.809 -0.3729 -0.2672 -0.3513
  222MOL    C2431406   1.629   6.525   4.775 -0.0970 -0.2565 -0.4132
  222MOL    O2531407   1.535   6.731   4.708 -0.1245  0.0265  0.1071
  222MOL    H2631408   1.710   6.727   4.793  0.0157  0.1541  2.9769
  222MOL    H2731409   1.528   6.486   4.782 -1.2287  2.5343 -0.5961
  222MOL    H2831410   1.688   6.483   4.857 -0.4156 -0.5328 -0.3272
  222MOL    H2931411   1.677   6.512   4.679  1.1459 -0.5515  0.2380
  222MOL    C3031412   1.542   6.872   4.717 -0.2178 -0.7584 -0.2467
  222MOL    C3131413   1.612   6.922   4.594  0.3233  0.1788 -0.0813
  222MOL    O3231414   1.414   6.927   4.717 -0.0032  0.1409  0.3825
  222MOL    H3331415   1.595   6.911   4.804  0.5295  0.1506 -1.1026
  222MOL    H3431416   1.706   6.868   4.581  1.8376  2.7949 -0.4361
  222MOL    H3531417   1.631   7.029   4.597  1.4173  0.1184 -3.1884
  222MOL    H3631418   1.547   6.904   4.508 -0.2299 -1.9262  0.7510
  222MOL    C3731419   1.357   6.933   4.852 -0.3025  0.2113  0.1416
  222MOL    C3831420   1.358   7.077   4.903 -0.4209 -0.0939 -0.5687
  222MOL    O3931421   1.226   6.895   4.852 -0.1314  0.6399  0.8930
  222MOL    H4031422   1.407   6.868   4.924  0.4733  1.1230  0.4426
  222MOL    H4131423   1.336   7.073   5.010 -0.2279  0.3504 -0.5142
  222MOL    H4231424   1.278   7.136   4.858 -0.1182  2.1197  1.6838
  222MOL    H4331425   1.456   7.120   4.884 -0.1096 -0.7649 -0.5157
  222MOL    C4431426   1.200   6.755   4.835 -0.5468 -1.0446  0.2148
  222MOL    C4531427   1.181   6.691   4.981  0.6179  0.3363  0.2745
  222MOL    O4631428   1.080   6.733   4.763 -0.4053 -0.0039 -0.1715
  222MOL    H4731429   1.285   6.710   4.785  0.4360 -0.8950  1.7364
  222MOL    H4831430   1.162   6.584   4.973 -0.5507  0.7066 -2.5872
  222MOL    H4931431   1.097   6.743   5.028  0.9229 -0.0818  1.2974
  222MOL    H5031432   1.267   6.721   5.040  1.1235 -1.2400  0.3780
  222MOL    C5131433   1.100   6.770   4.632  0.9298  0.1933  0.4010
  222MOL    C5231434   1.167   6.657   4.562 -1.0167  0.1088  0.2944
  222MOL    O5331435   0.983   6.797   4.558  0.2865 -0.0290  0.2157
  222MOL    H5431436   1.159   6.862   4.625 -0.0580  0.7907 -0.1831
  222MOL    H5531437   1.273   6.681   4.572 -0.3263 -3.1055  1.0608
  222MOL    H5631438   1.151   6.666   4.454  0.9180  0.7139  0.0417
  222MOL    H5731439   1.139   6.556   4.591  0.3393 -1.0933 -2.3266
  222MOL    C5831440   0.909   6.905   4.604  0.3845  0.0606  0.8699
  222MOL    C5931441   0.982   7.031   4.553  0.5197  0.0142 -0.1002
  222MOL    O6031442   0.779   6.900   4.552 -0.4011 -0.0600  0.2653
  222MOL    H6131443   0.906   6.899   4.712  0.2538 -0.1354  0.8544
  222MOL    H6231444   1.053   7.007   4.473  1.1876  1.0609  0.1774
  222MOL    H6331445   1.044   7.057   4.638 -2.4485  1.5346  1.6580
  222MOL    H6431446   0.913   7.114   4.538 -0.9010 -1.1615 -0.2834
  222MOL    C6531447   0.691   6.834   4.634 -0.8991 -0.0253 -0.0293
  222MOL    C6631448   0.607   6.936   4.700 -0.8099 -0.2546  0.4082
  222MOL    O6731449   0.603   6.758   4.561  1.2156 -0.0359 -0.5937
  222MOL    H6831450   0.740   6.764   4.701 -0.1149  0.2985 -0.2585
  222MOL    H6931451   0.535   6.966   4.623 -0.2061  0.0155 -0.0525
  222MOL    H7031452   0.666   7.020   4.737 -0.9070 -1.0033  2.3600
  222MOL    H7131453   0.546   6.895   4.781 -1.8355  1.8614  0.7625
  222MOL    C7231454   0.671   6.664   4.480 -0.2743 -0.3943 -0.7915
  222MOL    C7331455   0.641   6.535   4.558  0.1005  0.3107 -0.4651
  222MOL    O7431456   0.607   6.654   4.352  0.3652 -0.3020  0.0206
  222MOL    H7531457   0.779   6.676   4.470 -0.5930  1.9072 -1.7113
  222MOL    H7631458   0.534   6.520   4.541  0.0682 -0.3615  0.3041
  222MOL    H7731459   0.669   6.549   4.662 -0.6650  0.6759 -0.3080
  222MOL    H7831460   0.704   6.453   4.524 -1.8677 -2.1978  1.7126
  222MOL    C7931461   0.658   6.745   4.259 -0.2544  0.7338 -0.6509
  222MOL    C8031462   0.795   6.694   4.201 -0.4685  0.5215  0.2355
  222MOL    O8131463   0.582   6.762   4.151  0.6333 -0.3092 -0.3365
  222MOL    H8231464   0.681   6.838   4.311  2.1966 -1.9115  3.2809
  222MOL    H8331465   0.870   6.665   4.274 -1.3584  2.4663  1.9710
  222MOL    H8431466   0.852   6.775   4.156 -0.9333  1.0900  0.6719
  222MOL    H8531467   0.780   6.610   4.133 -1.8053 -0.9450  2.2919
  222MOL    C8631468   0.461   6.823   4.177 -0.0407  0.1881  0.5231
  222MOL    C8731469   0.481   6.973   4.157 -0.2126  0.2137  0.4701
  222MOL    O8831470   0.377   6.780   4.078 -0.8050  0.6240 -0.3725
  222MOL    H8931471   0.415   6.788   4.270  0.4449 -2.0945 -0.0555
  222MOL    H9031472   0.541   7.015   4.238 -0.1133 -1.0676  1.0726
  222MOL    H9131473   0.382   7.016   4.168 -0.0899  0.0387  2.4159
  222MOL    H9231474   0.532   6.999   4.064 -0.0556  1.4490  0.8899
  222MOL    C9331475   0.314   6.650   4.100  0.0366  0.0675  0.1386
  222MOL    C9431476   0.175   6.679   4.169 -0.0609 -0.6210  0.3965
  222MOL    O9531477   0.301   6.576   3.986 -0.1757 -0.2564  0.5388
  222MOL    H9631478   0.377   6.599   4.173  0.2186  2.1143  1.4833
  222MOL    H9731479   0.102   6.708   4.094  0.9692 -2.2273 -1.2515
  222MOL    H9831480   0.181   6.742   4.258 -0.1944 -0.5400  0.3491
  222MOL    H9931481   0.131   6.583   4.198  0.0161 -1.1014 -1.0436
  222MOL   C10031482   0.416   6.572   3.908 -0.2482  0.0171 -0.0042
  222MOL   C10131483   0.502   6.459   3.960  0.5060  0.3819  0.1305
  222MOL   O10231484   0.390   6.544   3.770  0.2774 -0.3097 -0.2220
  222MOL   H10331485   0.476   6.663   3.915  0.6241 -0.5483 -0.0177
  222MOL   H10431486   0.460   6.359   3.944 -0.2042  0.9129 -1.3662
  222MOL   H10531487   0.525   6.484   4.064 -1.3309  1.3912  0.2990
  222MOL   H10631488   0.599   6.463   3.909  0.7114 -0.2456  0.4535
  222MOL   C10731489   0.334   6.643   3.695 -0.1393  0.3705  0.7674
  222MOL   C10831490   0.438   6.657   3.581 -0.0305 -0.6038 -0.1760
  222MOL   O10931491   0.212   6.603   3.643 -0.4016  0.4419 -0.1812
  222MOL   H11031492   0.323   6.735   3.753 -0.8508  0.2468  0.8340
  222MOL   H11131493   0.405   6.738   3.516  1.8343 -0.7159 -1.2888
  222MOL   H11231494   0.454   6.570   3.518  1.6603  0.8047 -1.7550
  222MOL   H11331495   0.535   6.674   3.627  1.1346 -1.6926 -2.1878
  222MOL   C11431496   0.108   6.599   3.731  0.4616 -0.5162 -0.4876
  222MOL   C11531497   0.014   6.711   3.698  0.3109  0.1786 -0.0080
  222MOL   O11631498   0.030   6.488   3.725 -0.4088  0.1715 -0.3116
  222MOL   H11731499   0.137   6.612   3.835 -0.1112 -1.0161 -0.2597
  222MOL   H11831500   0.052   6.806   3.737  3.8129 -0.4248 -1.7560
  222MOL   H11931501   7.833   6.701   3.751  0.6892 -1.6604  0.3429
  222MOL   H12031502   7.913   6.706   3.591 -0.2323 -1.4070  0.1252
  222MOL   C12131503   0.084   6.380   3.793  0.3588  0.1335  1.0557
  222MOL   C12231504   0.002   6.357   3.918 -0.5658 -0.0994  0.1456
  222MOL   O12331505   0.072   6.269   3.716 -0.1468 -0.1720  0.0263
  222MOL   H12431506   0.189   6.391   3.818  0.2171 -0.4836  1.9173
  222MOL   H12531507   0.017   6.451   3.970 -1.8485  0.9886 -1.4013
  222MOL   H12631508   0.023   6.275   3.987 -2.3476  0.5774  1.5363
  222MOL   H12731509   7.815   6.347   3.877  0.0417 -0.6065 -1.2410
  222MOL   C12831510   0.166   6.251   3.616  0.2211 -0.2669  0.0425
  222MOL   C12931511   0.267   6.149   3.664 -0.4361  0.0117  0.1288
  222MOL   O13031512   0.108   6.183   3.503 -0.0113  0.3848  0.7990
  222MOL   H13131513   0.226   6.336   3.582 -2.9194  1.3821 -1.5932
  222MOL   H13231514   0.350   6.146   3.594  0.9760 -3.3010  1.8434
  222MOL   H13331515   0.220   6.051   3.674 -2.0162  0.6606 -0.7249
  222MOL   H13431516   0.297   6.169   3.767  0.3001 -3.3875  0.6256
  222MOL   C13531517   0.018   6.267   3.431  0.2398 -0.2643 -0.4145
  222MOL   C13631518   0.095   6.340   3.323 -0.4018 -0.1693  0.3946
  222MOL   O13731519   7.820   6.199   3.377 -0.2356 -0.2605  0.1659
  222MOL   H13831520   7.888   6.343   3.496 -2.3472 -0.1267 -2.2369
  222MOL   H13931521   0.135   6.273   3.247  3.0882  1.6669  0.5299
  222MOL   H14031522   0.174   6.401   3.366  0.4827  0.6829 -2.3892
  222MOL   H14131523   0.031   6.410   3.270  1.5440  1.0184 -0.4323
  222MOL   H14231524   7.759   6.170   3.443 -1.6154  0.0564 -0.9664
  223MOL     C131525   7.071   0.722   1.747 -0.0421  0.1790  0.1244
  223MOL     C231526   7.173   0.612   1.720  0.7052 -0.4342  0.0496
  223MOL     O331527   7.068   0.733   1.888  0.3325 -0.2102 -0.1899
  223MOL     H431528   6.972   0.693   1.712 -0.2950  0.6683  0.4204
  223MOL     H531529   7.199   0.555   1.810 -1.4310  0.6055  1.3559
  223MOL     H631530   7.253   0.625   1.646  1.4926  2.0258  1.2964
  223MOL     H731531   7.114   0.537   1.667  1.4342 -2.3432  1.8524
  223MOL     H831532   7.096   0.815   1.696 -1.4507  1.6325  2.0010
  223MOL     C931533   7.000   0.837   1.953  0.4193  0.2367  0.2581
  223MOL    C1031534   6.890   0.763   2.030 -0.2070  0.5498 -0.2386
  223MOL    O1131535   7.070   0.905   2.050  0.1204  0.1013 -0.0182
  223MOL    H1231536   6.949   0.903   1.883 -1.7739  0.9173  2.4418
  223MOL    H1331537   6.832   0.704   1.959 -3.6998 -0.8556  3.5905
  223MOL    H1431538   6.828   0.839   2.078 -0.2495  0.8270 -0.7268
  223MOL    H1531539   6.940   0.694   2.098 -1.7534 -1.1238 -0.7850
  223MOL    C1631540   7.164   0.991   1.999  0.4457 -0.3814  0.0961
  223MOL    C1731541   7.120   1.130   2.047 -0.1166  0.3120  0.2032
  223MOL    O1831542   7.289   0.966   2.053  0.2292  0.9895  0.1717
  223MOL    H1931543   7.165   0.994   1.890 -1.0576 -1.2663  0.0446
  223MOL    H2031544   7.187   1.213   2.025  0.4490  0.2665  1.7227
  223MOL    H2131545   7.110   1.123   2.155 -0.2627  0.9495  0.2277
  223MOL    H2231546   7.032   1.165   1.994  0.2354 -0.3632 -0.8680
  223MOL    C2331547   7.365   0.872   1.989 -0.3526  0.2035  0.3774
  223MOL    C2431548   7.487   0.929   1.928 -0.7267  0.0666  0.4822
  223MOL    O2531549   7.412   0.775   2.079  0.0669 -0.5195  0.3113
  223MOL    H2631550   7.318   0.810   1.913 -1.7214 -1.1116  2.2274
  223MOL    H2731551   7.549   0.849   1.887 -1.7738 -1.3647  1.6368
  223MOL    H2831552   7.541   0.989   2.001 -1.2031  0.4890  0.4891
  223MOL    H2931553   7.454   0.995   1.847  1.6242  0.4571 -0.1859
  223MOL    C3031554   7.312   0.686   2.114  0.2194 -0.4707 -0.0065
  223MOL    C3131555   7.362   0.554   2.049 -0.5415  0.5928  0.1845
  223MOL    O3231556   7.320   0.655   2.257 -0.7147 -0.1589 -0.2514
  223MOL    H3331557   7.213   0.718   2.084  1.0169  1.0666 -1.0826
  223MOL    H3431558   7.380   0.559   1.942  1.0920  0.8707  0.4521
  223MOL    H3531559   7.284   0.481   2.069  0.2344 -0.4542 -0.4974
  223MOL    H3631560   7.459   0.521   2.087 -1.4770 -0.4735  1.6904
  223MOL    C3731561   7.275   0.770   2.327 -0.3081 -0.4435  0.2717
  223MOL    C3831562   7.133   0.746   2.385 -1.2435  0.0146 -0.5302
  223MOL    O3931563   7.356   0.791   2.444  0.1482 -0.0852  0.5475
  223MOL    H4031564   7.267   0.859   2.265 -1.5135  0.1964  1.3091
  223MOL    H4131565   7.139   0.651   2.437  0.7053 -0.0547 -0.8539
  223MOL    H4231566   7.046   0.758   2.320 -0.9474  2.2523 -0.5749
  223MOL    H4331567   7.119   0.824   2.459 -2.2054 -1.0078  0.3739
  223MOL    C4431568   7.469   0.865   2.405 -0.1329  0.3889 -0.4047
  223MOL    C4531569   7.459   1.003   2.463  0.0170  0.1452 -0.0851
  223MOL    O4631570   7.582   0.803   2.461 -0.3452 -0.4164 -0.4073
  223MOL    H4731571   7.482   0.888   2.299 -2.8829  1.8495 -0.4704
  223MOL    H4831572   7.373   1.058   2.424 -0.1367  0.0902  0.1697
  223MOL    H4931573   7.541   1.067   2.433  0.9948 -1.3700 -0.6925
  223MOL    H5031574   7.445   1.002   2.571 -1.9005 -0.3189 -0.3064
  223MOL    C5131575   7.627   0.690   2.401 -0.1503  0.1855  0.2016
  223MOL    C5231576   7.727   0.742   2.290  0.4100  0.0931  0.0362
  223MOL    O5331577   7.707   0.613   2.489 -0.2779 -0.2628  0.7145
  223MOL    H5431578   7.545   0.634   2.355 -1.3375  0.4679  1.9305
  223MOL    H5531579   7.671   0.790   2.210  0.3675  0.2119  0.1366
  223MOL    H5631580   7.780   0.654   2.254 -0.9654  0.2659 -2.5037
  223MOL    H5731581   7.795   0.811   2.340  1.3505 -2.3654  2.2359
  223MOL    C5831582   7.634   0.548   2.588  0.8161  0.9658  0.2384
  223MOL    C5931583   7.609   0.403   2.540 -0.0889 -0.3435  0.6021
  223MOL    O6031584   7.709   0.541   2.709 -0.0309 -0.0370 -0.2203
  223MOL    H6131585   7.539   0.599   2.607  0.2553 -0.3628  1.1021
  223MOL    H6231586   7.577   0.400   2.436  3.8917 -0.6358 -0.7253
  223MOL    H6331587   7.535   0.363   2.609 -1.0071  0.4211  0.0756
  223MOL    H6431588   7.700   0.344   2.554 -0.1251 -0.7607 -0.7906
  223MOL    C6531589   7.707   0.658   2.783  0.2297  0.2717  0.2960
  223MOL    C6631590   7.588   0.659   2.894  0.5569 -0.8043 -0.3466
  223MOL    O6731591   7.830   0.666   2.850  0.3817 -0.4574 -0.4734
  223MOL    H6831592   7.697   0.751   2.727  1.5426  1.4521  1.9370
  223MOL    H6931593   7.620   0.573   2.953  2.6110  0.2363  0.1217
  223MOL    H7031594   7.495   0.634   2.844  0.8172  0.6019 -1.5897
  223MOL    H7131595   7.597   0.755   2.945 -0.6797 -0.9578  0.1675
  223MOL    C7231596   0.029   0.684   2.775  0.1860  0.2097  0.1954
  223MOL    C7331597   0.088   0.810   2.826  0.7968  0.6956 -0.2188
  223MOL    O7431598   0.127   0.590   2.799  0.2732  0.3212 -0.0525
  223MOL    H7531599   0.006   0.688   2.668 -0.4116 -3.0869  0.1365
  223MOL    H7631600   0.172   0.849   2.768  0.9974  2.3875  1.1814
  223MOL    H7731601   0.121   0.807   2.929 -1.7232  0.5758  0.6190
  223MOL    H7831602   0.005   0.881   2.816  0.5667  0.3121 -1.1207
  223MOL    C7931603   0.093   0.454   2.771 -0.8387  0.2205  0.2635
  223MOL    C8031604   0.156   0.421   2.634  0.3577 -0.4336  0.4070
  223MOL    O8131605   0.146   0.368   2.867 -0.6484  0.2164 -0.0135
  223MOL    H8231606   7.900   0.437   2.761 -0.5394 -1.0307 -0.8149
  223MOL    H8331607   0.143   0.501   2.561  2.3723 -0.2796  0.1809
  223MOL    H8431608   0.122   0.321   2.606  0.8668 -1.3609  2.9928
  223MOL    H8531609   0.260   0.410   2.663  0.1565 -0.1053  1.2681
  223MOL    C8631610   0.070   0.380   2.983 -0.6100  0.0256 -0.8444
  223MOL    C8731611   7.882   0.269   2.986  0.3087 -0.0146 -0.3790
  223MOL    O8831612   0.146   0.372   3.095 -0.1320  0.2013  0.3467
  223MOL    H8931613   0.016   0.474   2.993  0.5419  0.4871  1.2200
  223MOL    H9031614   7.907   0.164   2.996 -0.5045 -0.0941  0.9604
  223MOL    H9131615   7.811   0.273   2.902 -1.5029  0.2147  1.1188
  223MOL    H9231616   7.817   0.293   3.070  0.0534 -1.4607 -0.1645
  223MOL    C9331617   0.229   0.485   3.109 -0.7625 -0.9853  0.2479
  223MOL    C9431618   0.188   0.557   3.242 -0.4430 -0.4628 -0.5796
  223MOL    O9531619   0.366   0.447   3.130 -0.0625  0.5794  0.0307
  223MOL    H9631620   0.239   0.558   3.028 -2.9797  0.7519  1.4777
  223MOL    H9731621   0.195   0.496   3.332  0.9837  1.2537  0.5018
  223MOL    H9831622   0.088   0.596   3.223  0.2558  1.1008 -1.1491
  223MOL    H9931623   0.269   0.627   3.263  0.4107 -1.3054 -0.9907
  223MOL   C10031624   0.420   0.378   3.026  0.1316 -0.8317 -0.2266
  223MOL   C10131625   0.461   0.470   2.917 -0.3100  0.4457 -0.0218
  223MOL   O10231626   0.541   0.325   3.067 -0.0920 -0.6477 -0.2105
  223MOL   H10331627   0.345   0.305   2.997  0.2120 -0.9398 -0.1647
  223MOL   H10431628   0.382   0.523   2.863 -1.9704 -0.8167  1.1212
  223MOL   H10531629   0.526   0.418   2.846 -0.9622 -2.3736  1.3685
  223MOL   H10631630   0.529   0.538   2.969 -0.9773  0.3705  0.9585
  223MOL   C10731631   0.532   0.211   3.153 -0.3198  0.1314 -0.5902
  223MOL   C10831632   0.531   0.087   3.062 -0.2183  0.1030  0.4059
  223MOL   O10931633   0.651   0.195   3.235 -0.4052 -0.0963 -0.7561
  223MOL   H11031634   0.445   0.217   3.218  0.7097  2.2529  0.6638
  223MOL   H11131635   0.441   0.096   3.001 -0.6658 -0.5222  0.9680
  223MOL   H11231636   0.521   7.907   3.116 -0.8438 -0.7100 -1.0878
  223MOL   H11331637   0.617   0.094   2.996 -0.3195 -1.0297  0.1467
  223MOL   C11431638   0.671   0.302   3.321  0.2105 -0.4958  0.5172
  223MOL   C11531639   0.689   0.251   3.463 -0.4360  0.0081  0.2199
  223MOL   O11631640   0.796   0.355   3.288 -0.4341 -0.0497  0.2618
  223MOL   H11731641   0.591   0.375   3.316  1.0937  0.3798 -1.6156
  223MOL   H11831642   0.607   0.180   3.477 -0.1250 -0.6658 -1.3137
  223MOL   H11931643   0.689   0.343   3.521  1.7693  0.8445 -1.0516
  223MOL   H12031644   0.781   0.193   3.458 -0.8807 -0.5725 -1.5386
  223MOL   C12131645   0.782   0.470   3.205 -0.1008 -0.4994  0.5566
  223MOL   C12231646   0.763   0.591   3.301  0.1634 -0.3188 -0.0503
  223MOL   O12331647   0.889   0.495   3.124 -0.8070  0.2490 -0.4954
  223MOL   H12431648   0.696   0.462   3.138  0.5084  0.4847 -0.3625
  223MOL   H12531649   0.841   0.587   3.376  0.6264 -0.5563 -0.5413
  223MOL   H12631650   0.662   0.593   3.343  0.0894  2.7221 -0.2380
  223MOL   H12731651   0.768   0.673   3.229  0.6933 -1.6251 -1.5491
  223MOL   C12831652   0.915   0.389   3.035 -0.5008  0.1986 -0.1661
  223MOL   C12931653   0.897   0.447   2.895 -0.5670 -0.8798  0.1313
  223MOL   O13031654   1.048   0.356   3.044 -0.2982  0.2658  0.3711
  223MOL   H13131655   0.853   0.301   3.047 -0.5543  0.1164 -0.9978
  223MOL   H13231656   0.949   0.543   2.897 -2.0270 -0.0668  4.3265
  223MOL   H13331657   0.793   0.459   2.865 -0.3789  0.7950  0.1151
  223MOL   H13431658   0.950   0.385   2.822 -0.0618 -0.3219  0.0156
  223MOL   C13531659   1.080   0.264   3.144  0.2288  0.3423 -0.1262
  223MOL   C13631660   1.039   0.126   3.088  0.1108 -0.1422  0.4368
  223MOL   O13731661   1.224   0.273   3.157 -0.6124 -0.3442 -0.7724
  223MOL   H13831662   1.050   0.279   3.248  1.0133 -1.9081  0.4419
  223MOL   H13931663   1.050   0.051   3.166 -0.2303 -1.0447 -0.3780
  223MOL   H14031664   1.105   0.094   3.006  1.4728  1.3968  0.8970
  223MOL   H14131665   0.936   0.121   3.055 -0.3670  3.3387  1.1920
  223MOL   H14231666   1.244   0.363   3.174  0.0129 -0.5692 -0.2934
  224MOL     C131667   6.262   1.757   3.313  0.3837  0.7271 -0.0747
  224MOL     C231668   6.146   1.687   3.379 -0.1665  0.3030  0.2250
  224MOL     O331669   6.381   1.722   3.388  0.4955  0.2632  0.6069
  224MOL     H431670   6.244   1.864   3.322  0.0456  0.6577  0.0704
  224MOL     H531671   6.131   1.699   3.486 -2.3570 -1.7356  0.1808
  224MOL     H631672   6.171   1.581   3.367 -1.2758  0.1978 -1.4388
  224MOL     H731673   6.058   1.707   3.319 -0.7329 -2.1071  0.1894
  224MOL     H831674   6.274   1.717   3.212  2.2737  0.8876  0.0655
  224MOL     C931675   6.447   1.606   3.344 -0.1723  0.1932  0.4575
  224MOL    C1031676   6.558   1.661   3.245  0.8368  0.7724 -0.0175
  224MOL    O1131677   6.508   1.531   3.442 -0.4043 -0.0036  0.3248
  224MOL    H1231678   6.378   1.544   3.288  0.0103 -0.2532  0.7271
  224MOL    H1331679   6.620   1.583   3.203 -2.2422 -0.4227 -2.5749
  224MOL    H1431680   6.617   1.735   3.299 -0.5963  3.3699 -1.8363
  224MOL    H1531681   6.507   1.714   3.164  0.6256  2.2528  1.0641
  224MOL    C1631682   6.421   1.497   3.551 -0.6423 -0.3052  0.0040
  224MOL    C1731683   6.344   1.368   3.519  0.1581  0.5968  0.0571
  224MOL    O1831684   6.504   1.464   3.658  0.5340 -0.3624 -0.3393
  224MOL    H1931685   6.357   1.580   3.578 -0.2255  0.3632 -1.0396
  224MOL    H2031686   6.418   1.288   3.508 -2.1954 -1.6265 -0.0443
  224MOL    H2131687   6.309   1.381   3.417 -1.2743 -0.8721  0.3394
  224MOL    H2231688   6.268   1.355   3.596  1.4384 -1.7314  0.9740
  224MOL    C2331689   6.583   1.573   3.698 -0.0500 -0.1820  0.2736
  224MOL    C2431690   6.512   1.626   3.818  1.4885 -0.2354 -0.8250
  224MOL    O2531691   6.709   1.539   3.743  0.1935 -0.0892 -0.0524
  224MOL    H2631692   6.592   1.647   3.619 -1.3231  0.0372  0.3170
  224MOL    H2731693   6.518   1.550   3.896  0.8969  0.3920 -0.1618
  224MOL    H2831694   6.408   1.650   3.794  1.6016 -0.1535 -1.2202
  224MOL    H2931695   6.567   1.714   3.854  0.9109 -0.6417  1.1364
  224MOL    C3031696   6.788   1.497   3.641 -0.3672  0.2914  0.4038
  224MOL    C3131697   6.861   1.618   3.589 -0.4015  0.4840  0.2210
  224MOL    O3231698   6.881   1.403   3.679  0.1446 -0.5630  0.3005
  224MOL    H3331699   6.736   1.449   3.558  2.0062  0.4001 -1.1943
  224MOL    H3431700   6.938   1.579   3.523 -1.3091 -1.9184  0.5615
  224MOL    H3531701   6.909   1.680   3.666 -0.6372  0.7611  0.1467
  224MOL    H3631702   6.800   1.691   3.535  2.2808  3.1521  0.6052
  224MOL    C3731703   6.823   1.288   3.736  0.5105 -0.6407  0.1953
  224MOL    C3831704   6.812   1.177   3.631  0.1211  0.0941  0.3000
  224MOL    O3931705   6.905   1.237   3.830 -0.1570  0.3030 -0.6636
  224MOL    H4031706   6.723   1.305   3.776  1.5365 -1.0883  3.0450
  224MOL    H4131707   6.767   1.086   3.668  1.2150 -0.7425 -0.3960
  224MOL    H4231708   6.905   1.160   3.578 -0.7870 -0.4637 -1.1525
  224MOL    H4331709   6.738   1.207   3.556  0.1642  1.1716  0.6794
  224MOL    C4431710   6.890   1.302   3.957 -0.2533 -0.1446 -0.5042
  224MOL    C4531711   6.777   1.237   4.036 -0.1104  0.3279  0.1861
  224MOL    O4631712   6.998   1.281   4.037  0.1723 -0.1376  0.2063
  224MOL    H4731713   6.879   1.410   3.948 -0.4446 -0.0883  0.3614
  224MOL    H4831714   6.794   1.130   4.050 -0.9311 -0.0505 -1.5088
  224MOL    H4931715   6.675   1.258   4.003  0.8670  1.9771 -1.9229
  224MOL    H5031716   6.766   1.284   4.133  0.8130  0.1691  0.3702
  224MOL    C5131717   7.113   1.351   3.993  0.2993 -0.6265  0.4514
  224MOL    C5231718   7.116   1.492   4.063 -0.4731  0.1800  0.7544
  224MOL    O5331719   7.228   1.287   4.044  0.2944 -0.2995 -0.1822
  224MOL    H5431720   7.116   1.361   3.884  1.7435  0.6103  0.5895
  224MOL    H5531721   7.131   1.480   4.170  0.8191  2.5955  0.8851
  224MOL    H5631722   7.020   1.536   4.040 -1.1900 -1.8762 -0.2980
  224MOL    H5731723   7.197   1.549   4.017 -1.1134  0.7631  0.3400
  224MOL    C5831724   7.246   1.168   3.976  0.8037  0.1068 -0.0479
  224MOL    C5931725   7.363   1.189   3.888  0.4796 -0.5535  0.1799
  224MOL    O6031726   7.284   1.067   4.068 -0.1110 -0.2544 -0.5092
  224MOL    H6131727   7.165   1.135   3.912 -1.8419  0.8610  2.7965
  224MOL    H6231728   7.389   1.097   3.834  1.8071  1.4529 -2.7691
  224MOL    H6331729   7.455   1.231   3.930  0.4457  1.6126 -1.7716
  224MOL    H6431730   7.333   1.255   3.806  0.3881  0.1990  0.8120
  224MOL    C6531731   7.175   1.016   4.141 -0.1053  0.1371  0.1078
  224MOL    C6631732   7.167   0.860   4.117 -0.4405 -0.0067  0.1483
  224MOL    O6731733   7.195   1.035   4.277 -0.2237 -0.3316 -0.1980
  224MOL    H6831734   7.079   1.053   4.106 -1.1081 -1.8871  0.6016
  224MOL    H6931735   7.071   0.817   4.144 -1.3690  0.0665 -2.7777
  224MOL    H7031736   7.241   0.810   4.179 -1.6637 -0.9562  0.8571
  224MOL    H7131737   7.172   0.836   4.011  1.6900 -0.1629  0.2658
  224MOL    C7231738   7.145   1.159   4.327  0.1849  0.2338 -0.1377
  224MOL    C7331739   7.031   1.117   4.416  0.2710  0.0261  0.4714
  224MOL    O7431740   7.229   1.217   4.419 -0.0369 -0.1167  0.2014
  224MOL    H7531741   7.119   1.236   4.254  2.0863  0.8328 -0.2375
  224MOL    H7631742   6.961   1.055   4.360  1.6248 -0.4979 -0.6641
  224MOL    H7731743   6.970   1.202   4.448 -1.8010 -1.5190  0.7257
  224MOL    H7831744   7.067   1.066   4.505  2.9247  0.0110 -0.5651
  224MOL    C7931745   7.354   1.258   4.365  0.0218  0.0517  0.1978
  224MOL    C8031746   7.375   1.402   4.399 -0.5655 -0.2434  0.3041
  224MOL    O8131747   7.453   1.195   4.437 -0.1879 -0.2838 -0.1373
  224MOL    H8231748   7.364   1.245   4.257 -1.0422  0.4388  0.0451
  224MOL    H8331749   7.344   1.422   4.501  0.8098 -0.9193  0.8682
  224MOL    H8431750   7.306   1.456   4.334  1.7235  0.8092 -1.3153
  224MOL    H8531751   7.477   1.438   4.386 -0.9423  1.7669  2.7070
  224MOL    C8631752   7.510   1.086   4.368  0.2260  0.5151  0.1425
  224MOL    C8731753   7.627   1.154   4.291 -0.3006  0.3071 -0.2898
  224MOL    O8831754   7.552   0.989   4.452  0.3212 -0.0842  0.1690
  224MOL    H8931755   7.449   1.041   4.290  3.5602 -1.8250 -1.2663
  224MOL    H9031756   7.580   1.217   4.215 -2.6966  0.5859  1.3644
  224MOL    H9131757   7.677   1.078   4.232 -1.5824 -1.7830  1.2257
  224MOL    H9231758   7.700   1.208   4.351 -1.9998  0.3231  1.8134
  224MOL    C9331759   7.454   0.917   4.524 -0.1958 -0.6831 -0.6243
  224MOL    C9431760   7.459   0.766   4.478  0.4929 -0.0436  0.2992
  224MOL    O9531761   7.486   0.922   4.661 -0.3585 -0.4372  0.2175
  224MOL    H9631762   7.358   0.959   4.493  0.2867  0.9981  0.1223
  224MOL    H9731763   7.471   0.762   4.370  0.9353 -1.4174  0.3873
  224MOL    H9831764   7.371   0.709   4.508  1.5838 -0.7235  2.2905
  224MOL    H9931765   7.553   0.722   4.511  1.9476  1.3507 -1.8875
  224MOL   C10031766   7.421   1.033   4.724 -0.1410 -0.2068 -0.0872
  224MOL   C10131767   7.309   0.970   4.810  0.4037  0.2641 -0.0952
  224MOL   O10231768   7.517   1.088   4.813 -0.2745 -0.5618 -0.0135
  224MOL   H10331769   7.395   1.112   4.655  1.3393  0.5713  0.2212
  224MOL   H10431770   7.345   0.882   4.863  0.2372  0.7945  0.8958
  224MOL   H10531771   7.235   0.948   4.733  1.7776 -1.3291 -0.9931
  224MOL   H10631772   7.273   1.046   4.879  0.8664 -0.1218  0.5812
  224MOL   C10731773   7.608   1.180   4.756  0.2386 -0.5164  0.5922
  224MOL   C10831774   7.549   1.321   4.777 -0.3547 -0.2283  0.0007
  224MOL   O10931775   7.735   1.179   4.812 -0.3661  0.1217  0.0348
  224MOL   H11031776   7.621   1.158   4.650 -1.2126 -1.6151  0.6320
  224MOL   H11131777   7.629   1.395   4.771 -0.2747 -0.3697 -0.7794
  224MOL   H11231778   7.501   1.333   4.874  1.6830 -1.3890  1.1650
  224MOL   H11331779   7.478   1.346   4.698 -0.8669  0.0132  0.5359
  224MOL   C11431780   7.813   1.076   4.771  0.1998  0.0582 -0.4809
  224MOL   C11531781   0.019   1.140   4.701  0.0881  0.1502  0.4994
  224MOL   O11631782   7.861   1.011   4.887 -0.4798  0.2602  0.1521
  224MOL   H11731783   7.765   1.001   4.708  0.2800 -0.8944  0.5864
  224MOL   H11831784   0.094   1.061   4.702 -0.9606 -0.8940 -1.4858
  224MOL   H11931785   0.054   1.230   4.753  2.7383  0.3988 -1.5626
  224MOL   H12031786   0.002   1.183   4.602  1.9083 -1.7120 -0.6615
  224MOL   C12131787   7.778   0.906   4.939 -0.4259 -0.1449  0.0314
  224MOL   C12231788   7.857   0.775   4.928  0.2180  0.0629 -0.1671
  224MOL   O12331789   7.754   0.928   5.074 -0.0932  0.4255 -0.0615
  224MOL   H12431790   7.687   0.902   4.880 -0.2472  1.7698 -0.4130
  224MOL   H12531791   7.865   0.745   4.824 -1.4453  1.0804 -0.6081
  224MOL   H12631792   7.801   0.693   4.972  2.0109 -0.5606  1.0392
  224MOL   H12731793   0.037   0.792   4.981  0.1332  1.0204 -0.3186
  224MOL   C12831794   7.676   1.041   5.103  0.1516 -0.3099  0.2717
  224MOL   C12931795   7.539   0.993   5.157 -0.0290  0.6124  0.1614
  224MOL   O13031796   7.728   1.122   5.206  0.5380  0.7161 -0.0287
  224MOL   H13131797   7.665   1.110   5.019  0.3699 -0.3004  0.2527
  224MOL   H13231798   7.479   0.931   5.091 -0.0093 -1.2556  1.8517
  224MOL   H13331799   7.476   1.079   5.178  1.0198  1.5754 -0.5406
  224MOL   H13431800   7.553   0.933   5.247  1.0083 -1.7321 -1.4861
  224MOL   C13531801   7.826   1.212   5.160  0.2138  0.8903  0.1862
  224MOL   C13631802   7.864   1.304   5.277 -0.4029  0.0606 -0.5636
  224MOL   O13731803   0.029   1.141   5.109 -0.2696  0.0627 -0.2683
  224MOL   H13831804   7.785   1.273   5.079 -1.0352 -1.5634 -1.0775
  224MOL   H13931805   7.776   1.333   5.335  0.5794  1.8616  0.0860
  224MOL   H14031806   0.005   1.392   5.244  1.7100 -0.2655  1.9392
  224MOL   H14131807   0.004   1.254   5.357 -1.5189 -1.1022 -0.5217
  224MOL   H14231808   0.000   1.075   5.048 -0.4454  0.4347 -0.5811
  225MOL     C131809   4.515   1.370   1.162  0.3300 -0.3596  0.1025
  225MOL     C231810   4.633   1.405   1.055  0.0902 -0.3216  0.4058
  225MOL     O331811   4.385   1.372   1.101 -0.1932  0.4973  0.1331
  225MOL     H431812   4.510   1.456   1.229 -2.4339  0.4787 -1.1205
  225MOL     H531813   4.731   1.420   1.100  0.0018  1.3516  0.0842
  225MOL     H631814   4.610   1.504   1.014 -2.4898 -0.0294  2.4152
  225MOL     H731815   4.634   1.335   0.972 -2.5855  0.7606 -0.6281
  225MOL     H831816   4.537   1.287   1.230  2.4061  1.7077  2.0483
  225MOL     C931817   4.355   1.281   0.994  0.1796 -0.1562 -0.2792
  225MOL    C1031818   4.391   1.142   1.045  0.0575 -0.1300  0.7612
  225MOL    O1131819   4.221   1.281   0.958 -0.0194  0.1916  0.3020
  225MOL    H1231820   4.418   1.294   0.906  0.2490  3.2166  0.2021
  225MOL    H1331821   4.386   1.078   0.957  2.0934  0.0814  0.4771
  225MOL    H1431822   4.327   1.103   1.124 -2.2796 -0.6565 -1.3335
  225MOL    H1531823   4.496   1.130   1.074  1.1928  3.0604 -1.7515
  225MOL    C1631824   4.176   1.399   0.897  0.2368  0.7118 -0.2291
  225MOL    C1731825   4.187   1.390   0.749  0.2387  0.1918  0.3006
  225MOL    O1831826   4.044   1.427   0.932  0.5740 -0.4399  0.1135
  225MOL    H1931827   4.229   1.486   0.936 -1.3614  0.3353  2.9225
  225MOL    H2031828   4.143   1.301   0.704  0.1032 -0.1842  1.1743
  225MOL    H2131829   4.294   1.389   0.729  0.0106  0.5899 -1.0116
  225MOL    H2231830   4.145   1.472   0.690  2.6699  1.0419 -0.3373
  225MOL    C2331831   4.020   1.445   1.068 -0.0429  0.1349  0.1935
  225MOL    C2431832   3.926   1.559   1.071  0.7555  0.5026  0.4909
  225MOL    O2531833   3.945   1.344   1.122  0.4215  0.0088 -0.0712
  225MOL    H2631834   4.105   1.483   1.126  0.2129  0.1320 -0.1789
  225MOL    H2731835   3.830   1.522   1.036  0.7045 -0.2129  1.3782
  225MOL    H2831836   3.960   1.637   1.003 -0.4372  0.6559  0.0503
  225MOL    H2931837   3.908   1.586   1.175 -0.9409 -0.5192  0.4855
  225MOL    C3031838   4.020   1.246   1.197  0.5898 -0.2024  0.6083
  225MOL    C3131839   4.014   1.301   1.342  0.5318  0.1215 -0.2801
  225MOL    O3231840   3.955   1.120   1.197  0.3158  0.1487  0.0962
  225MOL    H3331841   4.124   1.238   1.166  1.2556  2.6133  1.9114
  225MOL    H3431842   4.072   1.230   1.402  0.2760 -0.2623 -0.4834
  225MOL    H3531843   3.913   1.300   1.382 -0.7759  1.4877 -3.3389
  225MOL    H3631844   4.048   1.403   1.327 -0.1450  0.3941  0.0127
  225MOL    C3731845   3.946   1.067   1.071  0.3449 -0.4610 -0.0637
  225MOL    C3831846   4.020   0.935   1.091  0.4184  0.5683  0.0264
  225MOL    O3931847   3.813   1.031   1.044 -0.2912 -0.1370  0.3473
  225MOL    H4031848   3.998   1.123   0.993 -1.2833  0.7852 -0.2723
  225MOL    H4131849   4.128   0.952   1.090  0.6627 -0.9651 -0.3567
  225MOL    H4231850   4.005   0.868   1.007  0.9173 -0.5811  0.8485
  225MOL    H4331851   3.993   0.889   1.186 -1.2288  2.1758  0.3632
  225MOL    C4431852   3.743   1.119   0.968  0.0121 -0.6555  0.4258
  225MOL    C4531853   3.738   1.067   0.822 -0.2249  0.1968 -0.5005
  225MOL    O4631854   3.613   1.123   1.014  0.2880  0.6891 -0.0733
  225MOL    H4731855   3.782   1.221   0.965  0.0825 -0.6512  1.3133
  225MOL    H4831856   3.639   1.086   0.779 -0.7911  0.1379  0.7768
  225MOL    H4931857   3.759   0.960   0.823 -0.1187  0.2110 -0.9608
  225MOL    H5031858   3.825   1.112   0.773  0.4559 -1.2022 -0.6098
  225MOL    C5131859   3.605   1.187   1.137  0.0690 -0.7792 -0.3104
  225MOL    C5231860   3.566   1.333   1.104  0.1131  0.7710 -0.5792
  225MOL    O5331861   3.509   1.128   1.221 -0.4915 -0.5048  0.6219
  225MOL    H5431862   3.692   1.185   1.203  0.4192 -0.0780 -0.7473
  225MOL    H5531863   3.505   1.375   1.184 -0.1843  2.0626 -1.4874
  225MOL    H5631864   3.512   1.328   1.010 -2.4447  0.9452  0.8145
  225MOL    H5731865   3.652   1.397   1.088  0.3887  0.1387 -1.7161
  225MOL    C5831866   3.516   0.995   1.238 -0.5733 -0.7150 -0.5522
  225MOL    C5931867   3.592   0.965   1.364  0.6496 -0.3206  0.6994
  225MOL    O6031868   3.390   0.937   1.250  0.0401  0.5307 -0.5073
  225MOL    H6131869   3.573   0.951   1.156  1.9073  0.9312  0.2542
  225MOL    H6231870   3.591   0.857   1.375  2.0685 -0.4727 -0.4282
  225MOL    H6331871   3.553   1.001   1.459  2.4205 -0.1894  1.3944
  225MOL    H6431872   3.692   1.005   1.343  0.2552  1.0933  1.4700
  225MOL    C6531873   3.315   0.938   1.131 -0.3527 -0.0168 -0.1739
  225MOL    C6631874   3.310   0.795   1.093  0.0578  1.1138 -0.1794
  225MOL    O6731875   3.182   0.976   1.155 -0.6388  0.0038  0.0046
  225MOL    H6831876   3.347   0.995   1.043  0.5395 -0.9901 -0.4907
  225MOL    H6931877   3.412   0.760   1.078 -0.6624 -0.2666 -2.0677
  225MOL    H7031878   3.249   0.775   1.005  0.5486  0.8849 -0.4721
  225MOL    H7131879   3.267   0.729   1.169  1.0779 -0.1063 -0.6286
  225MOL    C7231880   3.164   1.109   1.193  0.1515 -0.7700  0.6920
  225MOL    C7331881   3.078   1.163   1.078 -0.0255 -0.5854  0.5411
  225MOL    O7431882   3.081   1.118   1.307 -0.0167  0.1508 -0.0880
  225MOL    H7531883   3.253   1.170   1.204  0.2952 -1.1606  1.7755
  225MOL    H7631884   3.037   1.262   1.095  0.0754 -0.4015 -0.2733
  225MOL    H7731885   2.987   1.108   1.053  0.7690 -0.7374 -2.2722
  225MOL    H7831886   3.136   1.161   0.985  1.5618 -1.3210  1.5145
  225MOL    C7931887   3.154   1.085   1.431  0.2081 -0.0521  0.4107
  225MOL    C8031888   3.200   1.214   1.505  0.5429 -0.6822 -0.3013
  225MOL    O8131889   3.086   1.002   1.522  0.2107 -0.0980  0.5434
  225MOL    H8231890   3.248   1.038   1.404 -0.2580  0.2677 -1.8517
  225MOL    H8331891   3.247   1.196   1.602  0.5388  1.1714  0.0514
  225MOL    H8431892   3.116   1.280   1.528  1.9800  1.4553 -1.0561
  225MOL    H8531893   3.281   1.255   1.446  1.4704 -0.8504  0.8499
  225MOL    C8631894   3.076   0.872   1.488 -0.4684  0.2655  0.3438
  225MOL    C8731895   3.155   0.791   1.588 -0.2315 -0.6205  0.3846
  225MOL    O8831896   2.941   0.833   1.490 -0.3416  0.4341  0.4133
  225MOL    H8931897   3.111   0.854   1.386 -0.9287  0.8738  0.0742
  225MOL    H9031898   3.258   0.819   1.567  0.0556  0.3777  2.9366
  225MOL    H9131899   3.141   0.686   1.563  4.6364 -0.8909 -1.8154
  225MOL    H9231900   3.125   0.806   1.692 -0.3129  0.0022  0.2764
  225MOL    C9331901   2.853   0.871   1.386 -0.4809 -0.3247 -0.0743
  225MOL    C9431902   2.800   0.741   1.324 -0.6131 -0.2534  0.3339
  225MOL    O9531903   2.743   0.937   1.436  0.2721 -1.2169 -0.0608
  225MOL    H9631904   2.900   0.931   1.309  0.5459  0.8529  1.4490
  225MOL    H9731905   2.714   0.762   1.260  1.4104  1.0686 -2.0421
  225MOL    H9831906   2.776   0.664   1.397 -0.5131  1.2606  2.0050
  225MOL    H9931907   2.878   0.702   1.258 -1.7211 -3.0192  0.6109
  225MOL   C10031908   2.772   1.064   1.492  0.6483  0.4115 -0.5943
  225MOL   C10131909   2.743   1.172   1.384 -0.1823 -0.3449 -0.4006
  225MOL   O10231910   2.687   1.077   1.598  0.1847 -0.1644  0.2901
  225MOL   H10331911   2.875   1.080   1.523  0.5230  1.2455 -0.6190
  225MOL   H10431912   2.649   1.141   1.339 -0.2489  0.9877 -1.2219
  225MOL   H10531913   2.822   1.191   1.311 -1.4553  0.5683 -1.5616
  225MOL   H10631914   2.728   1.273   1.423  1.1105  0.8290 -2.7852
  225MOL   C10731915   2.747   1.028   1.721  0.6164 -0.2444 -0.2191
  225MOL   C10831916   2.773   1.146   1.805 -0.3091  0.2857  0.7673
  225MOL   O10931917   2.658   0.939   1.789 -0.1634  0.1659  0.5868
  225MOL   H11031918   2.841   0.974   1.708  0.0802 -0.6580 -2.5851
  225MOL   H11131919   2.677   1.183   1.841 -0.7147 -0.5519  0.5310
  225MOL   H11231920   2.825   1.218   1.741 -0.8822 -0.0161 -0.0336
  225MOL   H11331921   2.830   1.119   1.894  1.7649 -0.7640 -0.8266
  225MOL   C11431922   2.664   0.807   1.734  0.5250  0.4707  0.2153
  225MOL   C11531923   2.777   0.736   1.808 -0.0008 -0.9762 -0.5001
  225MOL   O11631924   2.540   0.741   1.754 -0.0820  0.1158 -0.2153
  225MOL   H11731925   2.677   0.801   1.626 -0.0347 -0.3619  0.1897
  225MOL   H11831926   2.745   0.730   1.912  2.4393 -0.6339  0.3020
  225MOL   H11931927   2.874   0.786   1.802 -1.0829  1.1389 -1.0794
  225MOL   H12031928   2.780   0.631   1.779 -3.0606 -1.0026 -0.8300
  225MOL   C12131929   2.426   0.818   1.718  0.0713  0.0419  0.2953
  225MOL   C12231930   2.415   0.807   1.563 -0.6991 -0.1942  1.0476
  225MOL   O12331931   2.315   0.771   1.778 -0.4589  0.3134  0.1769
  225MOL   H12431932   2.432   0.923   1.747  2.9272 -0.0247  0.0788
  225MOL   H12531933   2.427   0.706   1.524 -3.4102 -0.7138  1.4561
  225MOL   H12631934   2.498   0.861   1.517 -0.5769 -1.4357 -0.2338
  225MOL   H12731935   2.323   0.848   1.523 -0.5159 -2.6838 -2.1627
  225MOL   C12831936   2.321   0.755   1.915 -0.4102  0.4050  0.5425
  225MOL   C12931937   2.362   0.887   1.983  0.5463 -0.7266  0.2139
  225MOL   O13031938   2.191   0.725   1.963 -0.2605  0.2644  0.0326
  225MOL   H13131939   2.398   0.682   1.937  1.0228  1.5498 -0.5497
  225MOL   H13231940   2.468   0.905   1.969  0.5464 -0.8287  0.0763
  225MOL   H13331941   2.348   0.880   2.091 -0.0598  2.7950  0.4463
  225MOL   H13431942   2.301   0.967   1.939  1.1003 -0.2282  0.3470
  225MOL   C13531943   2.132   0.608   1.910 -0.4838 -0.4416 -0.1178
  225MOL   C13631944   2.201   0.477   1.947  0.0176  0.3037  0.2611
  225MOL   O13731945   2.000   0.606   1.956 -0.5053 -0.2812  0.1728
  225MOL   H13831946   2.124   0.620   1.802  1.7688  0.4065 -0.2209
  225MOL   H13931947   2.175   0.443   2.048  0.4749 -0.2988  0.1849
  225MOL   H14031948   2.310   0.483   1.937 -0.0864  2.0308  0.1016
  225MOL   H14131949   2.172   0.390   1.888  1.8152  1.0027 -1.6880
  225MOL   H14231950   1.964   0.688   1.925 -0.6966  0.2138  1.6797
  226MOL     C131951   5.820   7.695   7.564  0.1575  0.2560 -0.2247
  226MOL     C231952   5.762   7.658   7.428 -0.6069  0.4482 -0.7443
  226MOL     O331953   5.900   7.584   7.616 -0.1205 -0.0033  0.5993
  226MOL     H431954   5.737   7.723   7.628 -0.6032 -1.0282 -0.6256
  226MOL     H531955   5.736   7.553   7.434 -0.3187  0.2480 -2.7500
  226MOL     H631956   5.840   7.677   7.354  2.2521 -1.5039  1.6386
  226MOL     H731957   5.672   7.718   7.416 -1.7221 -1.1869 -0.7049
  226MOL     H831958   5.884   7.784   7.562  0.6398 -0.0358  1.5619
  226MOL     C931959   5.955   7.605   7.749  0.3843  0.2243  0.8636
  226MOL    C1031960   5.877   7.527   7.852  0.2476 -0.1144  0.6444
  226MOL    O1131961   6.094   7.560   7.757 -0.2518  0.1739  0.1969
  226MOL    H1231962   5.946   7.712   7.770 -0.9536  0.3697 -0.3937
  226MOL    H1331963   5.922   7.536   0.037 -0.9498 -0.3749  1.2205
  226MOL    H1431964   5.872   7.420   7.832  1.6068 -0.9667  4.4071
  226MOL    H1531965   5.771   7.553   7.855 -0.8322 -4.0835 -0.6805
  226MOL    C1631966   6.184   7.647   7.693  0.0226 -0.0387 -0.5721
  226MOL    C1731967   6.263   7.709   7.804  0.1266 -0.2228 -0.0168
  226MOL    O1831968   6.273   7.586   7.602  0.5690  0.0047 -0.3351
  226MOL    H1931969   6.128   7.724   7.641 -0.4283  1.6734  2.3298
  226MOL    H2031970   6.327   7.788   7.763  1.9972 -1.5911  0.1634
  226MOL    H2131971   6.329   7.632   7.846 -0.1915  0.6337  2.0957
  226MOL    H2231972   6.198   7.735   7.887  0.3018 -2.1948  0.7677
  226MOL    C2331973   6.213   7.555   7.480 -0.1799 -0.0525 -0.0867
  226MOL    C2431974   6.262   7.636   7.358  0.3302  0.3247 -0.4704
  226MOL    O2531975   6.229   7.421   7.452  0.3971  0.2683  1.0236
  226MOL    H2631976   6.105   7.573   7.481  0.0519  1.3976 -0.4513
  226MOL    H2731977   6.231   7.740   7.366 -1.7553  0.0135 -3.6795
  226MOL    H2831978   6.213   7.592   7.272 -1.8650  1.3442  0.2256
  226MOL    H2931979   6.370   7.622   7.362  0.4583  1.6657  1.7805
  226MOL    C3031980   6.149   7.329   7.529  0.3070  0.5683 -0.6599
  226MOL    C3131981   6.066   7.238   7.440  0.1762 -0.2146  0.1263
  226MOL    O3231982   6.240   7.242   7.590 -0.9613  0.0869  0.6387
  226MOL    H3331983   6.094   7.391   7.599 -3.3348 -1.1395 -1.8739
  226MOL    H3431984   6.003   7.173   7.501  0.8178 -0.8432  0.1329
  226MOL    H3531985   6.133   7.175   7.382 -0.2383  0.6010 -1.2668
  226MOL    H3631986   6.006   7.298   7.371  0.5725 -0.0442 -0.0687
  226MOL    C3731987   6.287   7.293   7.716  0.4715  0.3986  0.2689
  226MOL    C3831988   6.211   7.222   7.834  0.2942  0.5451  0.8043
  226MOL    O3931989   6.422   7.257   7.738 -0.2616 -0.5055 -0.2523
  226MOL    H4031990   6.288   7.401   7.729 -0.3686  0.2216  1.9201
  226MOL    H4131991   6.269   7.238   0.011 -0.1772 -1.7632  1.5380
  226MOL    H4231992   6.195   7.117   7.809  1.4135  0.6612 -0.4504
  226MOL    H4331993   6.110   7.261   7.849 -0.4433 -0.4240 -1.4077
  226MOL    C4431994   6.515   7.341   7.670  0.7778  0.2749 -0.5179
  226MOL    C4531995   6.588   7.438   7.764  0.9432  0.5254  0.2787
  226MOL    O4631996   6.612   7.259   7.616  0.0486  0.2829  0.3937
  226MOL    H4731997   6.470   7.403   7.593 -0.1561 -0.4792 -0.5967
  226MOL    H4831998   6.523   7.512   7.811 -0.4001 -0.9068  0.6890
  226MOL    H4931999   6.655   7.495   7.700 -1.6072  2.1660 -1.0095
  226MOL    H5032000   6.651   7.389   7.838  2.6523  0.3694 -1.2269
  226MOL    C5132001   6.576   7.210   7.487  0.4397  0.7002  0.0105
  226MOL    C5232002   6.646   7.285   7.372  0.1578  0.7387 -0.6187
  226MOL    O5332003   6.606   7.076   7.467 -0.2319  0.7070 -0.0260
  226MOL    H5432004   6.469   7.225   7.473  0.4608 -0.7814 -1.8753
  226MOL    H5532005   6.605   7.247   7.279 -0.6060 -1.9519  0.7944
  226MOL    H5632006   6.754   7.272   7.365  0.2228 -0.0362  1.5259
  226MOL    H5732007   6.615   7.390   7.374 -0.3397  0.5858 -0.3923
  226MOL    C5832008   6.506   6.994   7.521  0.3113 -1.1994  0.8003
  226MOL    C5932009   6.451   6.929   7.400  0.6178 -0.0954  0.4744
  226MOL    O6032010   6.563   6.897   7.600 -0.4253 -0.5475 -0.1087
  226MOL    H6132011   6.428   7.045   7.577  0.2139 -0.4420 -0.0214
  226MOL    H6232012   6.400   7.012   7.350  0.1019 -0.9700 -0.4716
  226MOL    H6332013   6.382   6.851   7.432 -1.4755  0.6271 -2.0599
  226MOL    H6432014   6.531   6.892   7.336 -0.2363 -3.1181  1.0427
  226MOL    C6532015   6.611   6.949   7.723  0.0538  0.1190  0.5395
  226MOL    C6632016   6.493   6.933   7.815 -0.0415  0.7363 -0.4195
  226MOL    O6732017   6.710   6.869   7.777  0.4024  0.3577 -0.4422
  226MOL    H6832018   6.646   7.052   7.711 -0.8467  0.2791 -0.8962
  226MOL    H6932019   6.522   6.956   0.004 -2.3805  2.7235 -0.1556
  226MOL    H7032020   6.463   6.828   7.812 -0.6079  0.9007 -0.4862
  226MOL    H7132021   6.404   6.989   7.786  0.7533  1.4507 -1.5018
  226MOL    C7232022   6.835   6.897   7.715 -0.0806 -0.4394  0.0198
  226MOL    C7332023   6.901   7.000   7.812  0.6781 -0.3433 -0.5044
  226MOL    O7432024   6.919   6.792   7.733  0.0137  0.1401 -0.6463
  226MOL    H7532025   6.835   6.929   7.610 -2.6517  0.0816  0.1417
  226MOL    H7632026   7.004   7.017   7.782  0.4843 -2.0782 -2.2612
  226MOL    H7732027   6.875   6.963   7.911  0.0943 -0.2825 -0.6299
  226MOL    H7832028   6.840   7.088   7.791 -1.2147 -1.8113 -1.2711
  226MOL    C7932029   6.893   6.689   7.647 -0.0435 -0.3415 -0.6035
  226MOL    C8032030   7.019   6.679   7.545 -0.0142 -0.1907 -0.1294
  226MOL    O8132031   6.892   6.569   7.714  0.2494 -0.2253  0.4154
  226MOL    H8232032   6.806   6.697   7.582 -0.8189 -4.2672 -0.1973
  226MOL    H8332033   7.120   6.656   7.578  0.7650  2.1422 -0.8108
  226MOL    H8432034   7.036   6.773   7.492  2.8071 -1.8702 -2.3592
  226MOL    H8532035   6.985   6.617   7.462  0.2136 -0.6065  0.0890
  226MOL    C8632036   6.762   6.553   7.762  0.2475  0.0695 -0.6633
  226MOL    C8732037   6.691   6.449   7.674 -0.4864  0.3699 -0.0151
  226MOL    O8832038   6.749   6.504   7.896 -0.0166 -0.7528 -0.9295
  226MOL    H8932039   6.701   6.644   7.759  1.5807  1.0492  0.9968
  226MOL    H9032040   6.608   6.402   7.728  0.1707  1.1518  1.7304
  226MOL    H9132041   6.758   6.369   7.642  0.5309  0.8649  0.8383
  226MOL    H9232042   6.656   6.504   7.587 -0.5578 -2.1792 -1.6360
  226MOL    C9332043   6.780   6.595   0.080  0.3874  0.1163 -0.4179
  226MOL    C9432044   6.651   6.660   0.125 -0.6235 -1.0942  0.0292
  226MOL    O9532045   6.827   6.519   0.194  0.4739  0.3104 -0.5385
  226MOL    H9632046   6.867   6.655   0.050  1.6031 -0.6219  1.5370
  226MOL    H9732047   6.574   6.587   0.147 -2.9093  1.1337 -0.2749
  226MOL    H9832048   6.631   6.734   0.047  2.8048 -1.0532 -0.8697
  226MOL    H9932049   6.676   6.720   0.213 -1.6529  0.5644 -0.7662
  226MOL   C10032050   6.928   6.429   0.168 -0.0370  0.1386  0.4066
  226MOL   C10132051   7.073   6.487   0.162  0.5630 -0.3564  0.5782
  226MOL   O10232052   6.930   6.323   0.260  0.0861  0.0375 -0.0923
  226MOL   H10332053   6.921   6.385   0.068 -0.0428  0.6637  0.1724
  226MOL   H10432054   7.073   6.570   0.092  0.3151 -0.6764  0.2032
  226MOL   H10532055   7.140   6.404   0.140  0.2147  0.1335 -2.4709
  226MOL   H10632056   7.109   6.539   0.251  1.3442 -0.4840  0.3438
  226MOL   C10732057   6.816   6.242   0.252 -0.2010  0.2485 -0.0459
  226MOL   C10832058   6.832   6.129   0.156  0.4634 -0.0431  0.8613
  226MOL   O10932059   6.790   6.194   0.379  0.0408  0.6914  0.1858
  226MOL   H11032060   6.734   6.307   0.223 -0.8692 -0.2629  0.6478
  226MOL   H11132061   6.795   6.147   0.055  1.3695 -3.8941 -0.2482
  226MOL   H11232062   6.769   6.047   0.190 -0.1251  0.7305  1.6341
  226MOL   H11332063   6.933   6.087   0.162 -0.3257 -2.4279 -1.3912
  226MOL   C11432064   6.772   6.289   0.482  0.7297 -0.5606  0.1273
  226MOL   C11532065   6.617   6.295   0.514 -0.0018  0.4666 -0.1996
  226MOL   O11632066   6.840   6.244   0.598  0.2711 -0.3773  0.1562
  226MOL   H11732067   6.810   6.388   0.457  1.5648 -1.3992 -2.0873
  226MOL   H11832068   6.571   6.198   0.526 -1.0785  0.9231 -0.5624
  226MOL   H11932069   6.563   6.344   0.432 -0.5385  2.0364  1.0605
  226MOL   H12032070   6.595   6.356   0.602 -2.6083 -1.0470  0.2400
  226MOL   C12132071   6.981   6.249   0.581 -0.4151  1.1421 -0.5707
  226MOL   C12232072   7.041   6.372   0.642 -0.1094  0.4523  0.1206
  226MOL   O12332073   7.031   6.140   0.647 -0.0153 -0.0790  0.2106
  226MOL   H12432074   7.018   6.241   0.479  0.9252 -1.8170  0.0806
  226MOL   H12532075   7.060   6.366   0.750  1.6093  0.5737 -0.1587
  226MOL   H12632076   6.983   6.460   0.616 -0.8626 -0.4705 -1.3738
  226MOL   H12732077   7.146   6.374   0.613  0.3466 -0.5792  1.6284
  226MOL   C12832078   7.039   6.028   0.568  0.4599  0.3008 -0.6242
  226MOL   C12932079   7.189   5.982   0.560 -0.1617  0.7305  0.6229
  226MOL   O13032080   6.971   5.929   0.635  0.3033  0.3190  0.5501
  226MOL   H13132081   7.005   6.039   0.465  1.4006  0.1588 -0.9515
  226MOL   H13232082   7.235   5.960   0.656  0.0727  2.3976  0.9114
  226MOL   H13332083   7.249   6.060   0.514 -1.3578  0.3490 -1.6760
  226MOL   H13432084   7.204   5.901   0.488  0.0491  1.3606 -0.0465
  226MOL   C13532085   6.828   5.932   0.632 -0.7204 -0.6177  0.0719
  226MOL   C13632086   6.777   5.790   0.662 -0.2257 -0.1009  0.3017
  226MOL   O13732087   6.775   6.017   0.727  0.2610 -0.0458  0.0288
  226MOL   H13832088   6.791   5.968   0.536  1.5265  1.7359  0.0257
  226MOL   H13932089   6.805   5.718   0.585  0.1643  1.7122 -1.2739
  226MOL   H14032090   6.669   5.780   0.656 -0.0791 -1.5198 -0.2037
  226MOL   H14132091   6.802   5.766   0.765  1.7477  1.7255  0.2787
  226MOL   H14232092   6.786   6.105   0.696  0.8610 -0.1696 -0.1230
  227MOL     C132093   4.342   3.152   4.646 -0.0294  0.2746  0.4815
  227MOL     C232094   4.458   3.208   4.579  0.6576 -0.2578  0.6201
  227MOL     O332095   4.241   3.142   4.544 -0.2624  0.3548  0.0658
  227MOL     H432096   4.311   3.211   4.733 -2.7184 -1.5181  0.8130
  227MOL     H532097   4.545   3.209   4.643  2.1420 -3.6247 -1.2017
  227MOL     H632098   4.440   3.309   4.541 -1.4135 -0.6479  0.4952
  227MOL     H732099   4.488   3.134   4.505 -0.5658 -1.1700  1.0259
  227MOL     H832100   4.377   3.054   4.677 -0.5966  0.2277  0.9991
  227MOL     C932101   4.110   3.106   4.590  0.1757  0.2015  0.3138
  227MOL    C1032102   4.112   2.981   4.683 -0.4059 -0.2775 -1.6975
  227MOL    O1132103   4.038   3.204   4.653  0.7246 -0.0005 -0.5064
  227MOL    H1232104   4.057   3.073   4.500  1.4826 -0.4846 -0.2176
  227MOL    H1332105   4.191   2.914   4.648  0.6170 -0.3504  0.6931
  227MOL    H1432106   4.010   2.943   4.680 -0.3945 -0.5227  0.3827
  227MOL    H1532107   4.145   3.003   4.784 -0.6709  0.1246 -1.6958
  227MOL    C1632108   3.975   3.284   4.562  0.3641 -0.0429  0.0343
  227MOL    C1732109   3.822   3.265   4.565  0.1735 -0.7246  0.0883
  227MOL    O1832110   3.986   3.414   4.594  1.2789 -0.0725 -0.2033
  227MOL    H1932111   4.009   3.280   4.459 -1.3229 -1.0894 -0.5001
  227MOL    H2032112   3.788   3.287   4.667 -0.5416 -1.4874  0.0230
  227MOL    H2132113   3.786   3.166   4.537  1.1335  0.2689 -4.9953
  227MOL    H2232114   3.783   3.341   4.499 -0.9747 -0.4288  1.0759
  227MOL    C2332115   4.109   3.464   4.573  0.1293 -0.2965 -0.5310
  227MOL    C2432116   4.115   3.544   4.440 -0.4105  0.3026  0.2236
  227MOL    O2532117   4.152   3.561   4.678  0.6104  0.5070 -0.4055
  227MOL    H2632118   4.192   3.394   4.564  0.9295  0.7496 -1.6302
  227MOL    H2732119   4.131   3.477   4.356 -2.8681  1.1076 -0.9426
  227MOL    H2832120   4.190   3.623   4.441  0.9842 -0.8976 -2.7456
  227MOL    H2932121   4.025   3.606   4.432  0.7187  1.9300 -0.0370
  227MOL    C3032122   4.171   3.506   4.798  0.6042  0.0721  0.0407
  227MOL    C3132123   4.322   3.520   4.827 -0.5645  0.1109 -0.9209
  227MOL    O3232124   4.091   3.569   4.892  0.0492  0.1720 -0.5170
  227MOL    H3332125   4.149   3.399   4.791  2.5132 -0.3714  0.3231
  227MOL    H3432126   4.384   3.460   4.760 -1.2075 -1.3480 -0.2203
  227MOL    H3532127   4.344   3.463   4.917 -1.6007  1.1754  0.0104
  227MOL    H3632128   4.348   3.625   4.836 -2.0437  0.2971  1.5077
  227MOL    C3732129   3.961   3.538   4.896 -0.1677  0.2298  0.6332
  227MOL    C3832130   3.938   3.460   5.023 -0.5975 -0.0403 -0.2860
  227MOL    O3932131   3.877   3.651   4.899  0.4258  0.1900 -0.5119
  227MOL    H4032132   3.936   3.477   4.809  2.6158  3.0453 -2.2770
  227MOL    H4132133   3.832   3.435   5.033 -0.5590  0.2753  0.9361
  227MOL    H4232134   3.971   3.522   5.106 -0.6688  1.1219 -1.1085
  227MOL    H4332135   3.998   3.369   5.019  0.8853  0.9726 -1.3927
  227MOL    C4432136   3.861   3.724   4.779  0.4448 -0.6056 -0.6218
  227MOL    C4532137   3.715   3.727   4.742 -0.6893 -0.0167  0.2068
  227MOL    O4632138   3.902   3.858   4.792  0.0348 -0.4921  0.4310
  227MOL    H4732139   3.914   3.692   4.689  3.5492  1.5469  0.3404
  227MOL    H4832140   3.653   3.748   4.829 -0.1239  0.4683  0.4989
  227MOL    H4932141   3.682   3.629   4.708  0.7857 -0.8209  1.0839
  227MOL    H5032142   3.698   3.801   4.663 -0.1932 -0.8906 -0.7326
  227MOL    C5132143   4.040   3.874   4.802 -0.3374 -0.3653  0.3951
  227MOL    C5232144   4.081   3.963   4.684 -0.8351  0.2118  0.0900
  227MOL    O5332145   4.084   3.939   4.918  0.1284  0.0802 -0.4255
  227MOL    H5432146   4.091   3.778   4.793 -0.6426 -0.4177 -0.7907
  227MOL    H5532147   4.034   4.061   4.689 -1.5930 -0.2144  1.4629
  227MOL    H5632148   4.068   3.902   4.594 -0.3503 -1.7998  1.3614
  227MOL    H5732149   4.189   3.978   4.689 -0.8959  0.4582  0.6983
  227MOL    C5832150   4.063   3.868   5.033  0.1317 -0.0540  0.6200
  227MOL    C5932151   4.205   3.842   5.097  0.8184 -0.1005 -0.2185
  227MOL    O6032152   3.986   3.935   5.124  0.4840 -0.0849 -0.4707
  227MOL    H6132153   4.009   3.775   5.014 -2.0226  1.9864 -3.9816
  227MOL    H6232154   4.275   3.807   5.021 -0.4050 -0.3752 -1.2265
  227MOL    H6332155   4.200   3.763   5.172  1.1517 -0.3919 -0.4997
  227MOL    H6432156   4.244   3.940   5.127  0.9097 -0.2102  0.0200
  227MOL    C6532157   3.848   3.925   5.107 -0.0452 -1.2363 -0.2421
  227MOL    C6632158   3.795   3.869   5.240  0.2139  0.6235  0.1908
  227MOL    O6732159   3.783   4.050   5.095  0.3033  0.1064  0.6126
  227MOL    H6832160   3.824   3.854   5.029 -1.0055 -1.8215  0.5760
  227MOL    H6932161   3.690   3.842   5.229  0.4466  0.0719 -0.7730
  227MOL    H7032162   3.810   3.936   5.325  0.4011 -0.2340  0.8376
  227MOL    H7132163   3.847   3.776   5.261 -1.2999  0.0611  1.5254
  227MOL    C7232164   3.789   4.113   4.963 -0.1045 -0.5308  0.0297
  227MOL    C7332165   3.638   4.133   4.921 -0.0824 -0.4358 -0.1279
  227MOL    O7432166   3.835   4.242   4.989  0.1417  0.2397 -0.2880
  227MOL    H7532167   3.854   4.059   4.895  0.2945  0.5029 -0.4165
  227MOL    H7632168   3.586   4.204   4.986 -0.1840  0.6178 -1.3285
  227MOL    H7732169   3.588   4.037   4.912 -0.0714 -0.7058  2.2895
  227MOL    H7832170   3.644   4.194   4.831  0.1795  1.3495  1.0640
  227MOL    C7932171   3.972   4.249   5.011 -0.5687  0.0554  0.4791
  227MOL    C8032172   4.055   4.305   4.895 -0.1175 -0.4398 -0.0063
  227MOL    O8132173   3.993   4.330   5.119 -0.2597 -0.2892 -0.3547
  227MOL    H8232174   4.020   4.154   5.033  1.4179  0.9745  0.1841
  227MOL    H8332175   4.028   4.408   4.870 -0.1718 -0.4273  0.1042
  227MOL    H8432176   4.018   4.256   4.805 -4.0175  0.9908  0.7576
  227MOL    H8532177   4.163   4.293   4.903 -0.1939 -0.1300  1.6715
  227MOL    C8632178   3.963   4.273   5.243  0.3978  0.0828 -0.3811
  227MOL    C8732179   4.102   4.289   5.311  0.5160 -0.5275  0.5049
  227MOL    O8832180   3.874   4.361   5.315  0.7429 -0.1958 -0.2745
  227MOL    H8932181   3.927   4.170   5.241 -0.4607  0.3236  1.3537
  227MOL    H9032182   4.131   4.393   5.327 -1.5178  0.1785 -0.2368
  227MOL    H9132183   4.172   4.250   5.237  2.5106 -2.0839  3.1646
  227MOL    H9232184   4.105   4.234   5.405  1.7180 -0.8340  0.2889
  227MOL    C9332185   3.736   4.329   5.307  0.3464 -0.1418  0.1255
  227MOL    C9432186   3.697   4.264   5.448 -0.2296 -0.1903 -0.0170
  227MOL    O9532187   3.664   4.440   5.279  0.1361 -0.0223 -0.9602
  227MOL    H9632188   3.715   4.261   5.225 -0.2237  0.9311 -0.6270
  227MOL    H9732189   3.780   4.199   5.476 -0.8897 -0.5912  1.0226
  227MOL    H9832190   3.603   4.210   5.447 -0.2755 -0.1036 -1.4927
  227MOL    H9932191   3.697   4.341   5.525 -1.5827  0.2450 -0.4543
  227MOL   C10032192   3.685   4.495   5.151  0.1634  0.7188 -0.9578
  227MOL   C10132193   3.555   4.472   5.069  0.2130  0.2457 -0.4048
  227MOL   O10232194   3.699   4.633   5.153  0.2228  0.3780 -0.9433
  227MOL   H10332195   3.764   4.448   5.093  1.1009 -0.5766  1.3056
  227MOL   H10432196   3.507   4.375   5.082 -1.7375  1.1537 -0.6543
  227MOL   H10532197   3.581   4.494   4.965 -0.5163  1.8785 -0.2443
  227MOL   H10632198   3.482   4.545   5.103  0.0650  0.0407 -0.2834
  227MOL   C10732199   3.826   4.669   5.189  0.2686 -0.1762 -0.3818
  227MOL   C10832200   3.885   4.725   5.065  0.3626 -0.8375  0.1071
  227MOL   O10932201   3.832   4.758   5.294 -0.3858  0.0702  0.0554
  227MOL   H11032202   3.884   4.585   5.228  0.1219  0.6950  1.7727
  227MOL   H11132203   3.986   4.747   5.099  0.6165 -0.3235 -0.9600
  227MOL   H11232204   3.821   4.806   5.029  0.9667 -0.7433 -0.7677
  227MOL   H11332205   3.884   4.647   4.989 -0.3836 -1.4239  0.7131
  227MOL   C11432206   3.788   4.710   5.417  0.0915  0.9869  0.0277
  227MOL   C11532207   3.899   4.716   5.526 -0.0878 -0.4475  0.2375
  227MOL   O11632208   3.691   4.796   5.467  0.1318 -0.3731  0.1932
  227MOL   H11732209   3.754   4.608   5.397 -0.2738  0.4991  2.9039
  227MOL   H11832210   3.912   4.822   5.547 -0.8203 -0.1071 -0.9571
  227MOL   H11932211   3.992   4.668   5.497 -0.0966  0.6264 -1.6689
  227MOL   H12032212   3.868   4.658   5.613 -0.4825 -2.0886 -0.9701
  227MOL   C12132213   3.563   4.768   5.428  0.2554  0.3260  0.0916
  227MOL   C12232214   3.511   4.655   5.522  0.9155  0.1776  0.2856
  227MOL   O12332215   3.480   4.876   5.459  0.4819  0.1484  0.4994
  227MOL   H12432216   3.566   4.735   5.324  0.7693 -0.5579  0.3802
  227MOL   H12532217   3.410   4.632   5.489  1.5265 -2.3888  0.0739
  227MOL   H12632218   3.517   4.680   5.628  2.6450 -0.9684  0.4725
  227MOL   H12732219   3.560   4.560   5.500 -1.0867 -0.4778 -1.5436
  227MOL   C12832220   3.512   4.991   5.375 -0.1730  0.4208 -0.5700
  227MOL   C12932221   3.410   5.008   5.268  0.6479 -0.3274 -0.1043
  227MOL   O13032222   3.515   5.112   5.458 -0.2137 -0.0132  0.2972
  227MOL   H13132223   3.606   4.976   5.323 -0.5820  0.9276 -1.4650
  227MOL   H13232224   3.407   4.920   5.203  3.2327 -0.4520 -0.1110
  227MOL   H13332225   3.434   5.097   5.210  2.4837 -1.1125 -0.5806
  227MOL   H13432226   3.314   5.021   5.318  0.5730  0.6660 -0.4992
  227MOL   C13532227   3.646   5.124   5.517 -0.4972 -0.4492  0.5069
  227MOL   C13632228   3.755   5.170   5.418 -0.6024  0.0294 -0.3732
  227MOL   O13732229   3.635   5.213   5.621 -0.2919 -0.6448 -0.3795
  227MOL   H13832230   3.671   5.029   5.564  2.5012  1.5542  3.1783
  227MOL   H13932231   3.855   5.176   5.462 -1.9768  3.6025  2.5168
  227MOL   H14032232   3.719   5.265   5.379  1.9156  1.8860  1.6045
  227MOL   H14132233   3.770   5.113   5.326 -1.4987  1.8589 -1.6837
  227MOL   H14232234   3.551   5.196   5.662 -0.8123  3.2725  0.4562
  228MOL     C132235   7.476   0.138   0.542  0.5253 -0.3478  0.2238
  228MOL     C232236   7.360   0.240   0.552 -0.9469  0.2864 -0.7813
  228MOL     O332237   7.500   0.061   0.658  0.2485 -0.2368  0.3459
  228MOL     H432238   7.568   0.179   0.499 -0.2460  0.4886 -0.6668
  228MOL     H532239   7.275   0.187   0.597  1.0218 -0.5022  2.1577
  228MOL     H632240   7.345   0.283   0.453 -3.2767 -0.1561 -0.6571
  228MOL     H732241   7.390   0.318   0.622  1.1474 -1.0254 -0.1709
  228MOL     H832242   7.441   0.058   0.477  1.6937 -0.8480  0.1940
  228MOL     C932243   7.623   0.090   0.726  0.1994 -0.4464  0.1484
  228MOL    C1032244   7.591   0.040   0.860  0.5935  0.2358  0.4693
  228MOL    O1132245   7.725   0.008   0.675  0.4742  0.1871  0.0645
  228MOL    H1232246   7.656   0.193   0.717 -0.1441 -0.4748 -1.4213
  228MOL    H1332247   7.678   0.023   0.923 -0.1077 -0.3424  1.3077
  228MOL    H1432248   7.518   7.873   0.857 -1.3180  1.9028  0.3207
  228MOL    H1532249   7.533   0.125   0.897 -0.3744 -0.6556  1.0442
  228MOL    C1632250   7.850   0.068   0.675 -0.0954 -0.0450 -0.2842
  228MOL    C1732251   0.026   7.861   0.649  0.2139 -1.2443 -0.2284
  228MOL    O1832252   7.865   0.159   0.573  0.3814  0.4089 -0.2075
  228MOL    H1932253   7.863   0.108   0.776 -1.2111  1.6948 -0.8300
  228MOL    H2032254   7.902   7.785   0.581 -3.6209 -2.1292  2.7389
  228MOL    H2132255   0.054   7.815   0.744 -1.1999 -2.2148 -0.2676
  228MOL    H2232256   0.121   7.901   0.614 -0.9935  1.1388 -0.8701
  228MOL    C2332257   0.020   0.272   0.617  0.1322 -0.5335 -0.4993
  228MOL    C2432258   0.075   0.336   0.488 -0.3605 -0.2473  0.0275
  228MOL    O2532259   7.841   0.363   0.668 -0.5233  0.0138  0.1246
  228MOL    H2632260   0.101   0.256   0.687 -0.3579  1.2483  0.5013
  228MOL    H2732261   0.140   0.271   0.430  0.9720 -0.4280  1.7007
  228MOL    H2832262   0.120   0.429   0.523 -1.9185 -0.5162  2.8568
  228MOL    H2932263   7.897   0.351   0.431 -0.0475  0.2651 -0.3491
  228MOL    C3032264   7.870   0.411   0.798  0.4855 -0.1827 -0.4132
  228MOL    C3132265   7.785   0.542   0.829  0.6190 -1.1123  0.6109
  228MOL    O3232266   7.833   0.313   0.887 -0.5075  0.2351  0.3182
  228MOL    H3332267   0.062   0.436   0.806  0.4261 -0.1423  0.2780
  228MOL    H3432268   7.677   0.542   0.810  0.6553  0.9680  0.3888
  228MOL    H3532269   7.827   0.628   0.777  2.2738 -0.7132  2.5459
  228MOL    H3632270   7.797   0.547   0.937  0.1184 -0.7363  0.6522
  228MOL    C3732271   0.020   0.285   0.977 -0.3979 -0.1179 -0.1985
  228MOL    C3832272   7.869   0.206   1.093 -0.9944  0.3567 -0.1941
  228MOL    O3932273   0.117   0.201   0.926  0.4207  0.4288 -0.0846
  228MOL    H4032274   0.070   0.372   1.018  2.7914 -1.5561 -0.9105
  228MOL    H4132275   7.846   0.111   1.045 -0.3745  0.2750 -0.3302
  228MOL    H4232276   7.776   0.254   1.125 -1.7847  0.3999 -2.4478
  228MOL    H4332277   0.021   0.187   1.178 -1.6050  0.6638  0.3480
  228MOL    C4432278   0.249   0.239   0.950 -0.6821  0.4046  0.3118
  228MOL    C4532279   0.345   0.120   0.930 -0.3556 -0.0237 -0.2603
  228MOL    O4632280   0.288   0.340   0.862 -0.1186  0.2450  0.7888
  228MOL    H4732281   0.272   0.270   1.052  1.7681  0.4322 -0.2094
  228MOL    H4832282   0.325   0.047   1.008  3.0676  0.2806  0.9965
  228MOL    H4932283   0.451   0.146   0.937  0.3707 -2.9470  0.1836
  228MOL    H5032284   0.327   0.082   0.829 -2.0310 -2.3091  0.8657
  228MOL    C5132285   0.350   0.448   0.918  0.0178  0.3853  0.5146
  228MOL    C5232286   0.444   0.494   0.802 -0.0660 -0.6322 -0.0655
  228MOL    O5332287   0.250   0.537   0.948  0.3550 -0.3231  0.4751
  228MOL    H5432288   0.410   0.416   1.003  1.5044 -0.3665 -0.7879
  228MOL    H5532289   0.500   0.581   0.837 -2.9298  1.3876 -0.3504
  228MOL    H5632290   0.379   0.524   0.720 -2.0692 -0.0191  1.7045
  228MOL    H5732291   0.510   0.409   0.782  1.2622  0.0457  1.3661
  228MOL    C5832292   0.284   0.629   1.039 -0.3343 -0.8641  0.6838
  228MOL    C5932293   0.177   0.746   1.044 -0.3972  0.0127 -0.3630
  228MOL    O6032294   0.284   0.559   1.161  0.1521 -0.1426  0.5218
  228MOL    H6132295   0.383   0.670   1.016 -1.2034  0.1647 -1.3480
  228MOL    H6232296   0.077   0.706   1.058  0.3016 -1.5025  0.3447
  228MOL    H6332297   0.185   0.815   0.959 -0.2457 -0.8073 -1.0211
  228MOL    H6432298   0.207   0.807   1.129  0.2421 -0.2347 -0.4081
  228MOL    C6532299   0.382   0.619   1.243  0.1084 -0.6518 -0.1055
  228MOL    C6632300   0.352   0.592   1.397  0.0098 -0.1830  0.4596
  228MOL    O6732301   0.512   0.578   1.201  0.1092 -0.5188 -0.1143
  228MOL    H6832302   0.381   0.727   1.230  1.7091 -0.4363  1.3222
  228MOL    H6932303   0.413   0.656   1.462  0.3087 -0.0612  0.0612
  228MOL    H7032304   0.368   0.489   1.427  0.8268  0.2894  1.7072
  228MOL    H7132305   0.250   0.629   1.412 -0.0149 -0.2427  0.4372
  228MOL    C7232306   0.607   0.680   1.197 -0.0025  0.2535 -0.0184
  228MOL    C7332307   0.741   0.608   1.157  0.0295  0.3201 -0.4331
  228MOL    O7432308   0.577   0.774   1.095  0.2771 -0.0226  0.1640
  228MOL    H7532309   0.614   0.726   1.296 -0.9345 -0.3093  0.3173
  228MOL    H7632310   0.748   0.531   1.234 -2.4875  0.7565  0.3016
  228MOL    H7732311   0.825   0.677   1.155  1.6241 -1.4619  1.6759
  228MOL    H7832312   0.736   0.562   1.059  0.3303 -2.3494  0.7606
  228MOL    C7932313   0.585   0.905   1.141  0.1045 -0.0958  0.4380
  228MOL    C8032314   0.603   0.991   1.018 -0.2350  0.1462  0.4830
  228MOL    O8132315   0.462   0.947   1.195 -0.3787  0.4790 -0.2331
  228MOL    H8232316   0.674   0.909   1.203 -0.6119 -2.8487  1.7477
  228MOL    H8332317   0.568   1.093   1.028  1.6128  0.9517 -0.8694
  228MOL    H8432318   0.550   0.941   0.937  0.0015 -3.1048  2.2506
  228MOL    H8532319   0.709   0.988   0.994 -0.1887 -0.6315  0.7678
  228MOL    C8632320   0.473   1.013   1.313 -0.1679  0.8019 -0.5094
  228MOL    C8732321   0.335   1.066   1.338  0.0507 -0.7282 -0.0602
  228MOL    O8832322   0.508   0.915   1.409  0.1085  0.4021  0.4967
  228MOL    H8932323   0.543   1.097   1.303 -0.2151  0.9152  0.1254
  228MOL    H9032324   0.298   1.150   1.280 -0.8904 -0.8230  0.3806
  228MOL    H9132325   0.339   1.092   1.444 -3.3328 -1.9143  0.4185
  228MOL    H9232326   0.264   0.983   1.332 -1.1460  0.0986  2.1177
  228MOL    C9332327   0.614   0.949   1.493 -0.5502 -0.2183  0.1201
  228MOL    C9432328   0.615   0.849   1.610  0.0538  0.5878 -0.2863
  228MOL    O9532329   0.737   0.936   1.430 -0.1718  0.0458 -0.2010
  228MOL    H9632330   0.594   1.051   1.527  1.1111  0.3765 -0.6289
  228MOL    H9732331   0.531   0.875   1.673  1.4241 -0.1653  1.9120
  228MOL    H9832332   0.714   0.848   1.657  0.2628  0.0733 -0.7239
  228MOL    H9932333   0.590   0.753   1.565 -2.6791  0.1624  2.0349
  228MOL   C10032334   0.831   1.031   1.468 -0.1022 -0.0325 -0.2283
  228MOL   C10132335   0.962   0.998   1.395  0.2814  0.1497  0.1330
  228MOL   O10232336   0.787   1.159   1.421  0.1725  0.4603  0.2742
  228MOL   H10332337   0.861   1.025   1.573 -0.8166  0.6497  0.0246
  228MOL   H10432338   0.939   1.007   1.288 -1.2269 -1.7603  0.2651
  228MOL   H10532339   0.986   0.894   1.416  3.4769  0.5865 -1.1595
  228MOL   H10632340   1.043   1.066   1.418  1.3405 -0.0807 -2.6531
  228MOL   C10732341   0.797   1.260   1.517  0.4415  0.2373 -0.2160
  228MOL   C10832342   0.764   1.390   1.457 -0.2605 -0.4488 -0.9952
  228MOL   O10932343   0.706   1.234   1.616 -0.7309  0.0442  0.3966
  228MOL   H11032344   0.903   1.258   1.545  0.2088  0.1799  0.6672
  228MOL   H11132345   0.808   1.399   1.358  0.6612  1.2826 -0.4636
  228MOL   H11232346   0.778   1.480   1.517 -1.5465 -0.9500  0.1037
  228MOL   H11332347   0.657   1.381   1.440 -0.4680 -3.7522  1.4739
  228MOL   C11432348   0.756   1.254   1.742  0.0498 -0.4621 -0.1472
  228MOL   C11532349   0.630   1.267   1.828  0.6966 -0.2946 -0.5617
  228MOL   O11632350   0.815   1.135   1.789 -0.2232  0.2824 -0.1937
  228MOL   H11732351   0.807   1.349   1.747  0.4803 -0.7421  0.8898
  228MOL   H11832352   0.669   1.261   1.929  0.4662  1.7328 -0.3474
  228MOL   H11932353   0.558   1.188   1.805  1.0131 -0.8639  0.3574
  228MOL   H12032354   0.583   1.363   1.809  1.1653 -0.2410 -1.4952
  228MOL   C12132355   0.950   1.146   1.833  0.1043 -0.3717 -0.0920
  228MOL   C12232356   0.987   1.006   1.896  0.2010  0.5140 -0.4826
  228MOL   O12332357   1.033   1.161   1.731 -0.2330  0.3457  0.0820
  228MOL   H12432358   0.954   1.216   1.917 -0.1101  0.0598 -0.4425
  228MOL   H12532359   1.086   1.011   1.942 -0.3312  0.4464  0.6661
  228MOL   H12632360   1.004   0.934   1.816  1.1594 -1.3751  1.3760
  228MOL   H12732361   0.927   0.955   1.971  2.7966 -1.9316  0.0231
  228MOL   C12832362   1.123   1.266   1.756 -0.1117 -0.6313 -0.0874
  228MOL   C12932363   1.218   1.286   1.639 -0.0647  0.0387 -0.2089
  228MOL   O13032364   1.054   1.386   1.774 -0.3045  0.1251  0.7444
  228MOL   H13132365   1.185   1.250   1.844  1.8549  0.9003 -1.1409
  228MOL   H13232366   1.287   1.202   1.640  0.4702  0.4858  0.5522
  228MOL   H13332367   1.273   1.379   1.645 -0.1679  0.1564 -1.0882
  228MOL   H13432368   1.156   1.295   1.550 -1.1112  2.1210  0.6947
  228MOL   C13532369   1.121   1.474   1.864 -0.4950  0.2188 -0.3313
  228MOL   C13632370   1.048   1.606   1.849  0.7267 -0.5485 -0.1914
  228MOL   O13732371   1.135   1.427   1.997  0.3686 -0.1239 -0.1468
  228MOL   H13832372   1.226   1.494   1.844  0.2162 -2.5240  0.4699
  228MOL   H13932373   1.049   1.641   1.746 -2.1581 -0.5758 -0.2600
  228MOL   H14032374   1.094   1.679   1.916  0.4574 -0.2023 -0.3854
  228MOL   H14132375   0.946   1.581   1.877  0.1717 -0.8003 -2.3295
  228MOL   H14232376   1.211   1.463   2.039  0.8194 -0.9016 -0.3025
  229MOL     C132377   3.566   4.395   7.179 -0.5850 -0.0835  0.4899
  229MOL     C232378   3.461   4.329   7.261  0.2958  0.6521 -0.7056
  229MOL     O332379   3.610   4.512   7.238 -0.1298 -0.5319 -0.1784
  229MOL     H432380   3.520   4.409   7.081 -1.3940 -3.0151  0.4224
  229MOL     H532381   3.360   4.360   7.235 -1.1782 -1.1852  2.4109
  229MOL     H632382   3.472   4.337   7.370 -1.7690  1.6972 -0.5570
  229MOL     H732383   3.467   4.222   7.242  1.4497  0.1721  2.0219
  229MOL     H832384   3.642   4.318   7.172  0.2831  0.9652 -2.1904
  229MOL     C932385   3.735   4.552   7.195 -0.0144  0.1014  0.0531
  229MOL    C1032386   3.715   4.637   7.069  0.0908  0.4214 -0.3143
  229MOL    O1132387   3.794   4.636   7.290  0.4587 -0.5833  0.2159
  229MOL    H1232388   3.798   4.467   7.171 -0.8751 -0.4299 -0.3508
  229MOL    H1332389   3.634   4.709   7.075 -0.0514  0.2342  0.0153
  229MOL    H1432390   3.688   4.555   7.003 -0.1392  1.1225 -1.1077
  229MOL    H1532391   3.804   4.692   7.038  1.6655 -1.7697  0.1951
  229MOL    C1632392   3.855   4.564   7.391 -0.1300 -0.0703  0.4810
  229MOL    C1732393   4.010   4.561   7.361 -0.1148 -0.8174 -0.2416
  229MOL    O1832394   3.830   4.636   7.511 -0.0535  0.8979  0.8214
  229MOL    H1932395   3.819   4.462   7.400  0.1823 -0.2844 -0.5685
  229MOL    H2032396   4.048   4.661   7.378 -0.5403 -0.6465 -0.2927
  229MOL    H2132397   4.034   4.526   7.261  0.8475 -1.1773  0.1069
  229MOL    H2232398   4.069   4.495   7.425 -0.5391  1.6241  2.7684
  229MOL    C2332399   3.706   4.604   7.572  0.1035  0.1806 -0.1940
  229MOL    C2432400   3.724   4.498   7.681 -0.2871 -0.4174 -0.3066
  229MOL    O2532401   3.646   4.727   7.629 -0.4071  0.1176 -0.0441
  229MOL    H2632402   3.640   4.568   7.493  1.1220 -1.2774 -0.4093
  229MOL    H2732403   3.771   4.407   7.644  1.1024 -1.0152  2.8244
  229MOL    H2832404   3.634   4.473   7.736  0.5907 -1.5127  0.6443
  229MOL    H2932405   3.793   4.543   7.752  0.0613  1.0698 -1.5437
  229MOL    C3032406   3.616   4.818   7.536  0.0035  0.2164 -0.0678
  229MOL    C3132407   3.469   4.820   7.534 -0.0474  0.0836  0.4127
  229MOL    O3232408   3.658   4.944   7.566 -0.1295 -0.5213  0.3366
  229MOL    H3332409   3.656   4.800   7.436 -1.1378 -0.1491 -0.4725
  229MOL    H3432410   3.430   4.862   7.627 -1.3414  1.5387 -0.7551
  229MOL    H3532411   3.415   4.727   7.518 -0.2248 -0.2249  2.7220
  229MOL    H3632412   3.439   4.890   7.456  1.6294  0.1340 -0.2133
  229MOL    C3732413   3.802   4.965   7.551  0.4624 -0.6622 -0.0268
  229MOL    C3832414   3.816   5.060   7.433 -0.0516  0.0775 -0.1744
  229MOL    O3932415   3.863   5.020   7.663 -0.0330  0.4803  0.7067
  229MOL    H4032416   3.857   4.873   7.533  1.9137  0.4755 -1.6113
  229MOL    H4132417   3.768   5.024   7.342 -0.1024  0.7140 -0.3984
  229MOL    H4232418   3.916   5.102   7.418  0.3321 -0.7642 -0.0521
  229MOL    H4332419   3.756   5.142   7.472  0.9976  0.8018 -0.0527
  229MOL    C4432420   3.893   4.926   7.760  0.7287 -0.5215 -0.0112
  229MOL    C4532421   4.045   4.930   7.767 -0.3130 -0.2574 -0.2785
  229MOL    O4632422   3.832   4.973   7.879 -0.2811 -0.2689 -0.4206
  229MOL    H4732423   3.863   4.823   7.739  0.3830 -0.3568 -0.3239
  229MOL    H4832424   4.071   4.860   7.846 -3.2172  0.3408  1.2818
  229MOL    H4932425   4.086   5.029   7.784  0.5364 -0.8316  1.0666
  229MOL    H5032426   4.101   4.897   7.679 -1.4715 -0.8358 -0.8108
  229MOL    C5132427   3.692   4.950   7.886  0.1448  0.4930  0.1705
  229MOL    C5232428   3.679   4.828   0.069  0.3342  0.2761  0.3298
  229MOL    O5332429   3.626   5.053   0.032 -0.4671  0.2318 -0.2498
  229MOL    H5432430   3.637   4.932   7.794 -0.7746 -1.0390  0.9963
  229MOL    H5532431   3.572   4.812   0.081  0.0530  0.9202 -1.2424
  229MOL    H5632432   3.716   4.854   0.168 -0.5488 -3.1653  1.6457
  229MOL    H5732433   3.725   4.735   0.035 -1.3085  0.3541 -2.2291
  229MOL    C5832434   3.606   5.160   7.858  0.3617 -0.5373  0.1380
  229MOL    C5932435   3.459   5.176   7.834 -0.1001  0.1694 -0.4941
  229MOL    O6032436   3.648   5.276   7.913  0.1687  0.2274  1.0161
  229MOL    H6132437   3.651   5.155   7.759  1.4783  1.8576  0.4814
  229MOL    H6232438   3.429   5.086   7.781 -2.2423  0.2979  0.4678
  229MOL    H6332439   3.447   5.264   7.771  0.2870  0.3014 -0.3893
  229MOL    H6432440   3.412   5.186   0.018 -1.4461  1.0402 -1.2270
  229MOL    C6532441   3.784   5.299   7.879 -0.5376 -0.5551 -0.3377
  229MOL    C6632442   3.773   5.419   7.781  0.4290  0.0160 -0.0090
  229MOL    O6732443   3.856   5.344   0.080 -0.1964 -0.4088  1.1885
  229MOL    H6832444   3.844   5.218   7.837 -1.0462 -1.2405  0.2441
  229MOL    H6932445   3.874   5.439   7.746  0.1346  1.7316  0.0846
  229MOL    H7032446   3.724   5.498   7.838 -1.2908  0.7261 -2.4081
  229MOL    H7132447   3.716   5.391   7.693  0.3334 -2.2726  0.7651
  229MOL    C7232448   3.865   5.248   0.176  0.6000  0.2040 -0.4129
  229MOL    C7332449   4.011   5.214   0.193  0.4740 -0.1702 -0.2406
  229MOL    O7432450   3.819   5.293   0.297  0.2951 -0.5414  0.0292
  229MOL    H7532451   3.817   5.152   0.157 -0.1308  0.7209 -1.2251
  229MOL    H7632452   4.028   5.133   0.123 -1.2226  0.8619 -1.9141
  229MOL    H7732453   4.028   5.159   0.285  1.1559 -0.0088 -0.2671
  229MOL    H7832454   4.076   5.299   0.173 -1.0166  1.0866  0.1366
  229MOL    C7932455   3.682   5.278   0.312 -0.3151  0.6956  0.8277
  229MOL    C8032456   3.672   5.160   0.406 -0.1645 -0.5417 -0.1334
  229MOL    O8132457   3.631   5.389   0.375  0.4161  0.3131 -0.2431
  229MOL    H8232458   3.627   5.262   0.219  0.5070 -0.0605  0.4665
  229MOL    H8332459   3.691   5.068   0.351  0.1084 -1.0224  0.7540
  229MOL    H8432460   3.567   5.153   0.436  0.0103 -1.2263  0.3308
  229MOL    H8532461   3.713   5.182   0.504 -2.5572  3.6088  0.0433
  229MOL    C8632462   3.570   5.491   0.300 -0.1965  0.5289 -0.2106
  229MOL    C8732463   3.427   5.490   0.343  0.3095 -0.0817 -0.0426
  229MOL    O8832464   3.621   5.617   0.324  0.0574  0.6580  0.2865
  229MOL    H8932465   3.576   5.467   0.193 -1.3768 -1.0639  0.0438
  229MOL    H9032466   3.379   5.393   0.330  0.2852 -0.2999  1.4679
  229MOL    H9132467   3.382   5.563   0.277 -0.1715  1.2362  1.6881
  229MOL    H9232468   3.433   5.518   0.449  0.2276  2.5483 -0.7027
  229MOL    C9332469   3.742   5.655   0.262 -0.2210 -0.0729  0.3885
  229MOL    C9432470   3.710   5.765   0.151  0.9091  0.0049 -0.7209
  229MOL    O9532471   3.840   5.710   0.351  0.2084  0.8076  0.0440
  229MOL    H9632472   3.792   5.569   0.219  0.2830  0.1899  0.4534
  229MOL    H9732473   3.658   5.846   0.203  1.1292 -0.3380  0.0419
  229MOL    H9832474   3.635   5.739   0.077  0.9113  0.3629 -0.8503
  229MOL    H9932475   3.797   5.812   0.104  0.2555  0.6581 -1.2849
  229MOL   C10032476   3.907   5.603   0.428  0.0314 -0.3035  0.6590
  229MOL   C10132477   4.058   5.593   0.386  0.7041  0.6631  0.1936
  229MOL   O10232478   3.911   5.651   0.558 -0.0087  0.5011 -0.7324
  229MOL   H10332479   3.859   5.506   0.414  0.1327 -0.2397 -0.1441
  229MOL   H10432480   4.116   5.681   0.412  1.0998  0.8177 -1.1707
  229MOL   H10532481   4.059   5.597   0.277 -1.3211  0.2760  0.1359
  229MOL   H10632482   4.111   5.507   0.428  1.2363  1.2667  0.7777
  229MOL   C10732483   3.793   5.625   0.627 -0.4674 -0.0077 -0.0168
  229MOL   C10832484   3.834   5.534   0.737 -0.1176 -0.5228  0.5371
  229MOL   O10932485   3.733   5.733   0.690  0.2339  0.0031 -0.3258
  229MOL   H11032486   3.709   5.580   0.573 -0.7061  0.4445 -0.0255
  229MOL   H11132487   3.922   5.569   0.792  0.2041 -0.0974 -0.2466
  229MOL   H11232488   3.867   5.439   0.695  1.9153 -0.6032  2.2292
  229MOL   H11332489   3.750   5.520   0.806 -0.7729 -0.8219 -0.3145
  229MOL   C11432490   3.665   5.816   0.601  0.8400  0.2041  0.4168
  229MOL   C11532491   3.515   5.787   0.624 -0.1355 -0.1119  0.0261
  229MOL   O11632492   3.691   5.950   0.627 -0.2145 -0.0621 -0.1819
  229MOL   H11732493   3.697   5.802   0.497 -1.7389 -2.6971 -0.0632
  229MOL   H11832494   3.457   5.828   0.541  0.7346  4.7992  1.6274
  229MOL   H11932495   3.479   5.824   0.720  0.6525 -2.5818  1.3220
  229MOL   H12032496   3.505   5.679   0.632  2.3805 -0.3261  0.9734
  229MOL   C12132497   3.811   6.001   0.569 -0.5054  0.5353 -0.0039
  229MOL   C12232498   3.773   6.084   0.449  0.0582 -0.0542 -0.0542
  229MOL   O12332499   3.874   6.080   0.656  0.5099  0.5881 -0.5468
  229MOL   H12432500   3.888   5.932   0.534  1.2302  1.7079  1.4353
  229MOL   H12532501   3.858   6.098   0.382  1.0536 -0.3697  1.1174
  229MOL   H12632502   3.724   6.179   0.469  1.4920  0.2793  2.0744
  229MOL   H12732503   3.706   6.019   0.393  2.2247 -1.3374 -1.2073
  229MOL   C12832504   3.945   6.005   0.752 -0.1585  0.8321 -0.4764
  229MOL   C12932505   4.098   6.016   0.716 -0.5415  0.4967  0.7562
  229MOL   O13032506   3.927   6.052   0.881  0.0541 -0.1883  0.0656
  229MOL   H13132507   3.910   5.902   0.751  0.2094  0.7157 -1.8763
  229MOL   H13232508   4.136   5.935   0.777 -2.3132 -0.4903  0.6005
  229MOL   H13332509   4.141   6.113   0.742  0.2620  0.3984 -0.1779
  229MOL   H13432510   4.118   5.993   0.611  1.3496  2.6493  0.6020
  229MOL   C13532511   3.794   6.025   0.929  0.2401 -0.2562  0.1007
  229MOL   C13632512   3.785   6.083   1.072  0.2486  0.0809 -0.0048
  229MOL   O13732513   3.699   6.101   0.856  0.1533  0.4450  0.0913
  229MOL   H13832514   3.762   5.921   0.925  0.3216 -0.3466  1.5374
  229MOL   H13932515   3.822   6.185   1.064  0.2555  0.0907  0.1586
  229MOL   H14032516   3.855   6.029   1.135  0.1677 -0.5768 -0.4751
  229MOL   H14132517   3.686   6.083   1.119  1.4379  2.7603  2.7152
  229MOL   H14232518   3.701   6.062   0.769  0.6785 -0.3280  0.4408
  230MOL     C132519   4.501   3.794   7.900  0.1416  0.4751 -0.1289
  230MOL     C232520   4.401   3.799   7.776  0.4519 -0.3087  0.1188
  230MOL     O332521   4.583   3.911   7.892  0.4296 -0.9523 -0.0807
  230MOL     H432522   4.563   3.708   7.876  1.6779  1.5920 -0.1783
  230MOL     H532523   4.447   3.794   7.678  1.9171 -1.5176  0.8446
  230MOL     H632524   4.321   3.873   7.786  0.3117 -0.6368  1.5012
  230MOL     H732525   4.350   3.704   7.792  0.6869 -0.4657 -0.0658
  230MOL     H832526   4.439   3.783   0.075 -0.8732 -1.3166 -1.0130
  230MOL     C932527   4.673   3.917   0.078 -0.4068 -0.1483 -0.1187
  230MOL    C1032528   4.729   4.053   0.082  0.2042  1.1732  0.0210
  230MOL    O1132529   4.615   3.905   0.200 -0.1266  0.1119  0.1572
  230MOL    H1232530   4.757   3.850   0.061  0.0735  0.6431 -0.9147
  230MOL    H1332531   4.655   4.133   0.082 -1.0879 -0.0196  0.3987
  230MOL    H1432532   4.785   4.059   7.902 -0.4589 -0.1425 -0.4713
  230MOL    H1532533   4.800   4.058   0.164 -2.3455 -0.5412  2.4008
  230MOL    C1632534   4.676   3.810   0.276  0.1432  0.0944  0.0930
  230MOL    C1732535   4.606   3.803   0.413  0.1757  0.3706 -0.2224
  230MOL    O1832536   4.665   3.690   0.215  0.0268 -0.5516 -0.3123
  230MOL    H1932537   4.781   3.831   0.296 -0.1630  0.3177  1.5066
  230MOL    H2032538   4.504   3.767   0.403  0.2392 -0.0763  0.7437
  230MOL    H2132539   4.599   3.904   0.454 -1.1687  0.1954  0.0059
  230MOL    H2232540   4.653   3.726   0.473 -0.4186  1.1874  1.3121
  230MOL    C2332541   4.777   3.609   0.231 -0.3028  0.2903  0.2718
  230MOL    C2432542   4.735   3.465   0.188 -0.5386  0.1760  0.4867
  230MOL    O2532543   4.872   3.654   0.142  0.1023  0.1238 -0.2455
  230MOL    H2632544   4.809   3.613   0.334 -0.0171 -0.1801  0.2006
  230MOL    H2732545   4.699   3.479   0.087 -1.2694  4.2178  1.2419
  230MOL    H2832546   4.668   3.415   0.258  1.9310  0.0790  2.8633
  230MOL    H2932547   4.820   3.399   0.175 -0.3793  0.6216 -0.7895
  230MOL    C3032548   4.997   3.665   0.190  0.5314 -0.1360 -0.2223
  230MOL    C3132549   5.100   3.662   0.072  0.1435 -0.4109 -0.1971
  230MOL    O3232550   5.012   3.794   0.249  0.5658  0.6059  0.6844
  230MOL    H3332551   5.021   3.595   0.270  0.2837  0.9992  0.8677
  230MOL    H3432552   5.103   3.575   0.006 -0.3425 -0.9302  0.4602
  230MOL    H3532553   5.192   3.703   0.114 -2.3648  2.7040  2.5128
  230MOL    H3632554   5.066   3.739   0.002 -2.0403 -0.7675  0.4181
  230MOL    C3732555   5.096   3.801   0.361  0.3295 -0.7098  0.8471
  230MOL    C3832556   5.154   3.940   0.376  0.7815 -0.2702  0.6739
  230MOL    O3932557   5.021   3.780   0.477  0.2355 -0.2630 -0.2543
  230MOL    H4032558   5.170   3.721   0.355 -0.7588 -1.8032  1.6842
  230MOL    H4132559   5.203   3.956   0.472 -2.1080  1.3125  1.9323
  230MOL    H4232560   5.078   4.015   0.357 -0.0630 -1.0646  0.8426
  230MOL    H4332561   5.212   3.952   0.285 -0.3832 -0.3989 -0.1003
  230MOL    C4432562   5.096   3.689   0.559 -0.1774 -0.7942 -0.3841
  230MOL    C4532563   5.046   3.695   0.709 -0.2493  0.4056  0.3401
  230MOL    O4632564   5.076   3.553   0.521  0.1174  0.1713 -0.4143
  230MOL    H4732565   5.199   3.718   0.577 -0.8594  0.7648  1.1658
  230MOL    H4832566   4.949   3.645   0.713 -0.3692  0.3765 -2.0635
  230MOL    H4932567   5.024   3.801   0.723 -0.5424  0.2556  0.9829
  230MOL    H5032568   5.114   3.649   0.780 -2.2030 -1.2918  1.1487
  230MOL    C5132569   5.198   3.490   0.503 -0.9107 -0.1233 -0.0206
  230MOL    C5232570   5.174   3.333   0.508  0.2137 -0.9401 -0.7380
  230MOL    O5332571   5.252   3.512   0.382  0.4305 -0.4931 -0.2407
  230MOL    H5432572   5.260   3.512   0.590  1.1521 -0.3982 -1.3827
  230MOL    H5532573   5.264   3.290   0.465  0.2543 -1.3933 -0.2182
  230MOL    H5632574   5.097   3.305   0.436 -1.1744 -0.7492  0.6391
  230MOL    H5732575   5.154   3.295   0.609  0.3280  0.6298 -0.1203
  230MOL    C5832576   5.387   3.545   0.370  0.8540  0.3290  0.0963
  230MOL    C5932577   5.441   3.529   0.230 -0.8695  0.1392  0.0841
  230MOL    O6032578   5.405   3.681   0.399  0.3901  0.0769  0.5334
  230MOL    H6132579   5.441   3.486   0.444  1.8116 -0.6439 -1.3470
  230MOL    H6232580   5.408   3.604   0.158  1.5820 -0.1549 -1.4151
  230MOL    H6332581   5.418   3.430   0.189 -0.8632  0.3697 -0.4809
  230MOL    H6432582   5.549   3.544   0.237 -0.7933 -0.8061  1.1205
  230MOL    C6532583   5.507   3.707   0.496  0.1244 -0.0369  0.1107
  230MOL    C6632584   5.520   3.855   0.492 -0.6301  0.1828  0.3258
  230MOL    O6732585   5.463   3.669   0.622  0.0347  0.4156  0.4937
  230MOL    H6832586   5.608   3.671   0.474 -0.1200 -0.5838 -0.1281
  230MOL    H6932587   5.604   3.905   0.540 -0.7063  0.8248 -0.1895
  230MOL    H7032588   5.423   3.895   0.522  0.5289  1.3707  2.6008
  230MOL    H7132589   5.535   3.878   0.386  0.4606 -1.2718  0.1410
  230MOL    C7232590   5.548   3.594   0.700 -0.1935 -0.6015  0.7386
  230MOL    C7332591   5.506   3.613   0.846  0.2291 -0.1889  0.4276
  230MOL    O7432592   5.531   3.463   0.668 -0.4954  0.4262 -0.5422
  230MOL    H7532593   5.648   3.635   0.695 -0.2092 -0.6598 -0.3304
  230MOL    H7632594   5.583   3.571   0.911 -0.6058 -2.0172  0.2839
  230MOL    H7732595   5.416   3.552   0.859 -0.2102 -0.2419 -2.3882
  230MOL    H7832596   5.481   3.708   0.892 -4.5907 -0.5984 -1.0071
  230MOL    C7932597   5.646   3.404   0.625  0.0566 -0.0248 -0.2437
  230MOL    C8032598   5.620   3.252   0.617  0.0258 -0.0962  0.3324
  230MOL    O8132599   5.679   3.435   0.498  0.4255  0.6471 -0.0057
  230MOL    H8232600   5.726   3.435   0.692  0.2279  1.0489 -0.9227
  230MOL    H8332601   5.714   3.203   0.592 -0.5753  0.2992 -2.9747
  230MOL    H8432602   5.543   3.222   0.546 -3.1255 -3.1282  4.7367
  230MOL    H8532603   5.594   3.215   0.716 -3.1704 -1.1624 -0.8355
  230MOL    C8632604   5.816   3.461   0.486 -0.4240  0.2809  0.5130
  230MOL    C8732605   5.860   3.437   0.340 -0.0515  0.4399 -0.7586
  230MOL    O8832606   5.835   3.606   0.514 -0.0151 -0.2831 -0.0449
  230MOL    H8932607   5.884   3.418   0.559 -0.3736 -0.0741  0.2549
  230MOL    H9032608   5.855   3.332   0.309  1.8594 -0.6092  2.2523
  230MOL    H9132609   5.963   3.472   0.339  0.0810  0.1072 -3.6793
  230MOL    H9232610   5.805   3.498   0.269 -0.9175 -0.0711 -0.5324
  230MOL    C9332611   5.964   3.630   0.562 -0.2252 -1.1917 -0.3878
  230MOL    C9432612   6.000   3.771   0.524  0.8065  0.4183  0.8673
  230MOL    O9532613   5.953   3.640   0.706  0.1489 -0.1854 -0.1499
  230MOL    H9632614   6.040   3.568   0.515  0.2720 -0.9038  0.0220
  230MOL    H9732615   6.097   3.795   0.567  1.0910  0.4426  0.2214
  230MOL    H9832616   5.924   3.841   0.561  1.3126  0.2068  2.3219
  230MOL    H9932617   6.000   3.770   0.415 -0.6649  0.5576  0.8484
  230MOL   C10032618   6.040   3.562   0.781  0.2603  0.3332 -0.7237
  230MOL   C10132619   6.007   3.591   0.925 -0.3912  0.6540  0.3990
  230MOL   O10232620   6.015   3.428   0.754 -0.2126 -0.2104  0.2248
  230MOL   H10332621   6.140   3.590   0.750 -0.1866  0.2064 -2.3524
  230MOL   H10432622   6.056   3.523   0.994 -2.6348 -1.2399  0.2149
  230MOL   H10532623   5.898   3.590   0.933 -0.3992  1.4538  0.4027
  230MOL   H10632624   6.039   3.695   0.932 -2.2223  1.5290 -2.8959
  230MOL   C10732625   6.137   3.358   0.727  0.5939 -0.4061  0.1722
  230MOL   C10832626   6.101   3.213   0.729  0.0069 -0.7304 -0.4228
  230MOL   O10932627   6.189   3.382   0.597  0.2334 -0.4341  0.7114
  230MOL   H11032628   6.204   3.390   0.807 -1.6789  0.7679  1.6829
  230MOL   H11132629   6.037   3.198   0.817  1.3654 -0.5287  0.6152
  230MOL   H11232630   6.190   3.153   0.751 -0.4788 -1.4696 -0.4298
  230MOL   H11332631   6.030   3.183   0.652 -2.1580 -1.7666  1.9011
  230MOL   C11432632   6.326   3.380   0.603 -0.3549 -0.4134  0.3315
  230MOL   C11532633   6.380   3.386   0.462  0.4055  0.5317  0.5588
  230MOL   O11632634   6.373   3.492   0.670  1.1056  0.5623 -0.4403
  230MOL   H11732635   6.347   3.280   0.642  1.3292 -0.2710 -0.1642
  230MOL   H11832636   6.487   3.392   0.443  0.2104 -0.3153 -0.8749
  230MOL   H11932637   6.338   3.468   0.404  0.4702  0.8473  0.9600
  230MOL   H12032638   6.349   3.297   0.408  3.8189 -0.4820  0.1341
  230MOL   C12132639   6.492   3.470   0.742 -0.5621  0.4086 -0.0563
  230MOL   C12232640   6.554   3.611   0.761 -0.0789 -0.4250 -0.5710
  230MOL   O12332641   6.461   3.414   0.869 -0.0934  0.0755 -0.1937
  230MOL   H12432642   6.570   3.415   0.688 -0.5448  0.2292  0.1495
  230MOL   H12532643   6.559   3.661   0.664  0.4008  1.7197  0.5449
  230MOL   H12632644   6.655   3.597   0.800 -0.3341 -1.3074 -0.2131
  230MOL   H12732645   6.497   3.672   0.830 -0.3701  1.0702 -2.1006
  230MOL   C12832646   6.526   3.287   0.886 -1.0029  0.2404 -0.1730
  230MOL   C12932647   6.512   3.233   1.029  0.1553  0.1570 -0.6203
  230MOL   O13032648   6.473   3.190   0.803  0.0738  0.4364  0.1192
  230MOL   H13132649   6.632   3.300   0.869 -0.8493 -0.5768  0.1084
  230MOL   H13232650   6.407   3.246   1.054  0.5692  0.5221  1.0480
  230MOL   H13332651   6.559   3.297   1.105  0.4103 -1.1299  0.3202
  230MOL   H13432652   6.549   3.132   1.048  0.1599  0.0096 -1.4082
  230MOL   C13532653   6.565   3.094   0.761 -0.4052 -0.5181  0.8816
  230MOL   C13632654   6.483   2.978   0.704 -0.6876 -0.2532  0.4454
  230MOL   O13732655   6.650   3.139   0.661  0.1520  0.1485 -0.3562
  230MOL   H13832656   6.628   3.058   0.842 -2.0902 -2.1862  1.4851
  230MOL   H13932657   6.421   3.022   0.626 -0.6276 -0.7867  0.0972
  230MOL   H14032658   6.421   2.946   0.788  1.4919 -1.2479  1.7225
  230MOL   H14132659   6.556   2.900   0.684  1.2895  1.3648  1.1722
  230MOL   H14232660   6.735   3.099   0.669 -0.2145 -0.5608  0.0742
  231MOL     C132661   7.558   0.508   4.785  0.3865 -0.5371  0.1019
  231MOL     C232662   7.502   0.640   4.843  0.0269 -0.4175  0.3050
  231MOL     O332663   7.657   0.458   4.872 -0.2752  0.4374  0.5035
  231MOL     H432664   7.603   0.523   4.687 -0.7207  2.4858 -0.0209
  231MOL     H532665   7.484   0.639   4.951  0.7677  0.6497  0.4497
  231MOL     H632666   7.407   0.652   4.791  0.1275 -1.7871 -0.2004
  231MOL     H732667   7.570   0.725   4.838  0.7665 -0.7024  4.0857
  231MOL     H832668   7.488   0.424   4.784  1.8866 -1.8031 -0.1303
  231MOL     C932669   7.747   0.361   4.815  0.5883 -0.0404 -0.2603
  231MOL    C1032670   7.888   0.381   4.880 -0.8599  0.7183 -0.0016
  231MOL    O1132671   7.710   0.232   4.821  0.0894 -0.4028 -0.0801
  231MOL    H1232672   7.764   0.377   4.709  0.3452 -0.7721 -0.4038
  231MOL    H1332673   0.009   0.479   4.849  0.1754  0.5869  0.7563
  231MOL    H1432674   0.046   0.308   4.842 -0.2444  1.3182  0.0228
  231MOL    H1532675   7.887   0.381   4.989  2.2739 -1.2439  0.0785
  231MOL    C1632676   7.654   0.190   4.945 -0.2106  0.2545 -0.3705
  231MOL    C1732677   7.503   0.159   4.944 -0.3201 -0.0973  0.1594
  231MOL    O1832678   7.709   0.067   4.980 -0.6002  0.0326 -0.3051
  231MOL    H1932679   7.663   0.254   5.033 -1.5034  0.6886 -0.5538
  231MOL    H2032680   7.484   0.057   4.912 -0.0242  0.2305 -1.0622
  231MOL    H2132681   7.442   0.232   4.891 -1.6947  0.6656  2.6974
  231MOL    H2232682   7.469   0.159   5.048  1.3898  0.5393  0.7326
  231MOL    C2332683   7.835   0.070   5.033 -0.0590 -0.3746  0.2897
  231MOL    C2432684   7.826   0.047   5.186 -0.3447 -0.3014 -0.0597
  231MOL    O2532685   7.910   7.880   4.981  0.2629 -0.3925  0.2212
  231MOL    H2632686   7.893   0.161   5.017 -0.6147  0.1079  1.0501
  231MOL    H2732687   0.006   0.014   5.231  1.3757  1.6332 -2.1421
  231MOL    H2832688   7.743   7.893   5.206  0.1592 -0.9077 -0.0189
  231MOL    H2932689   7.799   0.139   5.238 -1.2914 -0.4092 -0.3601
  231MOL    C3032690   0.022   7.897   4.850 -0.1239 -0.4980 -0.4033
  231MOL    C3132691   0.175   0.021   4.840  0.2146 -0.4239 -0.5952
  231MOL    O3232692   0.009   7.783   4.781 -0.2709 -0.8357  0.2832
  231MOL    H3332693   7.883   0.070   4.811 -0.8838  0.2217  2.1269
  231MOL    H3432694   0.190   0.129   4.835  2.0779 -0.5887  1.1536
  231MOL    H3532695   0.217   7.892   4.749  0.8565 -2.7433  0.7693
  231MOL    H3632696   0.231   7.902   4.927 -0.2761  0.8762  0.2308
  231MOL    C3732697   7.814   7.780   4.698 -0.0862 -0.0187 -0.5615
  231MOL    C3832698   7.880   7.798   4.551  0.6024 -0.2946 -0.8334
  231MOL    O3932699   7.740   7.664   4.716 -0.5361 -0.4660  0.2986
  231MOL    H4032700   7.749   7.862   4.726 -1.9580 -1.5626 -0.2656
  231MOL    H4132701   0.036   7.717   4.531 -0.2794 -1.4817  0.7325
  231MOL    H4232702   0.008   7.896   4.526  2.2626 -0.9395 -0.6417
  231MOL    H4332703   7.800   7.786   4.479 -0.8635  1.4523  0.4334
  231MOL    C4432704   7.688   7.646   4.850  0.0475  0.2557 -0.1257
  231MOL    C4532705   7.535   7.618   4.836 -0.4718 -0.4753 -0.1333
  231MOL    O4632706   7.750   7.536   4.915  0.2304 -0.1861  0.8628
  231MOL    H4732707   7.706   7.736   4.909  0.1405 -0.7107  1.3310
  231MOL    H4832708   7.525   7.518   4.795  0.3993 -1.4860  2.0394
  231MOL    H4932709   7.485   7.686   4.767  2.0473  1.2173 -0.3386
  231MOL    H5032710   7.480   7.619   4.931 -0.4705 -0.0463 -0.1361
  231MOL    C5132711   7.865   7.561   4.997  0.3370 -0.7233 -0.7773
  231MOL    C5232712   7.812   7.595   5.132  0.0272 -0.6139 -0.8061
  231MOL    O5332713   0.023   7.440   5.002  0.3519  0.1425  0.4767
  231MOL    H5432714   0.010   7.648   4.968  1.9790 -1.2079  0.9991
  231MOL    H5532715   7.750   7.510   5.158 -0.6119  0.4223  1.1365
  231MOL    H5632716   7.751   7.685   5.116  0.4731 -0.3959 -1.2988
  231MOL    H5732717   7.893   7.619   5.200 -0.4722  0.3484 -0.5350
  231MOL    C5832718   0.149   7.437   4.946 -0.5871  0.1549 -0.0195
  231MOL    C5932719   0.244   7.365   5.051  0.2101 -0.6620  0.2654
  231MOL    O6032720   0.159   7.361   4.830 -0.2981  0.0344  0.4197
  231MOL    H6132721   0.184   7.539   4.929  3.2621 -0.6799  2.1615
  231MOL    H6232722   0.348   7.354   5.021  0.2128 -1.7324  0.6183
  231MOL    H6332723   0.209   7.262   5.061  3.0643 -1.6814  0.2629
  231MOL    H6432724   0.225   7.419   5.143 -0.4298 -0.7904  0.2130
  231MOL    C6532725   0.114   7.431   4.711 -0.2510  0.2738  0.1401
  231MOL    C6632726   0.246   7.480   4.639  0.0100  0.1866 -0.7373
  231MOL    O6732727   0.056   7.343   4.627  0.3532  0.5475 -0.3470
  231MOL    H6832728   0.051   7.519   4.728 -1.4856 -0.6915  0.5768
  231MOL    H6932729   0.293   7.561   4.695 -1.1642  0.5950 -0.3253
  231MOL    H7032730   0.223   7.517   4.539  0.3897  1.0310 -0.5176
  231MOL    H7132731   0.317   7.397   4.633  1.2283  1.0680  0.9335
  231MOL    C7232732   7.836   7.322   4.646 -0.3488  0.7840  0.2249
  231MOL    C7332733   7.773   7.387   4.524  0.0199  0.2752 -0.3091
  231MOL    O7432734   7.798   7.185   4.638 -0.3982 -0.2492 -0.1003
  231MOL    H7532735   7.780   7.364   4.730 -3.4175  1.7111 -2.1703
  231MOL    H7632736   7.666   7.402   4.531  0.0454  1.1019 -1.5245
  231MOL    H7732737   7.802   7.336   4.432  1.3105  0.7955 -0.2129
  231MOL    H7832738   7.816   7.487   4.512 -3.7963  1.8263 -1.6896
  231MOL    C7932739   7.797   7.129   4.767 -0.2626  0.0689  0.3420
  231MOL    C8032740   7.656   7.090   4.805  0.4088  0.2120  0.2698
  231MOL    O8132741   7.869   7.011   4.775 -0.1653 -0.4934  0.1337
  231MOL    H8232742   7.833   7.201   4.840  1.5121  0.4381 -0.8714
  231MOL    H8332743   7.627   7.025   4.723  1.0634  1.1896 -0.7470
  231MOL    H8432744   7.584   7.170   4.818  0.5301  0.0640  1.9732
  231MOL    H8532745   7.667   7.030   4.896  0.6042  1.7992  1.3059
  231MOL    C8632746   0.091   7.015   4.744 -0.6567  0.5870 -0.0483
  231MOL    C8732747   0.161   7.002   4.876  0.9361  0.7735  0.0296
  231MOL    O8832748   0.131   6.915   4.659  0.0191  0.3446 -0.7021
  231MOL    H8932749   0.113   7.116   4.708 -2.3396  0.9405 -0.0869
  231MOL    H9032750   0.268   6.993   4.857  0.9158 -1.1772  0.6436
  231MOL    H9132751   0.122   6.917   4.933  0.9557  0.7912  0.0674
  231MOL    H9232752   0.131   7.088   4.935 -0.6930  1.1195 -1.2578
  231MOL    C9332753   0.118   6.935   4.523  0.3815 -0.3230 -0.6800
  231MOL    C9432754   0.253   6.975   4.467 -0.4962 -0.3771 -0.7286
  231MOL    O9532755   0.067   6.815   4.458 -0.0536  0.5395 -0.4180
  231MOL    H9632756   0.046   7.015   4.502  0.2951 -0.0822  0.5082
  231MOL    H9732757   0.238   6.967   4.359  1.5117 -0.3763 -1.0203
  231MOL    H9832758   0.332   6.905   4.494 -0.4143 -0.1501 -0.3779
  231MOL    H9932759   0.288   7.073   4.498 -2.2784 -0.6270  2.2551
  231MOL   C10032760   7.844   6.792   4.485  0.0425  0.7067 -0.1064
  231MOL   C10132761   7.764   6.815   4.357  0.0127 -0.6409  0.3136
  231MOL   O10232762   7.819   6.659   4.523 -0.7335  0.0175 -0.4941
  231MOL   H10332763   7.820   6.860   4.566 -0.5404 -1.0707  1.2430
  231MOL   H10432764   7.801   6.758   4.272  0.9789 -0.6286  0.7136
  231MOL   H10532765   7.793   6.916   4.326 -0.2830 -0.8295 -0.5933
  231MOL   H10632766   7.659   6.798   4.380 -0.2370 -0.9257 -0.9954
  231MOL   C10732767   7.854   6.629   4.651 -0.7001 -0.2338  0.1356
  231MOL   C10832768   7.725   6.623   4.743  0.6560  0.6174  0.7224
  231MOL   O10932769   7.905   6.505   4.667 -0.2378 -0.5986 -0.8939
  231MOL   H11032770   0.013   6.695   4.698  0.5928 -1.7258  0.2649
  231MOL   H11132771   7.676   6.718   4.767  3.0596  2.3819 -1.0371
  231MOL   H11232772   7.738   6.580   4.842 -0.3682  1.9290  1.4497
  231MOL   H11332773   7.653   6.559   4.693  1.4388  0.8737 -0.7585
  231MOL   C11432774   0.127   6.500   4.636 -0.2057 -0.2148  0.5414
  231MOL   C11532775   0.209   6.492   4.763  0.2299  0.1691 -0.2710
  231MOL   O11632776   0.144   6.383   4.567 -0.3957  0.0789  0.0396
  231MOL   H11732777   0.163   6.584   4.577 -0.5380 -1.0528 -0.8949
  231MOL   H11832778   0.163   6.431   4.841 -0.5306  0.0857 -0.7909
  231MOL   H11932779   0.232   6.584   4.818 -1.3609  0.7116 -0.4933
  231MOL   H12032780   0.296   6.431   4.739 -0.4244 -0.3962 -1.2175
  231MOL   C12132781   0.115   6.390   4.431  0.3040 -0.0915  0.4500
  231MOL   C12232782   0.255   6.414   4.370 -0.3192  0.1732 -0.2598
  231MOL   O12332783   0.074   6.267   4.379  0.0887 -1.1831 -0.7079
  231MOL   H12432784   0.040   6.464   4.404  2.6885  1.6297 -1.6307
  231MOL   H12532785   0.246   6.414   4.262  1.0103 -2.9483 -0.4175
  231MOL   H12632786   0.314   6.329   4.404 -0.2745  0.7161  1.0903
  231MOL   H12732787   0.303   6.502   4.413 -1.9177 -0.4824  3.0608
  231MOL   C12832788   7.850   6.251   4.408  0.3241  0.2244 -0.3509
  231MOL   C12932789   7.771   6.252   4.277 -0.2845 -0.2747 -0.2002
  231MOL   O13032790   7.830   6.128   4.476 -0.7023  0.4273 -0.0855
  231MOL   H13132791   7.801   6.329   4.466  3.6727 -0.5279  3.7334
  231MOL   H13232792   7.795   6.166   4.214  1.7376 -2.2999  3.1462
  231MOL   H13332793   7.813   6.344   4.236 -0.2431 -0.1173  0.1898
  231MOL   H13432794   7.665   6.249   4.300 -0.1151  1.5588  0.8982
  231MOL   C13532795   7.854   6.136   4.614 -0.2094 -0.3784 -0.5791
  231MOL   C13632796   7.769   6.024   4.680 -0.6237 -0.2971  0.1988
  231MOL   O13732797   0.073   6.110   4.645  1.0810 -0.0105  0.3760
  231MOL   H13832798   7.836   6.235   4.655 -1.0331 -1.2175  1.1131
  231MOL   H13932799   7.790   6.031   4.787 -0.3564  0.3798  0.1091
  231MOL   H14032800   7.802   5.927   4.644  0.0340 -0.5404  1.4261
  231MOL   H14132801   7.667   6.049   4.652 -0.5626  0.2240  0.4234
  231MOL   H14232802   0.127   6.184   4.623  1.5918 -0.1111  1.2289
  232MOL     C132803   5.956   1.265   4.871  0.1694  0.1983  0.3556
  232MOL     C232804   6.061   1.162   4.831 -0.2165 -0.4424 -0.6776
  232MOL     O332805   5.879   1.296   4.747  0.4760 -0.0823 -0.4326
  232MOL     H432806   6.011   1.352   4.905 -0.1294 -0.2419  2.0121
  232MOL     H532807   6.142   1.198   4.766  0.4239  0.2790  0.4988
  232MOL     H632808   6.008   1.082   4.780  2.6105 -1.3486 -2.3567
  232MOL     H732809   6.110   1.115   4.916  0.0771  1.0809  0.0265
  232MOL     H832810   5.902   1.210   4.948 -1.5879  2.2151  0.6319
  232MOL     C932811   5.801   1.409   4.758 -0.0085  1.1344 -0.2067
  232MOL    C1032812   5.851   1.520   4.660 -0.4875 -0.8264 -0.0645
  232MOL    O1132813   5.678   1.375   4.709 -0.2496 -0.5003 -0.3207
  232MOL    H1232814   5.788   1.459   4.855  1.0713  0.1322  0.4728
  232MOL    H1332815   5.956   1.551   4.664 -0.5674 -0.1259 -2.7881
  232MOL    H1432816   5.799   1.615   4.676  1.5252  0.6441 -1.9546
  232MOL    H1532817   5.834   1.492   4.557 -0.9997  0.8274 -0.4514
  232MOL    C1632818   5.589   1.318   4.803 -0.4502 -0.5794  0.2152
  232MOL    C1732819   5.483   1.415   4.815 -0.1497 -0.5120 -0.4953
  232MOL    O1832820   5.530   1.211   4.744  0.2172  0.0656 -0.3457
  232MOL    H1932821   5.633   1.288   4.898  1.4322  0.7698 -0.2042
  232MOL    H2032822   5.428   1.416   4.721  1.6190  0.8908 -1.5588
  232MOL    H2132823   5.526   1.513   4.835 -0.7200  0.1080 -2.2691
  232MOL    H2232824   5.414   1.377   4.891 -1.1156  0.5086 -0.8422
  232MOL    C2332825   5.607   1.097   4.739 -0.2784  0.4081 -0.1034
  232MOL    C2432826   5.531   1.007   4.836 -0.1891 -0.4937 -0.3204
  232MOL    O2532827   5.602   1.032   4.610 -0.4211 -0.4548  0.2138
  232MOL    H2632828   5.714   1.112   4.758 -0.3645  0.7122  0.1410
  232MOL    H2732829   5.424   1.015   4.816 -0.7277 -4.0878  0.7729
  232MOL    H2832830   5.550   1.036   4.939  2.8129 -3.0895 -0.0638
  232MOL    H2932831   5.561   0.902   4.836 -0.6783 -0.6356  0.0013
  232MOL    C3032832   5.685   1.092   4.516 -0.2596 -0.0433  0.5950
  232MOL    C3132833   5.810   1.003   4.513  0.3441 -0.4467  0.4013
  232MOL    O3232834   5.620   1.087   4.391 -0.7095  0.2008 -0.4248
  232MOL    H3332835   5.710   1.196   4.538 -0.6343  0.2471 -0.3328
  232MOL    H3432836   5.790   0.897   4.502  0.6553 -0.1679 -3.5516
  232MOL    H3532837   5.864   1.027   4.604 -0.2918  1.8729  0.2060
  232MOL    H3632838   5.863   1.039   4.424 -1.4845  0.9890 -0.1519
  232MOL    C3732839   5.508   1.162   4.386 -0.4042  0.3079 -0.8251
  232MOL    C3832840   5.535   1.298   4.324  0.2602 -0.9992  0.8301
  232MOL    O3932841   5.416   1.106   4.305  0.5237  0.3846 -0.0777
  232MOL    H4032842   5.459   1.179   4.482  1.3896  0.1923  0.1420
  232MOL    H4132843   5.566   1.376   4.394 -0.9446 -1.0559  1.4456
  232MOL    H4232844   5.441   1.337   4.285  1.5615  0.3632 -1.0259
  232MOL    H4332845   5.600   1.285   4.238 -2.2378 -2.2572 -0.9490
  232MOL    C4432846   5.377   0.978   4.337  0.7330  0.2524 -0.6114
  232MOL    C4532847   5.243   0.973   4.425  0.0723  0.8188  0.5993
  232MOL    O4632848   5.346   0.910   4.216  0.4257  0.0316 -0.1129
  232MOL    H4732849   5.457   0.924   4.387  1.4246  0.4547 -1.4907
  232MOL    H4832850   5.197   0.875   4.436 -0.2892  0.8306 -0.7884
  232MOL    H4932851   5.166   1.034   4.378 -1.2259 -2.0037 -1.0578
  232MOL    H5032852   5.258   1.011   4.526  3.0790 -1.1310  0.9809
  232MOL    C5132853   5.455   0.871   4.150 -0.7024  0.4834 -0.1942
  232MOL    C5232854   5.459   0.722   4.166 -0.3249  0.5548 -0.0486
  232MOL    O5332855   5.443   0.903   4.015 -0.3942  0.3017 -0.8457
  232MOL    H5432856   5.547   0.914   4.189  0.1717 -0.7203 -0.8558
  232MOL    H5532857   5.480   0.706   4.271  2.0752 -0.1957 -0.6180
  232MOL    H5632858   5.537   0.675   4.106  0.2542 -0.3727  1.4218
  232MOL    H5732859   5.365   0.676   4.134  0.1592 -0.8532  0.5156
  232MOL    C5832860   5.474   1.036   3.982  0.1295 -0.3264 -0.5538
  232MOL    C5932861   5.608   1.052   3.908  0.1016 -0.4435  0.7069
  232MOL    O6032862   5.370   1.086   3.904  0.3633 -0.3345 -0.3082
  232MOL    H6132863   5.483   1.093   4.074  4.7977  0.2433 -1.2036
  232MOL    H6232864   5.619   1.148   3.858 -0.5724 -0.3449  0.7428
  232MOL    H6332865   5.624   0.987   3.822  2.0273 -2.0041  2.1771
  232MOL    H6432866   5.677   1.056   3.993 -0.0774 -0.2304  0.8417
  232MOL    C6532867   5.251   1.117   3.973  0.3426  0.4432 -0.0588
  232MOL    C6632868   5.256   1.265   4.008  0.1271 -0.5657  0.1258
  232MOL    O6732869   5.143   1.094   3.892  0.0076  0.3891 -0.4227
  232MOL    H6832870   5.241   1.056   4.062  0.2015  0.7108  0.1079
  232MOL    H6932871   5.180   1.280   4.085  0.7571  1.9682  0.3096
  232MOL    H7032872   5.241   1.326   3.919  0.8286 -2.5323 -1.3766
  232MOL    H7132873   5.355   1.291   4.047 -0.2850  3.2846 -1.1712
  232MOL    C7232874   5.102   0.959   3.883  0.0958 -0.1067  0.3692
  232MOL    C7332875   5.017   0.927   4.016  0.1587  0.0964 -0.6278
  232MOL    O7432876   5.019   0.945   3.771  0.5848 -0.0764 -0.2022
  232MOL    H7532877   5.194   0.901   3.871 -0.1649 -0.5220  0.3631
  232MOL    H7632878   4.969   0.832   3.994  2.0918 -0.5263 -2.2805
  232MOL    H7732879   4.953   1.010   4.046  0.6076 -0.0817  0.8749
  232MOL    H7832880   5.090   0.923   4.096  1.1786  0.5478 -1.5198
  232MOL    C7932881   5.091   0.965   3.659 -0.4522  0.5297  0.2897
  232MOL    C8032882   5.091   0.830   3.590 -0.5682 -0.2988 -0.1433
  232MOL    O8132883   5.012   1.041   3.571  0.0740 -0.1949  0.0314
  232MOL    H8232884   5.192   1.003   3.674  0.1326  0.8985 -3.8614
  232MOL    H8332885   5.154   0.767   3.652 -1.1956 -0.4595  0.3373
  232MOL    H8432886   5.135   0.844   3.492  0.3684 -3.6260 -0.2335
  232MOL    H8532887   4.993   0.782   3.598 -0.4342 -0.4156  0.9553
  232MOL    C8632888   5.009   1.178   3.600 -0.4085 -0.3012 -0.5509
  232MOL    C8732889   5.108   1.247   3.499 -0.7556 -0.2541 -0.5409
  232MOL    O8832890   4.879   1.230   3.582  0.4048 -0.2172  0.4298
  232MOL    H8932891   5.037   1.195   3.704 -1.0373 -2.0211 -0.0961
  232MOL    H9032892   5.117   1.356   3.505 -0.1322 -0.3736  1.1023
  232MOL    H9132893   5.081   1.198   3.406  1.4695 -0.0791 -1.2930
  232MOL    H9232894   5.208   1.206   3.510 -0.8181 -0.2164  0.1917
  232MOL    C9332895   4.791   1.229   3.690 -0.4265 -0.0645  0.0094
  232MOL    C9432896   4.772   1.378   3.729 -0.6215 -0.2987  0.8861
  232MOL    O9532897   4.668   1.172   3.662 -0.4462 -0.2111  0.1813
  232MOL    H9632898   4.835   1.169   3.769 -1.6187  0.4006  1.0583
  232MOL    H9732899   4.870   1.425   3.729 -0.7686  0.0187  0.3000
  232MOL    H9832900   4.736   1.395   3.831  2.2561  1.1137  1.7163
  232MOL    H9932901   4.710   1.431   3.656 -0.7292 -0.6284  0.7362
  232MOL   C10032902   4.674   1.034   3.641  0.4407 -0.0221  0.0526
  232MOL   C10132903   4.635   0.965   3.770  0.4923 -0.5023 -0.4332
  232MOL   O10232904   4.583   0.997   3.546 -0.0783  0.1733  0.1912
  232MOL   H10332905   4.773   1.006   3.606  1.4340  1.6470  1.4635
  232MOL   H10432906   4.677   0.865   3.770  0.0316 -0.7016 -0.3379
  232MOL   H10532907   4.529   0.961   3.795  0.8592 -0.7783  1.1289
  232MOL   H10632908   4.683   1.007   3.859  0.4714 -3.1895  0.8957
  232MOL   C10732909   4.613   1.038   3.419  0.6084 -0.7846 -0.3454
  232MOL   C10832910   4.669   0.920   3.340  0.3157  0.4377  0.5455
  232MOL   O10932911   4.507   1.094   3.357  0.1756 -0.2114 -0.2600
  232MOL   H11032912   4.684   1.120   3.425 -1.8266  1.2162  2.0798
  232MOL   H11132913   4.751   0.880   3.399 -0.9781  0.2648  2.2508
  232MOL   H11232914   4.700   0.954   3.241 -1.8525  3.7354  0.9266
  232MOL   H11332915   4.594   0.844   3.317  0.9610  0.5834 -2.3071
  232MOL   C11432916   4.453   1.204   3.416  0.2879 -0.1565 -0.4317
  232MOL   C11532917   4.510   1.333   3.363 -0.2562 -0.2030 -0.4038
  232MOL   O11632918   4.320   1.211   3.381  0.0052 -0.3270  0.4566
  232MOL   H11732919   4.457   1.215   3.524  1.3217 -1.1377 -0.3585
  232MOL   H11832920   4.512   1.339   3.255 -0.1244 -0.6447 -0.4242
  232MOL   H11932921   4.614   1.353   3.390 -0.8043  0.4839  1.2889
  232MOL   H12032922   4.444   1.408   3.408  0.5722  0.3507 -0.0920
  232MOL   C12132923   4.236   1.104   3.411 -0.4543 -0.2037 -1.0338
  232MOL   C12232924   4.199   1.106   3.561 -0.7655 -0.3331  0.0922
  232MOL   O12332925   4.116   1.127   3.348  0.0838 -0.0411 -0.4900
  232MOL   H12432926   4.269   1.004   3.382 -0.0468 -0.0549 -1.0938
  232MOL   H12532927   4.280   1.112   3.633 -0.4892 -0.2362 -0.2296
  232MOL   H12632928   4.150   1.010   3.580 -0.4464 -0.4075  0.5344
  232MOL   H12732929   4.126   1.187   3.573 -1.8544 -1.0839 -1.3139
  232MOL   C12832930   4.122   1.144   3.215  0.0296 -0.3221 -0.0275
  232MOL   C12932931   4.013   1.041   3.146 -0.3296 -0.3225  0.1778
  232MOL   O13032932   4.068   1.269   3.173  0.0398 -0.1744 -0.4097
  232MOL   H13132933   4.222   1.137   3.173  0.3729 -1.8298  1.0061
  232MOL   H13232934   3.914   1.071   3.182 -0.7872 -0.4691 -0.9273
  232MOL   H13332935   4.042   0.938   3.164 -1.2881 -0.1496  2.9759
  232MOL   H13432936   4.015   1.051   3.037  0.9016 -2.2010  0.0223
  232MOL   C13532937   4.145   1.380   3.187  0.7247  0.2120  0.9028
  232MOL   C13632938   4.082   1.485   3.104  0.0297  0.0949  0.3502
  232MOL   O13732939   4.160   1.414   3.319  0.5149  0.0085  0.0624
  232MOL   H13832940   4.247   1.367   3.150  0.5492  0.8151  0.1802
  232MOL   H13932941   4.062   1.454   3.001 -0.3556 -1.6947  0.9332
  232MOL   H14032942   4.151   1.569   3.095  2.4054 -1.6378  1.8095
  232MOL   H14132943   3.991   1.525   3.149 -0.7606 -1.1970 -0.0756
  232MOL   H14232944   4.211   1.348   3.363  0.0092 -1.4704 -1.4875
  233MOL     C132945   1.773   4.166   6.151  0.1262  0.7087 -0.1845
  233MOL     C232946   1.705   4.144   6.287 -0.5106 -0.4959  0.1195
  233MOL     O332947   1.833   4.291   6.150 -0.4711 -0.4522 -0.2586
  233MOL     H432948   1.693   4.181   6.079  0.4069 -1.4958 -1.0059
  233MOL     H532949   1.654   4.048   6.282  1.3532 -1.4314 -1.3461
  233MOL     H632950   1.629   4.220   6.307 -0.2058 -0.0080 -0.5732
  233MOL     H732951   1.773   4.141   6.373  0.2246 -2.1179 -0.4933
  233MOL     H832952   1.839   4.086   6.117  1.3991  0.9203  1.7153
  233MOL     C932953   1.891   4.338   6.029 -0.6058 -0.3774  0.6811
  233MOL    C1032954   1.924   4.490   6.044  0.2458  1.1898  0.4155
  233MOL    O1132955   2.010   4.274   5.988 -0.2321  0.1705  0.1449
  233MOL    H1232956   1.818   4.329   5.948  0.5164 -0.3642 -0.3601
  233MOL    H1332957   1.953   4.525   5.945  4.1404  0.5047  1.2456
  233MOL    H1432958   1.998   4.504   6.122  0.8824 -1.4397  0.3435
  233MOL    H1532959   1.838   4.552   6.071 -1.7274 -0.7597 -1.1537
  233MOL    C1632960   2.006   4.231   5.854  0.4076  0.2555  0.4071
  233MOL    C1732961   2.150   4.184   5.821  0.3126 -0.2307  0.2139
  233MOL    O1832962   1.923   4.121   5.840  0.2661 -0.6465 -0.1194
  233MOL    H1932963   1.974   4.313   5.790 -0.7371 -0.7438 -0.3177
  233MOL    H2032964   2.171   4.111   5.899  0.8648 -2.3838 -1.9267
  233MOL    H2132965   2.216   4.271   5.817 -0.0381 -0.0067 -0.7390
  233MOL    H2232966   2.148   4.142   5.721  1.2246 -0.7470  0.4109
  233MOL    C2332967   1.842   4.128   5.728  0.4624  0.1502 -0.9943
  233MOL    C2432968   1.752   4.011   5.730  0.3110 -0.2245 -0.6045
  233MOL    O2532969   1.765   4.246   5.718 -0.0313 -0.1501  0.4042
  233MOL    H2632970   1.913   4.121   5.646 -1.1148  1.1034 -2.4676
  233MOL    H2732971   1.677   4.019   5.809 -0.7145  1.7903 -1.7348
  233MOL    H2832972   1.815   3.924   5.749 -0.3516 -0.5321  0.1995
  233MOL    H2932973   1.698   3.992   5.637  0.1017  0.1007 -0.5499
  233MOL    C3032974   1.730   4.274   5.589  0.7130 -0.2345  0.8354
  233MOL    C3132975   1.637   4.394   5.589  1.0352  0.0163 -0.1868
  233MOL    O3232976   1.851   4.294   5.511  0.1733 -0.3321 -0.0865
  233MOL    H3332977   1.679   4.189   5.543  0.3438 -0.3111  1.3854
  233MOL    H3432978   1.692   4.487   5.607 -0.1841  0.5248  0.9598
  233MOL    H3532979   1.558   4.383   5.663  0.4938 -0.2969 -0.8124
  233MOL    H3632980   1.578   4.400   5.498  0.5749 -2.4190 -0.0760
  233MOL    C3732981   1.848   4.232   5.390  0.0317 -0.4827  0.3844
  233MOL    C3832982   1.977   4.282   5.320  0.7359 -0.0545 -0.2913
  233MOL    O3932983   1.854   4.093   5.410 -0.0448 -0.1027 -0.1693
  233MOL    H4032984   1.760   4.270   5.339  0.2430 -1.1621 -0.4810
  233MOL    H4132985   2.066   4.246   5.371 -0.9861 -2.2240  1.3062
  233MOL    H4232986   1.984   4.391   5.323  1.3533 -0.1098  0.5178
  233MOL    H4332987   1.977   4.243   5.219 -2.6698  0.8408 -0.7105
  233MOL    C4432988   1.775   4.023   5.316 -0.3602  0.0640  1.1986
  233MOL    C4532989   1.782   3.879   5.358  0.1585  0.5170  0.1642
  233MOL    O4632990   1.644   4.057   5.306 -0.6913  0.0379  0.5304
  233MOL    H4732991   1.822   4.036   5.218 -1.1474 -0.0124  0.8056
  233MOL    H4832992   1.746   3.814   5.279  0.9480  1.1970 -0.7641
  233MOL    H4932993   1.715   3.863   5.443 -0.8015 -2.0678 -1.0407
  233MOL    H5032994   1.883   3.852   5.390  0.1796  0.9671  0.4861
  233MOL    C5132995   1.597   4.070   5.176  0.0155  0.1906 -0.8799
  233MOL    C5232996   1.446   4.097   5.173 -0.1603 -0.2678  0.5752
  233MOL    O5332997   1.657   4.176   5.117 -0.2160 -0.0156 -0.3302
  233MOL    H5432998   1.623   3.976   5.127  0.3573 -0.7983  1.1101
  233MOL    H5532999   1.426   4.202   5.195  0.4836  0.1523 -0.7980
  233MOL    H5633000   1.408   4.050   5.263 -2.1657 -0.2855 -0.2590
  233MOL    H5733001   1.412   4.059   5.077  1.1754  0.6517 -0.2778
  233MOL    C5833002   1.696   4.158   4.984 -0.5018  0.5670  0.3008
  233MOL    C5933003   1.785   4.274   4.968  0.1078 -0.1286 -1.0074
  233MOL    O6033004   1.767   4.036   4.963 -0.3325 -0.1915 -0.7863
  233MOL    H6133005   1.612   4.166   4.916 -0.8087 -3.0938  0.1374
  233MOL    H6233006   1.879   4.256   5.021 -0.6634 -1.0915  0.0502
  233MOL    H6333007   1.735   4.365   5.001 -2.1657 -2.8196  3.4677
  233MOL    H6433008   1.814   4.275   4.863  1.8382  1.3555 -0.5521
  233MOL    C6533009   1.719   3.968   4.853  0.7911  0.0780  0.3697
  233MOL    C6633010   1.798   3.840   4.856 -0.3818 -0.3749  0.2577
  233MOL    O6733011   1.587   3.928   4.876  0.0580 -0.1038 -0.5811
  233MOL    H6833012   1.725   4.027   4.761  2.0766 -2.1133 -1.0018
  233MOL    H6933013   1.762   3.772   4.933  0.9545  0.1915  1.4161
  233MOL    H7033014   1.904   3.860   4.874  0.0329 -2.5950  0.3824
  233MOL    H7133015   1.775   3.792   4.761 -2.1594 -1.5914  1.2625
  233MOL    C7233016   1.515   3.913   4.760  0.8598 -0.5156  0.5402
  233MOL    C7333017   1.378   3.848   4.812 -0.2459  0.6330 -0.4384
  233MOL    O7433018   1.493   4.030   4.702  0.0708  0.0300  0.2269
  233MOL    H7533019   1.579   3.847   4.702  1.4837 -0.1046  0.7611
  233MOL    H7633020   1.310   3.819   4.732  0.3619  0.7964 -1.0132
  233MOL    H7733021   1.323   3.920   4.873  1.7467  0.6154  1.4248
  233MOL    H7833022   1.393   3.767   4.884 -0.0996  0.5479 -0.5673
  233MOL    C7933023   1.520   4.022   4.562 -0.1954  0.1129  0.0645
  233MOL    C8033024   1.509   4.170   4.500  0.9154  0.8739  0.4787
  233MOL    O8133025   1.649   3.976   4.536 -0.2051 -0.3436 -0.1781
  233MOL    H8233026   1.440   3.957   4.526 -1.1551  0.6035  1.2759
  233MOL    H8333027   1.498   4.171   4.391 -0.2678 -0.1380  0.5863
  233MOL    H8433028   1.598   4.224   4.534  0.3684  1.2203  1.3764
  233MOL    H8533029   1.424   4.220   4.545  0.2326  0.6010 -0.5075
  233MOL    C8633030   1.661   3.888   4.430 -0.2764  0.1137 -0.4209
  233MOL    C8733031   1.788   3.807   4.452  0.1909 -0.1888 -0.0372
  233MOL    O8833032   1.560   3.787   4.429 -0.0819 -0.4122 -0.0631
  233MOL    H8933033   1.663   3.941   4.334  1.9930  0.2946 -0.2937
  233MOL    H9033034   1.769   3.738   4.533  0.4281 -0.1405  0.0576
  233MOL    H9133035   1.877   3.867   4.468  0.7097 -0.5562 -1.4402
  233MOL    H9233036   1.806   3.752   4.359 -2.1885 -1.4585  0.2200
  233MOL    C9333037   1.502   3.766   4.308 -0.1429  0.7043  0.0441
  233MOL    C9433038   1.387   3.671   4.331  0.0930  0.4248 -1.1263
  233MOL    O9533039   1.448   3.877   4.252 -0.7653  0.1121  0.2633
  233MOL    H9633040   1.578   3.724   4.243  2.5719  0.5089  3.2375
  233MOL    H9733041   1.310   3.703   4.403  2.2366 -0.4201  1.6251
  233MOL    H9833042   1.423   3.571   4.355 -1.1772  0.0570 -0.7060
  233MOL    H9933043   1.336   3.653   4.236 -1.0508  0.7060 -0.5857
  233MOL   C10033044   1.484   3.906   4.118  0.3680 -0.3575  0.1695
  233MOL   C10133045   1.368   3.990   4.066  0.0785  0.0718  0.2900
  233MOL   O10233046   1.603   3.975   4.107 -0.1805 -0.2422 -0.2076
  233MOL   H10333047   1.485   3.815   4.057  1.5929 -0.2991  0.0799
  233MOL   H10433048   1.271   3.959   4.104 -1.3064  1.4206 -2.0598
  233MOL   H10533049   1.363   3.986   3.958 -1.1218  0.2388  0.3393
  233MOL   H10633050   1.385   4.092   4.099  0.0422  0.2882 -0.3624
  233MOL   C10733051   1.686   3.911   4.013 -0.1140  0.0827 -0.0431
  233MOL   C10833052   1.791   4.013   3.968  0.4150  0.0642  0.0200
  233MOL   O10933053   1.760   3.810   4.074  0.0188 -0.0917 -0.2566
  233MOL   H11033054   1.636   3.881   3.921 -0.0719 -0.9881  0.2779
  233MOL   H11133055   1.861   4.033   4.048  0.4565  0.1641 -0.0413
  233MOL   H11233056   1.740   4.109   3.958  0.9203  0.5865  2.1701
  233MOL   H11333057   1.831   3.991   3.869  0.2684 -1.2392  0.2318
  233MOL   C11433058   1.753   3.690   4.009 -0.2661  0.3555  0.0664
  233MOL   C11533059   1.847   3.599   4.085  0.4160 -0.0907 -0.3223
  233MOL   O11633060   1.633   3.622   4.026  0.0879  0.0172  0.0796
  233MOL   H11733061   1.788   3.715   3.909 -0.6880  2.3719  0.3954
  233MOL   H11833062   1.851   3.505   4.031  2.5046  0.7826 -1.7603
  233MOL   H11933063   1.819   3.595   4.190 -2.9253  0.5859 -1.1341
  233MOL   H12033064   1.948   3.638   4.074  0.5130 -0.1750  0.2404
  233MOL   C12133065   1.573   3.589   3.912 -0.1212 -0.7005  0.1691
  233MOL   C12233066   1.461   3.492   3.940  0.5723  0.0111  0.0239
  233MOL   O12333067   1.506   3.698   3.849  0.1458  0.4170 -0.7579
  233MOL   H12433068   1.652   3.550   3.848 -1.3823  0.3851 -2.0701
  233MOL   H12533069   1.495   3.398   3.983 -2.1282 -0.4824  1.1968
  233MOL   H12633070   1.408   3.484   3.845  1.6933  0.3989 -0.6496
  233MOL   H12733071   1.388   3.539   4.006  0.4317 -1.5378  0.9911
  233MOL   C12833072   1.532   3.705   3.713 -0.0602 -0.1278  0.6271
  233MOL   C12933073   1.427   3.799   3.646 -0.7374  0.4176  0.5313
  233MOL   O13033074   1.663   3.749   3.691  0.3912  0.5634 -0.2050
  233MOL   H13133075   1.513   3.603   3.678 -0.0810  0.4255 -1.0161
  233MOL   H13233076   1.451   3.902   3.672  1.4103  0.0548  0.0962
  233MOL   H13333077   1.326   3.787   3.684 -1.0900 -0.2208 -0.5795
  233MOL   H13433078   1.427   3.789   3.537 -1.5930 -1.3590  0.6722
  233MOL   C13533079   1.735   3.685   3.595  0.0891  0.0451 -0.0465
  233MOL   C13633080   1.838   3.784   3.552  0.1723  0.5279 -0.6471
  233MOL   O13733081   1.801   3.572   3.646  0.4608  0.5638 -0.7299
  233MOL   H13833082   1.678   3.649   3.509 -0.8854 -1.0030  1.0199
  233MOL   H13933083   1.792   3.866   3.497 -1.8749  0.8334  1.4498
  233MOL   H14033084   1.912   3.739   3.484 -0.0734  0.0914 -0.6242
  233MOL   H14133085   1.897   3.814   3.639  0.8767 -0.9462 -0.6086
  233MOL   H14233086   1.754   3.496   3.614  1.3534 -1.2588  2.0393
  234MOL     C133087   0.519   0.418   1.839  0.1992  0.6703  0.8194
  234MOL     C233088   0.479   0.462   1.703  0.1769  0.3063  0.1113
  234MOL     O333089   0.652   0.439   1.869 -0.2498 -0.4936 -0.2695
  234MOL     H433090   0.499   0.311   1.853 -0.9499  0.5296 -1.5197
  234MOL     H533091   0.373   0.439   1.711  0.4182 -0.5607  1.0648
  234MOL     H633092   0.524   0.423   1.612 -0.6543  1.2781 -0.7127
  234MOL     H733093   0.480   0.570   1.693  2.8548  0.2542 -0.6595
  234MOL     H833094   0.467   0.477   1.914 -0.5530  1.8709 -0.6296
  234MOL     C933095   0.691   0.411   1.999  0.4280  0.1870  0.5281
  234MOL    C1033096   0.818   0.329   1.991 -0.1093 -0.1141 -0.1920
  234MOL    O1133097   0.715   0.520   2.080  0.0124  0.4727  0.1256
  234MOL    H1233098   0.612   0.357   2.051 -0.7547  1.7605  0.4137
  234MOL    H1333099   0.862   0.301   2.087  1.0840 -0.4118 -0.8165
  234MOL    H1433100   0.881   0.380   1.918  2.9924 -1.6009  1.3221
  234MOL    H1533101   0.798   0.232   1.947 -0.6399  0.2369 -0.7276
  234MOL    C1633102   0.783   0.623   2.024 -0.3570 -0.0556  0.3071
  234MOL    C1733103   0.680   0.729   1.976 -0.3505 -0.2237  0.5201
  234MOL    O1833104   0.864   0.688   2.118 -1.2773 -0.4974 -0.1598
  234MOL    H1933105   0.840   0.596   1.935 -1.7851  0.9005 -0.9302
  234MOL    H2033106   0.646   0.702   1.875  1.7739  0.7819 -0.4841
  234MOL    H2133107   0.714   0.832   1.973 -1.6359  0.2086  0.5324
  234MOL    H2233108   0.592   0.724   2.041  0.6268 -1.0799  1.7949
  234MOL    C2333109   0.984   0.624   2.142 -0.1582 -0.3942  0.5408
  234MOL    C2433110   1.088   0.719   2.091 -0.6010 -0.7069  0.4007
  234MOL    O2533111   1.008   0.612   2.277 -0.8832 -0.7590 -0.4486
  234MOL    H2633112   0.985   0.527   2.094  0.4175  1.1195 -2.6709
  234MOL    H2733113   1.186   0.673   2.102  0.2281  1.1007  0.8036
  234MOL    H2833114   1.079   0.820   2.132 -0.2151 -0.7193  0.5183
  234MOL    H2933115   1.079   0.723   1.982  2.7110 -2.8800 -0.0371
  234MOL    C3033116   0.931   0.506   2.341  0.1281 -0.5807  0.0559
  234MOL    C3133117   1.020   0.383   2.363 -0.3239 -0.1553  0.2588
  234MOL    O3233118   0.888   0.546   2.468  0.8349 -0.2181  0.5128
  234MOL    H3333119   0.838   0.476   2.294  0.4778 -2.6695  0.6615
  234MOL    H3433120   0.972   0.289   2.390  1.2793 -0.5632  1.7643
  234MOL    H3533121   1.106   0.407   2.424 -1.2333 -0.9401  1.8786
  234MOL    H3633122   1.070   0.361   2.268  0.4128  0.6249  0.4661
  234MOL    C3733123   0.816   0.669   2.474  0.1521 -0.1747 -0.5062
  234MOL    C3833124   0.686   0.621   2.543  0.3395  0.0231  0.3735
  234MOL    O3933125   0.875   0.762   2.557  0.3615  0.2293 -0.3081
  234MOL    H4033126   0.791   0.721   2.381 -0.9675  0.7983  0.3245
  234MOL    H4133127   0.626   0.712   2.548  0.4362  0.1008  0.1320
  234MOL    H4233128   0.715   0.592   2.644 -1.7558  1.3357  1.3730
  234MOL    H4333129   0.643   0.536   2.488  0.5714 -0.9358  1.6505
  234MOL    C4433130   1.010   0.789   2.529  0.1334  0.0596  0.2041
  234MOL    C4533131   1.020   0.900   2.424 -0.0646  0.0089 -0.3027
  234MOL    O4633132   1.073   0.845   2.636 -0.3747  0.4704 -0.1644
  234MOL    H4733133   1.065   0.699   2.503  1.8349  1.5339 -1.4036
  234MOL    H4833134   1.122   0.914   2.386 -0.8578  1.9265 -1.7795
  234MOL    H4933135   0.985   0.996   2.460 -1.5235 -0.7816  0.4156
  234MOL    H5033136   0.954   0.894   2.337 -1.0295  0.7314  0.3770
  234MOL    C5133137   1.069   0.768   2.753 -0.3548 -0.3882 -0.4419
  234MOL    C5233138   1.178   0.658   2.747 -0.7268 -0.4195  0.0113
  234MOL    O5333139   1.073   0.862   2.863  0.5671  0.3153 -0.0138
  234MOL    H5433140   0.973   0.720   2.774 -0.6806  0.7707  0.7912
  234MOL    H5533141   1.153   0.598   2.660 -1.3336 -1.0164  0.5997
  234MOL    H5633142   1.176   0.602   2.840 -2.6715  0.7023  0.6769
  234MOL    H5733143   1.278   0.701   2.732 -1.0555  0.4054  0.1344
  234MOL    C5833144   0.955   0.942   2.875  0.1549  0.7180  0.9851
  234MOL    C5933145   0.893   0.912   3.011 -0.7294 -0.0463 -0.2499
  234MOL    O6033146   0.975   1.081   2.875  0.9269  0.5817 -0.5431
  234MOL    H6133147   0.881   0.916   2.800  0.8800  0.5837  0.3066
  234MOL    H6233148   0.882   0.803   3.007  1.3124 -0.2454 -1.1031
  234MOL    H6333149   0.794   0.952   3.031 -1.2138 -1.6967  0.7794
  234MOL    H6433150   0.971   0.941   3.081 -1.0778 -2.1142  1.0398
  234MOL    C6533151   1.022   1.141   2.756 -0.0129  0.2569 -0.4415
  234MOL    C6633152   0.934   1.259   2.721  0.0619  0.9561  0.0572
  234MOL    O6733153   1.157   1.195   2.768  0.3806  0.2830  0.5797
  234MOL    H6833154   1.026   1.073   2.670  1.8797  1.2557 -1.1843
  234MOL    H6933155   0.911   1.325   2.805  1.0029 -1.3450  2.1768
  234MOL    H7033156   0.839   1.218   2.687  1.0510 -0.7040 -0.7621
  234MOL    H7133157   0.982   1.318   2.643  0.1786 -1.1773 -1.5262
  234MOL    C7233158   1.265   1.103   2.765  0.0115 -0.3810  0.6266
  234MOL    C7333159   1.331   1.123   2.631  0.4422  0.7196 -0.4892
  234MOL    O7433160   1.356   1.148   2.861  0.1603  0.3537  0.1534
  234MOL    H7533161   1.239   0.998   2.780  1.0016 -0.6147  0.7466
  234MOL    H7633162   1.432   1.083   2.631 -0.1022 -0.6908 -0.3863
  234MOL    H7733163   1.346   1.229   2.613  1.2044  0.8578  0.9057
  234MOL    H7833164   1.270   1.101   2.543 -0.1104  0.8172 -0.1277
  234MOL    C7933165   1.341   1.065   2.975 -0.0383  0.2512 -0.2913
  234MOL    C8033166   1.429   0.941   2.964  0.1165  0.0935  0.4258
  234MOL    O8133167   1.384   1.131   3.088  0.5295 -0.2001  0.1571
  234MOL    H8233168   1.239   1.031   2.990  0.3662 -0.8422  0.0313
  234MOL    H8333169   1.417   0.874   3.049  0.6370 -1.6447 -0.8624
  234MOL    H8433170   1.532   0.971   2.949  0.0179  0.3167  0.1835
  234MOL    H8533171   1.406   0.889   2.872  1.7918 -0.2630  0.2033
  234MOL    C8633172   1.287   1.222   3.134 -0.0025  0.4159 -0.0181
  234MOL    C8733173   1.209   1.162   3.247 -0.6811 -0.0654  0.4322
  234MOL    O8833174   1.358   1.330   3.185  0.2129  0.1617  0.2479
  234MOL    H8933175   1.229   1.250   3.046  0.4971  0.1559 -0.4342
  234MOL    H9033176   1.123   1.111   3.204 -0.1171 -1.9010  1.4252
  234MOL    H9133177   1.173   1.240   3.314 -0.5081  0.2696  0.1395
  234MOL    H9233178   1.278   1.093   3.296  0.5469  1.0467  0.3005
  234MOL    C9333179   1.432   1.414   3.097  1.1812 -0.2358  0.6862
  234MOL    C9433180   1.355   1.548   3.089  0.0524 -0.5312 -0.2049
  234MOL    O9533181   1.563   1.443   3.138  0.2071  0.4988 -0.1643
  234MOL    H9633182   1.437   1.377   2.995  1.0328  2.4086 -0.3240
  234MOL    H9733183   1.365   1.581   3.192  2.6930  1.1050 -0.9278
  234MOL    H9833184   1.252   1.529   3.060 -0.8540  1.5176  1.5584
  234MOL    H9933185   1.397   1.618   3.016  1.2426 -3.2942 -2.3007
  234MOL   C10033186   1.636   1.333   3.168  0.0780  0.0329 -0.4750
  234MOL   C10133187   1.743   1.322   3.062  0.2338  0.8686 -0.1547
  234MOL   O10233188   1.706   1.354   3.285 -0.4145 -0.1345  0.3079
  234MOL   H10333189   1.586   1.236   3.182 -3.2035  1.3650 -2.3059
  234MOL   H10433190   1.789   1.420   3.066 -0.6801  1.3363 -0.8439
  234MOL   H10533191   1.704   1.292   2.964 -0.8828 -0.4892  0.6744
  234MOL   H10633192   1.818   1.246   3.085 -1.0644 -0.0409  1.2044
  234MOL   C10733193   1.617   1.339   3.397  0.0149 -0.0454 -0.4172
  234MOL   C10833194   1.645   1.203   3.460 -0.3816  0.0789  0.0435
  234MOL   O10933195   1.655   1.438   3.489  0.4144 -0.0198 -0.5726
  234MOL   H11033196   1.511   1.355   3.377  0.2861  0.9911 -1.0547
  234MOL   H11133197   1.752   1.192   3.477 -0.2875 -0.0368 -0.6178
  234MOL   H11233198   1.615   1.124   3.392  1.7587 -0.1617 -0.6430
  234MOL   H11333199   1.597   1.187   3.557  0.9832 -2.1771  0.3706
  234MOL   C11433200   1.615   1.564   3.456  0.3845 -0.0556 -0.0752
  234MOL   C11533201   1.495   1.597   3.553  0.2677 -0.9670 -0.4519
  234MOL   O11633202   1.720   1.654   3.477  0.1262 -0.0374 -0.3831
  234MOL   H11733203   1.580   1.578   3.354  1.7797  1.0748 -0.4309
  234MOL   H11833204   1.410   1.532   3.535 -0.1540 -0.4988 -0.1652
  234MOL   H11933205   1.466   1.702   3.541  1.7866 -0.4827 -0.0796
  234MOL   H12033206   1.535   1.584   3.653 -0.3342  0.0625 -0.0675
  234MOL   C12133207   1.801   1.671   3.365  0.3278 -0.3161  0.0206
  234MOL   C12233208   1.752   1.791   3.283  0.2966 -0.4443  0.4072
  234MOL   O12333209   1.933   1.697   3.399 -0.1304  0.4226  0.2581
  234MOL   H12433210   1.797   1.585   3.298  1.6179 -0.0653 -0.3778
  234MOL   H12533211   1.651   1.768   3.252  0.6261 -1.3780 -0.0033
  234MOL   H12633212   1.829   1.804   3.206 -0.1571 -1.6900 -0.2561
  234MOL   H12733213   1.747   1.882   3.343 -0.9734 -1.1508  1.3755
  234MOL   C12833214   2.010   1.591   3.444  0.6156  0.7318  0.0833
  234MOL   C12933215   2.115   1.563   3.337  0.1645  0.1805  0.4012
  234MOL   O13033216   2.070   1.625   3.564 -0.1235 -0.0828  0.6470
  234MOL   H13133217   1.954   1.497   3.451 -1.2217  1.6471 -1.7552
  234MOL   H13233218   2.181   1.484   3.373 -1.9675 -1.3118  1.1217
  234MOL   H13333219   2.170   1.658   3.333  1.7450 -0.7474 -0.5087
  234MOL   H13433220   2.070   1.543   3.240 -0.0919 -1.0306  0.7661
  234MOL   C13533221   1.990   1.593   3.667  0.2305  0.4091 -1.1925
  234MOL   C13633222   2.077   1.551   3.789 -0.2050  0.3303 -0.4452
  234MOL   O13733223   1.912   1.703   3.698 -0.0615 -0.4352  0.1723
  234MOL   H13833224   1.927   1.507   3.645  1.9647 -1.8180  2.1274
  234MOL   H13933225   2.127   1.455   3.781 -1.2319 -0.2849  0.3227
  234MOL   H14033226   2.006   1.538   3.871  0.3288 -0.0921 -0.0441
  234MOL   H14133227   2.155   1.624   3.811 -0.5879  0.2246  1.3536
  234MOL   H14233228   1.872   1.732   3.618 -0.5909  2.1164  1.3120
  235MOL     C133229   5.107   6.721   5.891 -0.9580 -0.2976  0.2109
  235MOL     C233230   5.247   6.709   5.827  0.8634  0.0879  0.4757
  235MOL     O333231   5.081   6.863   5.897  0.0703  0.4745 -0.2681
  235MOL     H433232   5.107   6.670   5.988 -0.7720  1.7037  1.3040
  235MOL     H533233   5.318   6.761   5.890 -0.2014  0.1806  1.6015
  235MOL     H633234   5.240   6.747   5.725 -0.9554 -0.2178  0.4711
  235MOL     H733235   5.255   6.600   5.823 -1.0569 -0.0685  0.4997
  235MOL     H833236   5.036   6.660   5.836 -1.1546 -0.1717  0.3223
  235MOL     C933237   4.981   6.900   5.987 -0.0840  0.0497 -0.7107
  235MOL    C1033238   5.065   6.937   6.116  0.3853 -0.4590 -0.0321
  235MOL    O1133239   4.912   7.012   5.938 -0.4468  0.6313 -0.2248
  235MOL    H1233240   4.915   6.814   5.993 -1.4350  1.0890 -0.4737
  235MOL    H1333241   5.004   6.972   6.199 -1.8486 -1.2603 -1.3133
  235MOL    H1433242   5.132   7.020   6.095  0.5096 -0.1650  1.4958
  235MOL    H1533243   5.112   6.845   6.150  1.7986  0.1603 -0.2452
  235MOL    C1633244   4.838   6.984   5.825  0.2586 -0.0013 -0.6570
  235MOL    C1733245   4.688   7.009   5.863 -0.3266  0.5810  1.1321
  235MOL    O1833246   4.877   7.071   5.719  0.1059 -0.1617 -0.0817
  235MOL    H1933247   4.854   6.887   5.777 -0.9428 -1.0696  1.0556
  235MOL    H2033248   4.658   6.949   5.950  1.1866  0.1744  1.3799
  235MOL    H2133249   4.626   6.973   5.781  0.4212  2.0471 -0.0881
  235MOL    H2233250   4.666   7.116   5.871  1.4778  1.0771 -0.3127
  235MOL    C2333251   4.977   7.028   5.631 -0.0460  0.1794 -0.8687
  235MOL    C2433252   4.920   6.983   5.491 -0.5630  0.7017 -0.3644
  235MOL    O2533253   5.079   7.125   5.613 -0.5978 -0.6013  0.5137
  235MOL    H2633254   5.026   6.944   5.680 -0.6827  0.5045  0.3370
  235MOL    H2733255   4.878   7.073   5.446 -0.5937  1.9962  2.1773
  235MOL    H2833256   4.837   6.911   5.495  0.8926 -0.9018  2.4385
  235MOL    H2933257   4.991   6.923   5.435 -0.7201 -0.3038  0.4833
  235MOL    C3033258   5.173   7.138   5.711 -0.1780  0.1139  0.2346
  235MOL    C3133259   5.310   7.120   5.641 -0.5686 -0.8687  0.7267
  235MOL    O3233260   5.176   7.265   5.762 -0.2875  0.2383  0.4019
  235MOL    H3333261   5.162   7.059   5.786  2.6728 -1.0282 -0.4976
  235MOL    H3433262   5.316   7.196   5.563  0.6570  0.2044  1.8655
  235MOL    H3533263   5.322   7.023   5.591  2.7937 -1.2135  2.0895
  235MOL    H3633264   5.387   7.136   5.716  1.3963 -0.2988 -1.3680
  235MOL    C3733265   5.074   7.288   5.852 -0.3663  0.0699 -0.3627
  235MOL    C3833266   5.140   7.284   5.988  0.4175  1.1410  0.1526
  235MOL    O3933267   5.016   7.407   5.838 -0.2379 -0.6309  0.2443
  235MOL    H4033268   4.997   7.211   5.851 -2.4073  2.0467  0.7049
  235MOL    H4133269   5.206   7.199   5.978 -1.6036 -0.3070 -1.4329
  235MOL    H4233270   5.065   7.290   6.067 -0.2436  0.0350 -0.3755
  235MOL    H4333271   5.203   7.373   5.997  1.1459  0.5377  1.0423
  235MOL    C4433272   4.932   7.421   5.727 -0.3042 -0.1020  0.6043
  235MOL    C4533273   4.785   7.437   5.776 -1.0450 -0.1716 -0.0850
  235MOL    O4633274   4.962   7.531   5.648 -0.5451  0.7612  0.3349
  235MOL    H4733275   4.932   7.332   5.665 -1.5919  1.4205 -1.6676
  235MOL    H4833276   4.752   7.348   5.830 -1.4530 -0.5910 -1.0102
  235MOL    H4933277   4.721   7.445   5.689 -3.2319  2.3182  1.6845
  235MOL    H5033278   4.785   7.530   5.832 -1.3919 -0.7228  0.8367
  235MOL    C5133279   5.080   7.508   5.577  0.4813  0.1106 -0.1222
  235MOL    C5233280   5.035   7.520   5.428 -0.8575  0.1554  0.0130
  235MOL    O5333281   5.176   7.605   5.587 -0.2153  0.7098  0.4002
  235MOL    H5433282   5.123   7.408   5.589  1.0839  0.2533 -1.0391
  235MOL    H5533283   4.965   7.438   5.412 -1.3883  0.1938  2.0547
  235MOL    H5633284   5.126   7.501   5.371 -0.7342  0.4021  0.1274
  235MOL    H5733285   4.987   7.616   5.407  0.1568  0.0256 -3.1439
  235MOL    C5833286   5.258   7.597   5.701  1.3877 -0.1580  1.1680
  235MOL    C5933287   5.395   7.570   5.642  0.2860 -0.7532 -0.5310
  235MOL    O6033288   5.264   7.717   5.764 -0.1647  0.9532  0.2568
  235MOL    H6133289   5.226   7.516   5.765 -2.8836  0.1570 -0.4175
  235MOL    H6233290   5.394   7.462   5.627 -2.1685 -0.8173 -0.1342
  235MOL    H6333291   5.470   7.602   5.714 -1.0879 -0.7299  0.9377
  235MOL    H6433292   5.395   7.629   5.551  1.2139  0.5831  0.3165
  235MOL    C6533293   5.151   7.758   5.833  0.1564  0.1501  0.0893
  235MOL    C6633294   5.175   7.722   5.978 -0.5521  0.1372 -0.5317
  235MOL    O6733295   5.123   7.895   5.835  0.3417  0.2063 -0.4783
  235MOL    H6833296   5.067   7.693   5.812 -0.8302 -0.1450  4.4098
  235MOL    H6933297   5.092   7.750   6.043  0.4017  1.2548  0.2203
  235MOL    H7033298   5.269   7.769   6.005 -0.8810  0.2632  0.4264
  235MOL    H7133299   5.194   7.615   5.984  1.3830  0.5452  0.9218
  235MOL    C7233300   5.061   0.013   5.715  0.0724  0.1335 -0.1428
  235MOL    C7333301   4.920   0.055   5.758  0.2144  0.1508 -0.0095
  235MOL    O7433302   5.115   0.125   5.658  0.2884 -0.2546  0.3625
  235MOL    H7533303   5.062   7.847   5.641  1.5946 -0.1912  0.2120
  235MOL    H7633304   4.852   0.090   5.679  0.2235 -0.5402 -0.3278
  235MOL    H7733305   4.924   0.116   5.848  1.2420  0.4784 -0.2748
  235MOL    H7833306   4.862   7.881   5.786 -3.3904  3.0454  2.0145
  235MOL    C7933307   5.239   0.108   5.591  0.3913  1.4025  0.1863
  235MOL    C8033308   5.209   0.117   5.448 -0.4768 -0.4381  0.8633
  235MOL    O8133309   5.333   0.205   5.625  0.0775  0.3564  0.2208
  235MOL    H8233310   5.275   0.008   5.615 -1.5099  0.9861  1.3241
  235MOL    H8333311   5.152   0.030   5.414  1.6115 -2.0387  1.3492
  235MOL    H8433312   5.305   0.123   5.398  0.0091 -0.0558  1.8195
  235MOL    H8533313   5.155   0.211   5.439 -0.1089 -0.0155  2.7423
  235MOL    C8633314   5.377   0.194   5.755  0.6864 -0.2612 -0.0966
  235MOL    C8733315   5.534   0.172   5.751 -0.3223 -0.1082  1.0598
  235MOL    O8833316   5.347   0.305   5.836 -0.5509  0.2261 -0.4010
  235MOL    H8933317   5.339   0.111   5.814  0.8348  0.3556  0.8871
  235MOL    H9033318   5.591   0.234   5.682  0.2429 -0.4859  1.1869
  235MOL    H9133319   5.546   0.067   5.723  0.5925  0.4681 -0.7719
  235MOL    H9233320   5.567   0.172   5.855  1.6254  0.1631  0.4622
  235MOL    C9333321   5.212   0.312   5.875 -0.4620  0.2727  0.9395
  235MOL    C9433322   5.218   0.322   6.028  0.3265 -0.2962  0.6456
  235MOL    O9533323   5.147   0.431   5.838 -0.1873  0.2182  0.4300
  235MOL    H9633324   5.150   0.228   5.847  0.3986  0.5388 -1.9499
  235MOL    H9733325   5.272   0.405   6.073 -0.7524  0.9105 -0.2564
  235MOL    H9833326   5.259   0.225   6.056  0.0754 -0.7807 -0.6359
  235MOL    H9933327   5.114   0.340   6.055 -0.3191 -0.0882 -1.8798
  235MOL   C10033328   5.099   0.434   5.704  0.5506  0.1491 -0.4642
  235MOL   C10133329   4.947   0.437   5.710 -0.1259  0.1257 -0.2488
  235MOL   O10233330   5.144   0.548   5.634  0.4937  0.5055  0.5854
  235MOL   H10333331   5.143   0.349   5.652  1.6265 -1.4938  2.9461
  235MOL   H10433332   4.922   0.352   5.773 -0.5790 -0.5219 -1.2859
  235MOL   H10533333   4.913   0.421   5.607 -0.7265 -0.6374  0.0645
  235MOL   H10633334   4.910   0.535   5.741  4.9024  1.8804  0.7692
  235MOL   C10733335   5.280   0.550   5.607 -0.1774  0.0691  0.3746
  235MOL   C10833336   5.297   0.548   5.455  0.0943  0.4458 -0.1458
  235MOL   O10933337   5.341   0.667   5.655 -0.8867 -0.4516 -0.0795
  235MOL   H11033338   5.341   0.465   5.636 -1.7581 -1.2932 -0.2299
  235MOL   H11133339   5.228   0.612   5.400  0.3366  0.4231 -0.4771
  235MOL   H11233340   5.279   0.451   5.409  0.3994  0.8005 -1.0307
  235MOL   H11333341   5.397   0.575   5.422  0.1256  1.2338  0.5778
  235MOL   C11433342   5.366   0.676   5.791 -0.7154 -0.5366 -0.0120
  235MOL   C11533343   5.514   0.696   5.804  0.2387  0.2005 -0.2216
  235MOL   O11633344   5.297   0.779   5.859 -0.4156  0.0692  0.0837
  235MOL   H11733345   5.335   0.585   5.842  0.5424  0.2068  2.1445
  235MOL   H11833346   5.561   0.614   5.749 -1.3326 -0.3723 -0.7342
  235MOL   H11933347   5.561   0.693   5.903 -2.0167 -0.4172  0.8461
  235MOL   H12033348   5.539   0.790   5.755 -0.1436  1.6711  2.3193
  235MOL   C12133349   5.174   0.743   5.905 -0.9393  0.9123  0.3921
  235MOL   C12233350   5.195   0.706   6.058  0.3418  0.7286 -0.5928
  235MOL   O12333351   5.087   0.852   5.898  0.0857 -0.1739 -0.0662
  235MOL   H12433352   5.139   0.660   5.844  0.1791  0.0167  0.9456
  235MOL   H12533353   5.255   0.617   6.076  0.3497  0.5706 -1.3665
  235MOL   H12633354   5.103   0.710   6.116  0.9127  1.7391  0.2481
  235MOL   H12733355   5.248   0.786   6.109 -0.6202  0.6563  0.5601
  235MOL   C12833356   5.039   0.867   5.771  0.5136  0.1175 -0.1292
  235MOL   C12933357   4.885   0.841   5.782  0.7658  0.6687  0.4847
  235MOL   O13033358   5.053   1.006   5.728  0.3758  0.5013  0.9714
  235MOL   H13133359   5.084   0.801   5.696 -0.4352 -0.8091  0.1040
  235MOL   H13233360   4.852   0.740   5.806  2.2136  0.0791  0.0606
  235MOL   H13333361   4.834   0.861   5.688  0.8185 -0.1312  0.2773
  235MOL   H13433362   4.842   0.904   5.860  1.1103  0.1465  1.1002
  235MOL   C13533363   5.187   1.047   5.720  0.1156  0.3169  0.3146
  235MOL   C13633364   5.186   1.160   5.623 -0.1839  0.0555 -0.7116
  235MOL   O13733365   5.243   1.081   5.846  0.3762  0.3060 -0.4625
  235MOL   H13833366   5.251   0.969   5.679 -0.3251 -0.5968  1.3494
  235MOL   H13933367   5.129   1.135   5.533 -2.0168 -1.0335  0.7202
  235MOL   H14033368   5.286   1.192   5.592  1.1763 -2.1988  1.2342
  235MOL   H14133369   5.114   1.236   5.654  0.7248  1.2426 -1.4676
  235MOL   H14233370   5.245   1.002   5.899 -2.0056  0.7255  0.2911
  236MOL     C133371   3.864   3.604   1.621  0.2509 -0.7678 -0.4815
  236MOL     C233372   3.848   3.496   1.729  0.1380  0.5413  0.4011
  236MOL     O333373   3.903   3.518   1.512  0.5173  0.1094 -0.2008
  236MOL     H433374   3.957   3.655   1.645  0.1265 -0.6991 -0.1378
  236MOL     H533375   3.805   3.550   1.813 -0.4704  0.5757  0.0660
  236MOL     H633376   3.940   3.450   1.767  1.4730  2.4524 -0.4462
  236MOL     H733377   3.780   3.417   1.698  2.8980 -0.8843 -2.2935
  236MOL     H833378   3.779   3.671   1.607  0.4680 -0.5570 -0.8058
  236MOL     C933379   3.974   3.584   1.411  0.0170  0.3303  0.0865
  236MOL    C1033380   4.126   3.563   1.433 -0.3724 -0.0865 -0.5987
  236MOL    O1133381   3.953   3.524   1.286 -0.8476  0.1483 -0.2416
  236MOL    H1233382   3.956   3.691   1.400 -1.4275  0.0178 -0.6563
  236MOL    H1333383   4.161   3.460   1.423  1.7646  0.5381  0.0925
  236MOL    H1433384   4.167   3.622   1.515  0.9318 -0.3515 -1.0391
  236MOL    H1533385   4.167   3.622   1.350 -0.7984  3.2364  1.4811
  236MOL    C1633386   3.826   3.553   1.233 -0.2217  0.4519 -0.5268
  236MOL    C1733387   3.827   3.656   1.120  0.4896  0.5153  0.6129
  236MOL    O1833388   3.769   3.439   1.184 -0.1324  0.5068 -0.1959
  236MOL    H1933389   3.757   3.597   1.305  1.1783 -0.3814  1.3354
  236MOL    H2033390   3.866   3.615   1.027  0.9711  2.5539 -0.1090
  236MOL    H2133391   3.879   3.749   1.145 -0.7264  1.5996 -0.8090
  236MOL    H2233392   3.726   3.685   1.091  1.0402  1.9012  0.0394
  236MOL    C2333393   3.729   3.353   1.284  0.8530  0.4939  0.1483
  236MOL    C2433394   3.580   3.357   1.288  0.1231  0.3872 -0.1067
  236MOL    O2533395   3.757   3.213   1.249 -0.3986  0.1915 -0.7074
  236MOL    H2633396   3.784   3.362   1.377  0.3073  0.7466  0.4471
  236MOL    H2733397   3.540   3.341   1.188  0.4792  2.9138 -0.7109
  236MOL    H2833398   3.564   3.462   1.312 -2.6068 -0.0858  0.2408
  236MOL    H2933399   3.541   3.288   1.362  0.4340 -1.8758 -1.9773
  236MOL    C3033400   3.889   3.167   1.280  0.5645 -0.1382 -0.2888
  236MOL    C3133401   3.884   3.046   1.370 -0.0847 -0.0949 -0.4215
  236MOL    O3233402   3.949   3.124   1.160  0.0354 -0.2488  0.4688
  236MOL    H3333403   3.954   3.239   1.331 -0.8848  1.3082 -0.4786
  236MOL    H3433404   3.823   2.971   1.320 -1.0000  0.5709 -0.3163
  236MOL    H3533405   3.840   3.071   1.466 -1.5857 -0.0764 -1.1055
  236MOL    H3633406   3.987   3.015   1.390 -1.1145 -1.9944  2.1595
  236MOL    C3733407   3.996   3.220   1.069 -0.0545  0.4393 -0.1410
  236MOL    C3833408   4.149   3.222   1.082 -0.6885 -0.7040 -0.0840
  236MOL    O3933409   3.965   3.172   0.937  0.0054  0.4194 -0.0614
  236MOL    H4033410   3.958   3.320   1.092  2.0835  1.3305 -0.3380
  236MOL    H4133411   4.198   3.290   1.013 -0.6578  0.2624  0.8837
  236MOL    H4233412   4.192   3.123   1.067 -1.6097 -0.9820 -0.8919
  236MOL    H4333413   4.180   3.249   1.183  1.5969  0.4483 -1.0573
  236MOL    C4433414   3.832   3.201   0.916 -0.0865 -0.7155  0.2951
  236MOL    C4533415   3.840   3.315   0.809  0.0244  0.3002  0.5397
  236MOL    O4633416   3.764   3.100   0.864 -0.8407 -0.5064  1.0329
  236MOL    H4733417   3.767   3.241   0.993 -2.4471  1.3146 -2.6338
  236MOL    H4833418   3.890   3.404   0.847 -1.2510  0.2378  2.3895
  236MOL    H4933419   3.738   3.341   0.783 -0.0179 -1.3080 -1.0411
  236MOL    H5033420   3.889   3.267   0.724 -1.4119 -0.2887  0.0209
  236MOL    C5133421   3.722   2.993   0.952  0.0987 -0.2304  0.0720
  236MOL    C5233422   3.576   3.005   0.941  0.5728  0.3517  0.9439
  236MOL    O5333423   3.758   2.865   0.900 -0.0062 -0.5287  0.0556
  236MOL    H5433424   3.758   3.009   1.053  1.0051 -2.2228  0.0945
  236MOL    H5533425   3.529   3.093   0.984  0.3081  1.0089 -0.6354
  236MOL    H5633426   3.517   2.925   0.984  2.6760 -1.2782  0.8891
  236MOL    H5733427   3.555   3.007   0.834  0.3973  0.7208  0.9831
  236MOL    C5833428   3.893   2.846   0.920 -0.3784 -0.1446  0.2100
  236MOL    C5933429   3.910   2.728   1.019 -0.0097  0.1418 -0.4288
  236MOL    O6033430   3.958   2.797   0.806 -0.1598 -0.2529 -0.0090
  236MOL    H6133431   3.961   2.925   0.952 -1.8069  1.1900 -0.0137
  236MOL    H6233432   4.015   2.718   1.046 -0.0560 -0.3751 -0.4369
  236MOL    H6333433   3.866   2.631   0.997  0.2715  0.0225 -0.4687
  236MOL    H6433434   3.861   2.765   1.109  0.2996  1.2018 -0.6840
  236MOL    C6533435   3.977   2.898   0.710 -0.5718 -0.0519 -0.0045
  236MOL    C6633436   4.128   2.896   0.690 -0.3522  0.0379 -0.4333
  236MOL    O6733437   3.933   2.866   0.583  0.4976 -0.2338  0.7070
  236MOL    H6833438   3.954   2.998   0.746 -1.0760  0.3629 -1.4421
  236MOL    H6933439   4.147   2.960   0.604  3.2960 -1.3317 -0.7513
  236MOL    H7033440   4.174   2.797   0.681  0.8884  0.6184 -0.6425
  236MOL    H7133441   4.178   2.923   0.783  0.0127 -0.5237 -0.4600
  236MOL    C7233442   3.802   2.913   0.561  0.0933 -0.3379  0.8832
  236MOL    C7333443   3.818   3.038   0.469  0.2892  0.1640 -0.2050
  236MOL    O7433444   3.727   2.806   0.495  0.8725 -0.6883  0.2985
  236MOL    H7533445   3.752   2.942   0.653  0.3338  1.0689  0.5732
  236MOL    H7633446   3.892   3.017   0.392  0.6955  1.0424 -0.0651
  236MOL    H7733447   3.855   3.121   0.529  0.4068  0.5645 -0.8244
  236MOL    H7833448   3.721   3.069   0.428  0.2334 -0.0083 -0.2015
  236MOL    C7933449   3.680   2.708   0.586  0.3697 -0.3975 -0.2670
  236MOL    C8033450   3.532   2.733   0.626  0.2286 -0.3715  0.1945
  236MOL    O8133451   3.681   2.582   0.526 -0.1570 -0.1275  0.3338
  236MOL    H8233452   3.737   2.714   0.678 -0.7859 -3.0933  0.6674
  236MOL    H8333453   3.512   2.674   0.715 -1.6701 -1.5989 -1.0283
  236MOL    H8433454   3.467   2.712   0.541  0.0353  0.7973  0.0445
  236MOL    H8533455   3.519   2.837   0.656 -0.7086 -1.2870  3.1027
  236MOL    C8633456   3.808   2.522   0.523  0.6000 -0.0087 -0.2859
  236MOL    C8733457   3.814   2.418   0.636  0.7983  0.5449 -0.0981
  236MOL    O8833458   3.818   2.445   0.406 -0.4217  0.3435  0.6403
  236MOL    H8933459   3.889   2.595   0.537 -0.7052  1.1037  1.7113
  236MOL    H9033460   3.733   2.348   0.617 -0.1673  1.4874  0.4477
  236MOL    H9133461   3.803   2.475   0.728  0.9060 -0.4535  0.5380
  236MOL    H9233462   3.912   2.371   0.638 -0.0773 -1.3014  0.7588
  236MOL    C9333463   3.806   2.526   0.289  0.3893  0.5407 -0.5934
  236MOL    C9433464   3.943   2.574   0.240  0.7900 -0.3197 -0.2860
  236MOL    O9533465   3.737   2.454   0.184  0.1837  0.4410  0.2256
  236MOL    H9633466   3.744   2.613   0.308  0.3983  0.5993 -0.8308
  236MOL    H9733467   4.011   2.496   0.204  2.3918  0.6780  0.5162
  236MOL    H9833468   3.991   2.631   0.320 -1.6744  2.0595 -0.4270
  236MOL    H9933469   3.918   2.633   0.152 -1.2368 -1.5670 -0.5870
  236MOL   C10033470   3.615   2.416   0.230 -0.3758  0.3360  0.7125
  236MOL   C10133471   3.514   2.505   0.173  0.1654 -0.0053  0.3559
  236MOL   O10233472   3.590   2.287   0.186 -0.1877  0.7330 -0.3810
  236MOL   H10333473   3.602   2.413   0.338  0.3099 -0.1498  0.7865
  236MOL   H10433474   3.414   2.474   0.205  0.7271 -0.7200  1.4751
  236MOL   H10533475   3.521   2.484   0.067  0.5260 -0.7651  0.5234
  236MOL   H10633476   3.534   2.607   0.205  0.8838  0.5948 -1.9426
  236MOL   C10733477   3.679   2.195   0.241  0.3863 -0.7945  0.7892
  236MOL   C10833478   3.597   2.114   0.343 -0.3898 -0.2949  0.5069
  236MOL   O10933479   3.716   2.100   0.137  0.0157  0.1884 -0.3452
  236MOL   H11033480   3.768   2.242   0.283 -0.6593  1.2086  0.8308
  236MOL   H11133481   3.529   2.047   0.290 -0.4874 -0.3725  0.7275
  236MOL   H11233482   3.554   2.198   0.398  0.3516  1.1416 -1.0837
  236MOL   H11333483   3.673   2.064   0.403 -1.3223 -1.1780  0.9774
  236MOL   C11433484   3.800   2.162   0.041  0.5667  0.3653  0.1305
  236MOL   C11533485   3.938   2.162   0.090  0.3504  0.4040  0.0863
  236MOL   O11633486   3.786   2.088   7.836 -0.1192 -0.3112 -0.6294
  236MOL   H11733487   3.758   2.260   0.019 -1.3786 -0.5020 -0.2013
  236MOL   H11833488   3.947   2.187   0.196 -2.8121 -1.2093  0.8121
  236MOL   H11933489   3.998   2.234   0.035  1.5072 -1.1117 -0.6553
  236MOL   H12033490   3.983   2.063   0.080 -0.9247 -0.1079 -0.7006
  236MOL   C12133491   3.655   2.094   7.776 -0.5533  0.1484 -0.4864
  236MOL   C12233492   3.669   2.183   7.650  0.5653 -0.7067 -0.2526
  236MOL   O12333493   3.614   1.966   7.737 -0.1308  0.2310 -0.2474
  236MOL   H12433494   3.593   2.157   7.840  1.5405  1.0160  0.7513
  236MOL   H12533495   3.741   2.131   7.586 -1.0617 -4.5117  0.8687
  236MOL   H12633496   3.713   2.281   7.669  1.6261 -1.3110  0.4513
  236MOL   H12733497   3.575   2.195   7.596  0.3203  0.8907  0.4932
  236MOL   C12833498   3.571   1.876   7.834 -0.3655 -0.4477 -0.3145
  236MOL   C12933499   3.425   1.906   7.861  0.3790 -0.0546  0.0724
  236MOL   O13033500   3.575   1.748   7.780 -0.2585  0.8027  0.6323
  236MOL   H13133501   3.633   1.886   0.009 -0.0594  0.8205 -0.6636
  236MOL   H13233502   3.411   2.008   7.896  0.3283  0.2240 -0.7622
  236MOL   H13333503   3.377   1.826   0.005 -0.1240  0.0824 -0.1493
  236MOL   H13433504   3.369   1.901   7.768  1.5815 -2.5390 -0.5506
  236MOL   C13533505   3.703   1.701   7.766 -0.2502  0.2426 -0.1875
  236MOL   C13633506   3.718   1.574   7.846 -0.0405 -0.1000  0.2804
  236MOL   O13733507   3.736   1.677   7.627  0.2475  0.5997  0.0054
  236MOL   H13833508   3.776   1.776   7.795  1.6158 -1.2391 -0.9068
  236MOL   H13933509   3.656   1.499   7.797  1.9049 -0.0977 -2.2719
  236MOL   H14033510   3.692   1.598   0.036 -2.3161 -0.3629 -0.1980
  236MOL   H14133511   3.820   1.539   7.833 -1.1573 -3.1032 -0.8195
  236MOL   H14233512   3.732   1.764   7.590 -0.3900  0.5500 -0.0499
  237MOL     C133513   3.890   4.948   0.835 -0.0130  0.0551 -0.5739
  237MOL     C233514   3.802   4.970   0.957 -0.3480  0.7804 -1.0903
  237MOL     O333515   4.000   5.037   0.849  0.1506 -0.3459 -0.1081
  237MOL     H433516   3.844   4.988   0.745 -0.9157 -1.1449 -0.6518
  237MOL     H533517   3.844   4.946   1.055  0.0927  1.4733 -1.1067
  237MOL     H633518   3.708   4.918   0.943  0.0880 -0.8113  1.6384
  237MOL     H733519   3.773   5.074   0.967 -3.5464 -0.2633  1.0985
  237MOL     H833520   3.924   4.848   0.809 -1.2739 -0.6472  0.4466
  237MOL     C933521   4.069   5.078   0.730 -0.5845 -0.1955 -0.4884
  237MOL    C1033522   4.009   5.208   0.680  0.5920 -0.8980  0.6588
  237MOL    O1133523   4.203   5.104   0.761  0.7772 -0.3327 -0.3814
  237MOL    H1233524   4.072   4.997   0.656 -0.3209 -0.0077 -0.6844
  237MOL    H1333525   4.059   5.250   0.593 -0.8973  1.7824  1.0280
  237MOL    H1433526   4.017   5.283   0.759  1.8213  0.6004 -0.8811
  237MOL    H1533527   3.901   5.199   0.663  0.5869 -2.4900  1.3992
  237MOL    C1633528   4.267   4.997   0.828  0.3549 -0.1457 -0.5565
  237MOL    C1733529   4.342   4.918   0.720 -0.1112  0.5460 -0.7919
  237MOL    O1833530   4.364   5.044   0.913  0.5518 -0.4032  0.6381
  237MOL    H1933531   4.203   4.928   0.882 -1.1518  1.8362  0.2751
  237MOL    H2033532   4.389   4.993   0.656  0.9265  2.3601  2.0464
  237MOL    H2133533   4.262   4.861   0.672 -0.6385 -1.7213  2.5825
  237MOL    H2233534   4.413   4.844   0.757 -0.6411 -0.4135 -1.6772
  237MOL    C2333535   4.317   5.109   1.032 -0.1663  0.0927 -0.4352
  237MOL    C2433536   4.234   5.033   1.136  0.0936  0.0227  0.3493
  237MOL    O2533537   4.432   5.157   1.094 -0.3742  0.0665 -0.3308
  237MOL    H2633538   4.266   5.198   0.994 -1.6983 -1.4419 -2.0418
  237MOL    H2733539   4.144   4.998   1.086  0.1027  0.4365  0.0441
  237MOL    H2833540   4.215   5.093   1.226  0.7885  0.5973  0.1224
  237MOL    H2933541   4.288   4.945   1.170 -1.1900 -0.3864  1.3611
  237MOL    C3033542   4.476   5.283   1.056 -0.5262 -0.0466  1.1333
  237MOL    C3133543   4.395   5.381   1.137 -0.7906  0.4809 -0.4001
  237MOL    O3233544   4.611   5.289   1.103  0.1604 -0.1690  0.2403
  237MOL    H3333545   4.467   5.313   0.952  1.4260 -2.5737  0.1673
  237MOL    H3433546   4.426   5.367   1.241  2.0660  2.9131 -0.8530
  237MOL    H3533547   4.288   5.371   1.118 -1.0280  1.1350  0.5642
  237MOL    H3633548   4.418   5.486   1.119  0.4318  0.2386 -0.3433
  237MOL    C3733549   4.702   5.200   1.051  0.2463  0.1292 -0.1008
  237MOL    C3833550   4.807   5.286   0.987  0.5670 -0.0900 -0.1160
  237MOL    O3933551   4.778   5.134   1.150  0.3328  0.1516 -0.0124
  237MOL    H4033552   4.649   5.123   0.994  0.4236  0.0498 -0.1611
  237MOL    H4133553   4.885   5.224   0.943 -0.7061  0.2330 -2.9386
  237MOL    H4233554   4.857   5.345   1.063  2.0677 -1.8920  0.3325
  237MOL    H4333555   4.775   5.354   0.908 -0.0945  1.6254  1.5857
  237MOL    C4433556   4.708   5.029   1.211  0.5818  0.2450 -0.0530
  237MOL    C4533557   4.782   4.898   1.168 -0.2662 -0.3109  0.5715
  237MOL    O4633558   4.709   5.037   1.347 -0.2717  0.5635  0.1979
  237MOL    H4733559   4.603   5.020   1.185 -0.0782 -0.1036  2.5748
  237MOL    H4833560   4.774   4.896   1.059 -1.2813 -4.2812  0.6697
  237MOL    H4933561   4.742   4.805   1.209 -0.8332 -1.0631 -1.6391
  237MOL    H5033562   4.882   4.920   1.207  1.8813 -4.0203 -2.4589
  237MOL    C5133563   4.643   5.143   1.403 -0.1626 -0.1224 -0.2880
  237MOL    C5233564   4.509   5.094   1.448 -0.0501  0.0520 -0.1387
  237MOL    O5333565   4.704   5.186   1.520 -0.3245  0.3694  0.0787
  237MOL    H5433566   4.635   5.222   1.328  0.7017  1.9337  1.7418
  237MOL    H5533567   4.540   5.037   1.536 -0.1799  1.1095  0.5953
  237MOL    H5633568   4.468   5.027   1.372  2.2992 -0.6204 -0.8799
  237MOL    H5733569   4.442   5.178   1.465  0.8668  1.1549 -1.8378
  237MOL    C5833570   4.833   5.240   1.498 -0.3263  0.3557 -0.7644
  237MOL    C5933571   4.815   5.398   1.505 -0.4550 -0.5064 -0.0012
  237MOL    O6033572   4.919   5.203   1.602 -0.4974 -0.2877 -0.2316
  237MOL    H6133573   4.877   5.219   1.400  0.7008 -1.1365 -0.0013
  237MOL    H6233574   4.773   5.427   1.601  1.5417 -0.0739  0.7652
  237MOL    H6333575   4.747   5.433   1.427  1.8397  2.4089 -0.7736
  237MOL    H6433576   4.909   5.453   1.497  0.5523 -2.2566 -0.4370
  237MOL    C6533577   4.977   5.076   1.581 -0.3027  0.4208 -0.0041
  237MOL    C6633578   5.124   5.094   1.561  0.4000  0.2742 -0.4115
  237MOL    O6733579   4.963   4.995   1.694 -0.1043  0.2203  0.1413
  237MOL    H6833580   4.940   5.023   1.494  2.1453 -1.2820 -0.0495
  237MOL    H6933581   5.148   5.150   1.470 -3.0294 -3.1171 -3.5754
  237MOL    H7033582   5.161   4.992   1.558  1.5799  0.6876 -0.3558
  237MOL    H7133583   5.164   5.149   1.646 -0.5031  0.8303 -0.3451
  237MOL    C7233584   4.838   4.957   1.723  0.6137  0.4191  0.3778
  237MOL    C7333585   4.826   4.812   1.678  0.7964 -0.0674 -0.0861
  237MOL    O7433586   4.805   4.954   1.859 -0.0110 -0.1172  0.4323
  237MOL    H7533587   4.753   5.011   1.682 -0.4375 -0.0906  1.8548
  237MOL    H7633588   4.729   4.766   1.695  2.0699 -2.3827  1.0473
  237MOL    H7733589   4.905   4.756   1.727  0.1405 -1.2092 -0.3179
  237MOL    H7833590   4.835   4.809   1.569 -1.2068 -2.0301 -0.2293
  237MOL    C7933591   4.764   5.078   1.908 -0.0682 -0.3370 -0.1995
  237MOL    C8033592   4.613   5.084   1.924 -0.4355  0.8691 -0.2163
  237MOL    O8133593   4.826   5.107   2.031  0.0047 -0.0542  0.6460
  237MOL    H8233594   4.795   5.157   1.840 -2.0062  0.3615 -0.3098
  237MOL    H8333595   4.578   5.182   1.956 -2.2893  0.5828 -1.2438
  237MOL    H8433596   4.589   5.021   2.010 -0.0354  1.0984  0.0642
  237MOL    H8533597   4.569   5.042   1.834  1.9541  0.1831 -1.1108
  237MOL    C8633598   4.956   5.147   2.018  0.6520  0.1078 -0.0349
  237MOL    C8733599   4.962   5.275   2.095 -0.6549  0.1569 -0.5287
  237MOL    O8833600   5.039   5.052   2.080 -0.3706 -0.4880 -0.3799
  237MOL    H8933601   4.987   5.162   1.914 -1.4806 -1.7909 -0.9907
  237MOL    H9033602   5.050   5.334   2.069 -0.4467  0.0897  0.0149
  237MOL    H9133603   4.949   5.262   2.202 -3.0660 -3.8940 -1.1882
  237MOL    H9233604   4.881   5.333   2.052 -1.8967 -0.4375  0.9813
  237MOL    C9333605   5.112   4.970   1.991 -0.9025  0.8417 -0.2891
  237MOL    C9433606   5.232   5.044   1.933 -0.5183  0.4052  0.5766
  237MOL    O9533607   5.154   4.852   2.059  0.5886 -0.1072  0.6766
  237MOL    H9633608   5.045   4.929   1.915 -3.2032 -1.5706  2.8839
  237MOL    H9733609   5.279   5.104   2.010 -0.8152 -0.8805  1.7656
  237MOL    H9833610   5.201   5.113   1.854  0.2141  1.5392  1.2661
  237MOL    H9933611   5.313   4.977   1.904 -0.1654  0.7410  0.7753
  237MOL   C10033612   5.039   4.770   2.097 -0.5958  0.2569  0.9402
  237MOL   C10133613   5.047   4.644   2.003 -0.3233  0.3528 -0.3541
  237MOL   O10233614   5.049   4.726   2.230 -0.3885  0.5666  0.3422
  237MOL   H10333615   4.948   4.828   2.085 -1.1322 -0.9580 -1.3171
  237MOL   H10433616   5.137   4.585   2.013 -0.9990 -0.4808  0.8642
  237MOL   H10533617   5.030   4.687   1.904 -1.5220  0.1013 -0.2621
  237MOL   H10633618   4.964   4.574   2.014  1.6314 -2.0043 -0.4117
  237MOL   C10733619   5.021   4.834   2.320 -0.0343 -0.4058  0.0336
  237MOL   C10833620   4.905   4.794   2.404 -0.3544  0.2211  0.0626
  237MOL   O10933621   5.129   4.845   2.415 -0.5407  0.1697 -0.3224
  237MOL   H11033622   5.002   4.934   2.281 -1.8950 -1.8330 -2.8894
  237MOL   H11133623   4.916   4.689   2.433  0.8503  0.7411  1.5813
  237MOL   H11233624   4.817   4.802   2.341 -1.4900  0.7948  1.6990
  237MOL   H11333625   4.899   4.858   2.492  0.9788  2.3049 -1.3379
  237MOL   C11433626   5.241   4.913   2.368 -0.7562  0.1855  0.0852
  237MOL   C11533627   5.231   5.057   2.425  0.2349 -0.0342  0.3775
  237MOL   O11633628   5.364   4.857   2.400  0.0547 -0.1641 -0.0918
  237MOL   H11733629   5.240   4.909   2.259  3.0524 -0.6628 -0.0075
  237MOL   H11833630   5.154   5.104   2.363 -0.5752 -1.0408  0.5926
  237MOL   H11933631   5.324   5.107   2.398 -0.4880 -0.0673 -2.3367
  237MOL   H12033632   5.206   5.068   2.530 -1.8315  2.1573 -0.2943
  237MOL   C12133633   5.377   4.725   2.340  0.1821  0.7395  0.2325
  237MOL   C12233634   5.484   4.737   2.225  0.6730  0.0849 -0.0077
  237MOL   O12333635   5.431   4.640   2.436  0.3470  0.5277  0.3337
  237MOL   H12433636   5.274   4.693   2.323  0.9170 -1.6349  0.1870
  237MOL   H12533637   5.513   4.639   2.187 -0.4813 -0.4783  0.5642
  237MOL   H12633638   5.576   4.788   2.254 -0.3170  0.8696  1.8551
  237MOL   H12733639   5.441   4.784   2.136  0.3430  1.7770  1.0268
  237MOL   C12833640   5.352   4.619   2.555 -0.2024  0.3059  0.1194
  237MOL   C12933641   5.265   4.504   2.528 -0.2328  0.1558  0.3822
  237MOL   O13033642   5.433   4.583   2.671  0.1637 -0.0941 -0.0887
  237MOL   H13133643   5.298   4.713   2.566  1.2208  0.9049  2.4478
  237MOL   H13233644   5.200   4.532   2.445 -3.5606 -1.0100  2.4775
  237MOL   H13333645   5.196   4.491   2.611 -0.3061  1.4017  0.5138
  237MOL   H13433646   5.321   4.413   2.505 -1.7092 -1.5761  3.3806
  237MOL   C13533647   5.486   4.690   2.743 -0.9907 -0.6475  0.1053
  237MOL   C13633648   5.382   4.752   2.833  0.4805 -0.3263 -0.8782
  237MOL   O13733649   5.599   4.650   2.811  0.4347  0.0954  0.5073
  237MOL   H13833650   5.519   4.768   2.675  3.1118 -1.9403  0.4634
  237MOL   H13933651   5.337   4.674   2.895 -0.0388 -0.1739 -1.0620
  237MOL   H14033652   5.303   4.803   2.777 -0.4342 -2.3889 -1.4917
  237MOL   H14133653   5.422   4.829   2.900 -0.1323 -0.6094 -0.1779
  237MOL   H14233654   5.663   4.648   2.741  0.5044  1.4786  0.5366
  238MOL     C133655   5.233   1.041   3.135  0.4334 -0.5220  0.4465
  238MOL     C233656   5.134   0.932   3.103 -0.3215 -0.8032  0.8363
  238MOL     O333657   5.198   1.161   3.066 -0.2161  0.0365  0.3858
  238MOL     H433658   5.327   1.004   3.095  0.7540  2.7107 -1.9750
  238MOL     H533659   5.040   0.945   3.156  0.0799 -2.0423  1.8670
  238MOL     H633660   5.165   0.834   3.139  0.5521 -0.7321  0.2938
  238MOL     H733661   5.114   0.936   2.996  0.3833  0.5147  0.7373
  238MOL     H833662   5.244   1.057   3.242  1.6016  0.1093  0.2366
  238MOL     C933663   5.293   1.266   3.065  0.2686  0.1768 -0.1417
  238MOL    C1033664   5.381   1.249   2.936 -0.0564  0.0208 -0.2484
  238MOL    O1133665   5.231   1.393   3.064  0.2921  0.1780  0.5845
  238MOL    H1233666   5.350   1.258   3.157  0.8686 -1.2625 -0.6305
  238MOL    H1333667   5.472   1.309   2.934  0.4204 -0.6090  1.5196
  238MOL    H1433668   5.322   1.263   2.846 -1.6833 -1.7210  0.5230
  238MOL    H1533669   5.418   1.146   2.940  0.0550  0.0701  0.0752
  238MOL    C1633670   5.170   1.413   3.188 -0.1175 -0.2703 -0.0603
  238MOL    C1733671   5.261   1.505   3.273 -0.1271  0.1344  0.5872
  238MOL    O1833672   5.044   1.478   3.178 -0.3584  0.3219 -0.0057
  238MOL    H1933673   5.149   1.330   3.255 -0.0779 -0.1780  0.0682
  238MOL    H2033674   5.202   1.551   3.352 -0.5043 -0.2256  0.5097
  238MOL    H2133675   5.281   1.589   3.206 -0.6404 -0.4583 -0.3161
  238MOL    H2233676   5.346   1.451   3.316  2.5736  2.2417 -1.8448
  238MOL    C2333677   4.957   1.403   3.102  0.2035 -1.0570 -0.4765
  238MOL    C2433678   4.833   1.366   3.189  0.2300  0.1372 -0.1905
  238MOL    O2533679   4.903   1.479   2.997  0.3375 -0.3101  0.0914
  238MOL    H2633680   4.999   1.314   3.056  0.3024 -0.1983 -2.0644
  238MOL    H2733681   4.849   1.295   3.270 -1.3711 -0.5093 -0.4329
  238MOL    H2833682   4.756   1.321   3.126  0.4080 -2.6886  1.5429
  238MOL    H2933683   4.788   1.450   3.243  0.9168  0.1658  0.3384
  238MOL    C3033684   4.986   1.517   2.890  0.2861  0.6385 -0.3757
  238MOL    C3133685   4.944   1.425   2.776 -0.0762  0.2639 -0.3773
  238MOL    O3233686   4.959   1.651   2.863  0.0112 -0.5983 -0.5694
  238MOL    H3333687   5.092   1.498   2.907  0.5455  0.8921 -1.6573
  238MOL    H3433688   4.976   1.322   2.792 -1.9811  0.0029  1.9505
  238MOL    H3533689   4.992   1.466   2.687  1.9110  0.6284  0.8383
  238MOL    H3633690   4.836   1.427   2.756  0.0036 -0.4622 -0.9480
  238MOL    C3733691   4.998   1.743   2.958 -0.8222 -0.1990 -0.1845
  238MOL    C3833692   5.141   1.783   2.934 -0.4585 -0.1412  0.5089
  238MOL    O3933693   4.915   1.857   2.946  0.8278  0.3717  0.1215
  238MOL    H4033694   4.989   1.705   3.060  1.8470  0.0510  0.1900
  238MOL    H4133695   5.211   1.699   2.941 -1.5711 -1.3496 -2.3599
  238MOL    H4233696   5.170   1.869   2.994 -0.6127  1.8124 -2.1162
  238MOL    H4333697   5.162   1.817   2.833  2.6675 -0.2228  1.0579
  238MOL    C4433698   4.784   1.847   2.991  0.5428  0.3770 -0.7026
  238MOL    C4533699   4.791   1.883   3.143 -0.3336 -0.6905 -0.4128
  238MOL    O4633700   4.706   1.940   2.922 -0.0989  0.2274 -0.3748
  238MOL    H4733701   4.759   1.742   2.984  1.3425  0.2317 -1.4919
  238MOL    H4833702   4.696   1.916   3.185 -0.8942  1.5782 -3.3085
  238MOL    H4933703   4.864   1.965   3.146 -0.3379 -0.6019 -2.5673
  238MOL    H5033704   4.829   1.795   3.196  1.3136 -0.1308 -0.6407
  238MOL    C5133705   4.711   1.929   2.783 -0.0705 -0.0059  0.7458
  238MOL    C5233706   4.652   1.796   2.738 -0.0313  0.5286 -0.0477
  238MOL    O5333707   4.638   2.029   2.716 -0.0690  0.1256  0.3699
  238MOL    H5433708   4.811   1.937   2.741  1.0542 -0.4080  3.2400
  238MOL    H5533709   4.698   1.709   2.785  1.6458  2.1800  1.4333
  238MOL    H5633710   4.660   1.791   2.629 -1.0191 -0.7996 -0.0776
  238MOL    H5733711   4.546   1.799   2.764  0.0171 -0.5138  0.2987
  238MOL    C5833712   4.669   2.155   2.756  0.3520 -0.3683  0.7068
  238MOL    C5933713   4.724   2.224   2.627 -0.0488  0.1094  0.6248
  238MOL    O6033714   4.557   2.224   2.799  0.7490  0.0745  0.5476
  238MOL    H6133715   4.737   2.144   2.840 -0.2976  0.2712  1.3253
  238MOL    H6233716   4.821   2.177   2.609 -0.2167 -0.1557  0.3854
  238MOL    H6333717   4.751   2.327   2.647 -2.5358  1.0688 -0.7850
  238MOL    H6433718   4.649   2.214   2.548  1.8899  0.3820 -1.3230
  238MOL    C6533719   4.512   2.206   2.931 -0.3495  0.7230  0.2498
  238MOL    C6633720   4.537   2.327   3.006 -0.7556 -0.3495  0.1751
  238MOL    O6733721   4.374   2.174   2.928 -0.0361 -0.1706 -0.2375
  238MOL    H6833722   4.554   2.122   2.987  1.2795  0.6676 -1.0179
  238MOL    H6933723   4.640   2.364   3.006 -1.7213  2.4269  0.7600
  238MOL    H7033724   4.492   2.319   3.105  0.0713 -3.6800  0.3272
  238MOL    H7133725   4.489   2.409   2.953 -0.1279  0.2255  0.4915
  238MOL    C7233726   4.349   2.041   2.893 -0.9891  1.1674 -0.1007
  238MOL    C7333727   4.304   1.968   3.024 -0.1348 -0.2254 -0.3036
  238MOL    O7433728   4.245   2.028   2.799  0.6570 -0.3499 -0.1667
  238MOL    H7533729   4.439   1.991   2.857 -0.8337  2.5999 -1.7763
  238MOL    H7633730   4.375   1.990   3.104  0.3293  0.6869 -0.9496
  238MOL    H7733731   4.299   1.860   3.010  0.2607 -0.2091 -0.5889
  238MOL    H7833732   4.200   1.994   3.045 -0.0938 -0.6783  0.4514
  238MOL    C7933733   4.272   2.076   2.674 -0.7886 -0.5584  0.0933
  238MOL    C8033734   4.266   1.961   2.580  0.3228 -0.0042  0.3156
  238MOL    O8133735   4.177   2.165   2.628  0.2102  0.4022 -0.2456
  238MOL    H8233736   4.371   2.121   2.673 -0.4693 -1.2299 -1.8523
  238MOL    H8333737   4.284   1.989   2.476  0.5986 -2.2290 -0.2552
  238MOL    H8433738   4.170   1.911   2.588  0.0909  0.6708  1.8434
  238MOL    H8533739   4.332   1.883   2.618 -2.2113 -1.2567  2.2459
  238MOL    C8633740   4.184   2.289   2.691  0.1184 -0.1931  0.2652
  238MOL    C8733741   4.272   2.379   2.610 -0.8792 -0.5479 -0.4886
  238MOL    O8833742   4.055   2.351   2.707 -0.0022  0.4172  0.0533
  238MOL    H8933743   4.223   2.273   2.791 -0.8721 -2.1793  0.3620
  238MOL    H9033744   4.367   2.330   2.589 -0.5667 -0.0165 -0.3445
  238MOL    H9133745   4.288   2.474   2.660 -0.1146 -1.0768  0.2751
  238MOL    H9233746   4.229   2.384   2.510 -1.2563 -2.0644 -0.4044
  238MOL    C9333747   3.987   2.306   2.820  0.1309 -0.0661 -1.0838
  238MOL    C9433748   3.962   2.429   2.910  0.0509 -0.1575  0.3037
  238MOL    O9533749   3.862   2.252   2.786 -1.0437 -0.1081  0.0846
  238MOL    H9633750   4.042   2.231   2.878 -0.7230  0.6128  0.6505
  238MOL    H9733751   4.060   2.467   2.939 -0.1751 -0.0734  0.9501
  238MOL    H9833752   3.903   2.407   2.999  0.6444  1.3925  1.0925
  238MOL    H9933753   3.905   2.508   2.861  0.4330  0.2840  0.5744
  238MOL   C10033754   3.866   2.121   2.732 -1.2316  0.0090  0.1223
  238MOL   C10133755   3.816   2.025   2.843 -0.3815  0.0629  0.0554
  238MOL   O10233756   3.791   2.096   2.618  0.1279 -0.4705  0.0747
  238MOL   H10333757   3.967   2.085   2.712 -0.8649 -0.3746  2.4398
  238MOL   H10433758   3.821   1.925   2.801 -1.4140 -1.7171  4.0103
  238MOL   H10533759   3.716   2.065   2.860  0.5318  1.7393  1.6086
  238MOL   H10633760   3.881   2.047   2.927 -0.1141 -0.1070 -0.1065
  238MOL   C10733761   3.843   2.167   2.514 -0.4951 -0.1505  0.2802
  238MOL   C10833762   3.920   2.075   2.419  0.0761  0.0888 -0.1510
  238MOL   O10933763   3.737   2.230   2.445 -0.5608 -0.4467  0.4531
  238MOL   H11033764   3.907   2.251   2.539 -1.3504  0.1248  1.6016
  238MOL   H11133765   3.860   1.986   2.401 -0.3694  0.1499  0.9703
  238MOL   H11233766   4.011   2.044   2.471 -0.4384  0.1119  0.7789
  238MOL   H11333767   3.943   2.125   2.326  0.3627 -0.3795 -0.3336
  238MOL   C11433768   3.651   2.306   2.515 -1.0599 -0.4230  0.3448
  238MOL   C11533769   3.677   2.445   2.456 -0.2010 -0.9202  0.3877
  238MOL   O11633770   3.517   2.281   2.500  0.1901  0.4915 -0.3059
  238MOL   H11733771   3.684   2.314   2.619 -0.1136  0.5669 -0.0192
  238MOL   H11833772   3.638   2.449   2.354 -0.7793  0.3506  0.6533
  238MOL   H11933773   3.782   2.475   2.449 -0.8440  1.5766  1.0060
  238MOL   H12033774   3.627   2.520   2.517  1.0451  0.3097 -0.0930
  238MOL   C12133775   3.482   2.145   2.522  0.7808  0.6842 -0.7641
  238MOL   C12233776   3.430   2.128   2.662 -0.0742  0.0959  0.5487
  238MOL   O12333777   3.381   2.100   2.443 -0.3312 -0.1893 -0.1590
  238MOL   H12433778   3.563   2.074   2.508  0.7649  0.3323  0.7924
  238MOL   H12533779   3.339   2.184   2.688 -0.1674  0.2569 -0.1148
  238MOL   H12633780   3.501   2.148   2.742  1.0300 -0.4881 -0.2713
  238MOL   H12733781   3.401   2.024   2.674 -1.2288 -0.0116 -2.7484
  238MOL   C12833782   3.423   2.063   2.317 -0.2260 -0.1185 -0.4187
  238MOL   C12933783   3.389   1.915   2.308 -0.1433  0.3431 -0.4609
  238MOL   O13033784   3.350   2.134   2.218 -0.6929  0.0302  0.2972
  238MOL   H13133785   3.527   2.086   2.293  1.0015 -2.6551  2.1235
  238MOL   H13233786   3.292   1.913   2.358 -0.4296  1.0130 -0.9844
  238MOL   H13333787   3.462   1.858   2.365  0.8205  1.2091 -0.8108
  238MOL   H13433788   3.380   1.867   2.211  0.2020  2.1515 -1.4243
  238MOL   C13533789   3.367   2.273   2.208  0.2181 -0.0259  0.3397
  238MOL   C13633790   3.316   2.310   2.076  0.3157 -0.1846 -0.2099
  238MOL   O13733791   3.290   2.345   2.306  0.5958  0.4510 -0.3480
  238MOL   H13833792   3.472   2.302   2.213  0.7220 -1.6266 -0.6177
  238MOL   H13933793   3.338   2.413   2.048  0.6722 -0.2325 -0.1113
  238MOL   H14033794   3.208   2.292   2.078  0.0660  1.2965  3.4345
  238MOL   H14133795   3.364   2.240   2.007 -0.4941 -1.7279  0.7502
  238MOL   H14233796   3.328   2.336   2.392  0.4270 -0.3653 -0.3536
  239MOL     C133797   0.070   1.640   3.917 -0.1133 -0.8543 -0.5436
  239MOL     C233798   0.165   1.762   3.944 -0.3456 -0.7221 -0.3413
  239MOL     O333799   0.026   1.568   4.028 -0.2171  0.0145 -0.0153
  239MOL     H433800   0.112   1.563   3.853  2.9304 -0.3417  0.7106
  239MOL     H533801   0.257   1.723   3.990  1.7268  1.7491 -2.2800
  239MOL     H633802   0.117   1.838   4.005  0.7564  0.7173 -1.2308
  239MOL     H733803   0.193   1.814   3.852 -0.5093 -0.5572 -0.2975
  239MOL     H833804   7.905   1.692   3.864  0.9216 -1.2236 -2.4895
  239MOL     C933805   7.858   1.456   4.001  0.6237 -0.5125 -0.2918
  239MOL    C1033806   0.030   1.339   4.040  0.6667 -0.0575 -0.5425
  239MOL    O1133807   7.742   1.458   4.082 -0.0582  0.4245  0.2899
  239MOL    H1233808   7.836   1.459   3.894 -0.4450  0.8668 -0.0609
  239MOL    H1333809   7.902   1.240   4.022 -0.9290  0.3212  0.9338
  239MOL    H1433810   0.043   1.338   4.148  0.4878 -1.1158 -0.5249
  239MOL    H1533811   0.121   1.336   3.980  1.0138 -1.8320  0.0436
  239MOL    C1633812   7.647   1.558   4.047 -0.6793 -0.1670 -0.4729
  239MOL    C1733813   7.509   1.490   4.030  0.6414 -0.4755  0.5390
  239MOL    O1833814   7.627   1.649   4.152 -0.0469 -0.2837  0.1165
  239MOL    H1933815   7.677   1.617   3.960 -1.2961  0.3113 -0.3627
  239MOL    H2033816   7.489   1.429   4.118 -0.7681  0.7071  1.0657
  239MOL    H2133817   7.500   1.442   3.933  2.5305 -0.1345  0.1741
  239MOL    H2233818   7.436   1.571   4.024  0.5510 -0.6451 -0.7542
  239MOL    C2333819   7.700   1.764   4.150 -0.1683  0.6953  0.4297
  239MOL    C2433820   7.605   1.870   4.104 -0.0039 -0.1347 -0.4688
  239MOL    O2533821   7.745   1.799   4.274  0.0031  0.1649  0.2092
  239MOL    H2633822   7.787   1.755   4.086 -0.6510  1.1094 -0.2999
  239MOL    H2733823   7.561   1.860   4.005 -1.1052 -0.4816  0.0471
  239MOL    H2833824   7.659   1.965   4.101 -0.1742  0.0946  2.2308
  239MOL    H2933825   7.523   1.874   4.177 -1.4590 -0.4342 -2.0522
  239MOL    C3033826   7.833   1.707   4.326 -0.0580 -0.7286  0.4466
  239MOL    C3133827   0.060   1.770   4.322  0.8832  0.1786 -0.0255
  239MOL    O3233828   7.814   1.674   4.454  0.0870  0.1383  0.0350
  239MOL    H3333829   7.843   1.619   4.262 -0.3734 -0.6373  0.2718
  239MOL    H3433830   0.075   1.821   4.227 -1.4231 -1.7605 -1.4855
  239MOL    H3533831   0.136   1.696   4.345 -0.7805 -1.6461 -0.2293
  239MOL    H3633832   0.053   1.837   4.408  2.0593 -1.1324  1.1158
  239MOL    C3733833   7.695   1.595   4.474 -0.0788  0.1983  0.2431
  239MOL    C3833834   7.733   1.445   4.488  0.9445  0.1771  0.1077
  239MOL    O3933835   7.630   1.631   4.596 -0.4713 -0.0220  0.1551
  239MOL    H4033836   7.625   1.613   4.393 -1.3196  0.0163  1.2577
  239MOL    H4133837   7.652   1.377   4.511 -0.0248  1.1486 -0.4128
  239MOL    H4233838   7.806   1.435   4.569 -0.5547  0.2215  1.4753
  239MOL    H4333839   7.776   1.417   4.392 -0.6186 -3.0858  0.2873
  239MOL    C4433840   7.564   1.757   4.589  0.4095  0.2495 -0.6660
  239MOL    C4533841   7.416   1.722   4.590 -0.0166  0.2450 -0.5397
  239MOL    O4633842   7.585   1.832   4.707 -0.1941  0.0413 -0.2283
  239MOL    H4733843   7.582   1.822   4.504 -0.8037 -2.8287 -3.3706
  239MOL    H4833844   7.353   1.811   4.580 -0.6070 -0.1010  0.1007
  239MOL    H4933845   7.382   1.667   4.677  0.2314  1.5276  0.3875
  239MOL    H5033846   7.394   1.658   4.505 -0.1165 -0.3646 -0.0572
  239MOL    C5133847   7.722   1.870   4.713 -0.1590 -0.5026 -0.2768
  239MOL    C5233848   7.749   2.005   4.650 -0.4797 -0.6120 -0.0209
  239MOL    O5333849   7.767   1.882   4.847 -0.0006  0.2629  1.3109
  239MOL    H5433850   7.789   1.798   4.667 -1.3351 -1.5164 -0.4380
  239MOL    H5533851   7.687   2.083   4.693  0.2458 -0.6700  1.1445
  239MOL    H5633852   7.736   2.005   4.542  1.1600  2.5618 -0.2703
  239MOL    H5733853   7.851   2.035   4.673 -0.3515 -2.1770  1.5702
  239MOL    C5833854   7.783   1.753   4.910  1.0602 -0.5457 -0.1932
  239MOL    C5933855   0.013   1.762   4.957  0.7072  0.3385 -0.2675
  239MOL    O6033856   7.715   1.747   5.033 -0.1553  0.1639  0.5398
  239MOL    H6133857   7.766   1.664   4.850  0.1181 -0.4154 -0.1330
  239MOL    H6233858   0.042   1.855   5.007 -0.3467  0.8546 -0.6107
  239MOL    H6333859   0.075   1.755   4.867 -0.1909  1.3468 -0.9823
  239MOL    H6433860   0.045   1.674   5.012  1.7152  0.7481 -0.1764
  239MOL    C6533861   7.582   1.711   5.025 -0.2640 -0.0336  0.2607
  239MOL    C6633862   7.578   1.560   5.047 -0.7991 -0.1024 -0.7234
  239MOL    O6733863   7.490   1.776   5.112 -0.3574 -0.1697 -0.1858
  239MOL    H6833864   7.543   1.732   4.925 -0.6006 -0.7663  0.2355
  239MOL    H6933865   7.476   1.525   5.032  0.0746 -2.5109 -1.2761
  239MOL    H7033866   7.604   1.536   5.150  1.5086 -0.1409 -1.2876
  239MOL    H7133867   7.640   1.508   4.975 -1.7826  0.0420 -1.6844
  239MOL    C7233868   7.511   1.913   5.115 -0.4581 -0.7439 -0.2174
  239MOL    C7333869   7.429   1.982   5.006  0.1385 -0.2840  0.0434
  239MOL    O7433870   7.447   1.964   5.233  0.2227 -0.5227  0.3383
  239MOL    H7533871   7.617   1.939   5.108 -0.2730 -1.5441 -0.3932
  239MOL    H7633872   7.456   1.931   4.913  0.6686 -0.3199  0.2199
  239MOL    H7733873   7.454   2.088   5.012  0.2235 -0.3307  0.5136
  239MOL    H7833874   7.324   1.959   5.024  0.1372 -1.3401 -1.2043
  239MOL    C7933875   7.519   1.941   5.351  0.3344  0.5139  0.0621
  239MOL    C8033876   7.591   2.072   5.397 -0.1191  0.5821 -0.0423
  239MOL    O8133877   7.428   1.906   5.454 -0.2514 -0.3629  0.0312
  239MOL    H8233878   7.594   1.862   5.344  0.5926  0.7407  0.2437
  239MOL    H8333879   7.513   2.147   5.411 -2.1100 -1.6267  1.1199
  239MOL    H8433880   7.663   2.108   5.324  0.9994 -2.0642 -0.2883
  239MOL    H8533881   7.637   2.057   5.495  0.7126 -0.3319 -0.5674
  239MOL    C8633882   7.374   1.782   5.432 -0.2825 -0.0359 -0.4968
  239MOL    C8733883   7.458   1.688   5.520  0.3491  0.0179 -0.1074
  239MOL    O8833884   7.242   1.784   5.480  0.1293 -0.4114 -0.2056
  239MOL    H8933885   7.363   1.741   5.332  0.0742 -2.5886  0.4566
  239MOL    H9033886   7.399   1.605   5.560  0.6624 -1.3493 -2.3333
  239MOL    H9133887   7.509   1.752   5.591 -0.0395 -0.3776  0.5279
  239MOL    H9233888   7.532   1.641   5.454 -0.3590 -0.7488 -0.3635
  239MOL    C9333889   7.151   1.856   5.396  0.2330  0.3753 -0.2365
  239MOL    C9433890   7.053   1.753   5.347  0.0089 -0.2895 -0.0254
  239MOL    O9533891   7.072   1.944   5.476  0.6083 -0.3590  0.1973
  239MOL    H9633892   7.203   1.919   5.324  2.1299  0.8188  1.4833
  239MOL    H9733893   7.011   1.704   5.436  1.3291  0.2165  0.8891
  239MOL    H9833894   7.104   1.681   5.283  0.2068  1.5506 -1.9868
  239MOL    H9933895   6.981   1.794   5.277  0.1475 -1.7968 -1.0876
  239MOL   C10033896   7.120   2.074   5.503 -0.4514 -0.4614  0.3167
  239MOL   C10133897   7.066   2.180   5.400 -0.4358  0.4651 -0.1903
  239MOL   O10233898   7.082   2.106   5.632  0.1485 -0.0052 -0.3738
  239MOL   H10333899   7.227   2.069   5.483 -0.4155 -0.3451  0.4781
  239MOL   H10433900   7.101   2.154   5.300  2.7910  2.9004  0.2376
  239MOL   H10533901   7.109   2.279   5.414  0.9547 -0.2711  0.8254
  239MOL   H10633902   6.957   2.187   5.399 -0.5308  0.3521  3.0250
  239MOL   C10733903   7.167   2.057   5.731 -0.7049 -0.5817  0.4189
  239MOL   C10833904   7.263   2.168   5.773 -0.4039 -0.3226  0.5499
  239MOL   O10933905   7.093   2.010   5.840 -0.0518 -0.2441 -0.0611
  239MOL   H11033906   7.225   1.970   5.699 -0.6362 -0.3078 -0.2005
  239MOL   H11133907   7.210   2.249   5.825  2.0457  0.8536  1.2894
  239MOL   H11233908   7.328   2.203   5.693 -1.5165 -0.5395 -0.4485
  239MOL   H11333909   7.331   2.122   5.845 -1.3401 -0.2720  1.4801
  239MOL   C11433910   7.012   1.900   5.816  0.0166  0.6370 -0.0059
  239MOL   C11533911   7.088   1.765   5.860 -0.2688 -0.5769 -0.1291
  239MOL   O11633912   6.898   1.914   5.896 -0.0756 -0.3310  0.4216
  239MOL   H11733913   6.983   1.882   5.712  1.3533  0.3703 -0.3493
  239MOL   H11833914   7.120   1.785   5.962 -3.0299 -0.2817  0.7027
  239MOL   H11933915   7.167   1.741   5.788 -2.0068 -1.3060 -1.8508
  239MOL   H12033916   7.009   1.691   5.848  1.0378 -1.9250 -0.6662
  239MOL   C12133917   6.805   2.010   5.845  0.5069 -0.0321  0.0244
  239MOL   C12233918   6.688   1.944   5.788 -0.1406  0.1907 -0.0488
  239MOL   O12333919   6.751   2.100   5.933 -0.4919 -0.1538  0.3471
  239MOL   H12433920   6.847   2.061   5.759 -0.1130  2.4909  1.1605
  239MOL   H12533921   6.637   2.022   5.731  1.1142  0.8860 -0.2486
  239MOL   H12633922   6.628   1.899   5.866 -1.0320 -1.6287 -1.7398
  239MOL   H12733923   6.719   1.857   5.731 -0.6930  0.5449 -0.9123
  239MOL   C12833924   6.848   2.195   5.969  0.3099  0.4674 -0.8636
  239MOL   C12933925   6.778   2.323   5.934  0.0944  0.8674  0.4546
  239MOL   O13033926   6.869   2.196   6.111  0.0834 -0.1407  0.3237
  239MOL   H13133927   6.941   2.191   5.913  1.3844  1.0888  0.8243
  239MOL   H13233928   6.852   2.403   5.945 -0.7967  1.6401  0.8247
  239MOL   H13333929   6.690   2.349   5.991  0.4727  0.5356  1.1928
  239MOL   H13433930   6.757   2.337   5.828  1.9305  0.5676  0.0208
  239MOL   C13533931   6.994   2.142   6.146  0.0932  0.0129  0.0296
  239MOL   C13633932   7.026   2.177   6.291 -0.0345  0.1194  0.1970
  239MOL   O13733933   6.994   2.002   6.138  0.4516 -0.0327  0.5048
  239MOL   H13833934   7.064   2.180   6.071  1.4801 -3.2580 -0.4610
  239MOL   H13933935   7.065   2.278   6.304 -1.4963  1.0389 -2.2137
  239MOL   H14033936   7.109   2.113   6.322  0.0702  0.4339  0.5648
  239MOL   H14133937   6.942   2.155   6.356  2.5119 -1.2394  3.1759
  239MOL   H14233938   6.980   1.981   6.047 -1.5048  1.5225  0.4282
  240MOL     C133939   3.952   7.500   2.104 -0.0585 -0.0157  0.0574
  240MOL     C233940   3.973   7.560   2.236  0.0271  0.0587 -0.3082
  240MOL     O333941   3.846   7.559   2.030  0.7721 -0.0347 -0.5022
  240MOL     H433942   3.936   7.392   2.107  1.2369 -0.3039 -2.6445
  240MOL     H533943   3.900   7.518   2.305  0.9165  1.4834  1.5640
  240MOL     H633944   3.959   7.668   2.228 -0.8525  0.1792  2.4187
  240MOL     H733945   4.072   7.544   2.279 -0.4102 -1.2610  0.2406
  240MOL     H833946   4.043   7.515   2.047 -0.4934 -0.3361 -0.7276
  240MOL     C933947   3.795   7.490   1.917  0.4130  0.2317  0.2099
  240MOL    C1033948   3.690   7.396   1.960  0.3152 -0.0079 -0.0681
  240MOL    O1133949   3.729   7.594   1.833  0.2488  0.0008  0.2317
  240MOL    H1233950   3.866   7.428   1.861 -0.7844  0.4981 -1.6593
  240MOL    H1333951   3.699   7.359   2.062  0.1011  3.2142  1.1777
  240MOL    H1433952   3.688   7.320   1.882  0.4928 -0.0887  0.0070
  240MOL    H1533953   3.592   7.444   1.956  0.8149  0.9892 -0.7413
  240MOL    C1633954   3.822   7.697   1.798 -0.7149 -0.4503  0.1870
  240MOL    C1733955   3.844   7.682   1.654  0.3191  0.2182 -0.0309
  240MOL    O1833956   3.760   7.825   1.817 -0.3704 -0.3332  0.1305
  240MOL    H1933957   3.918   7.690   1.848 -1.8152 -2.1099  2.1393
  240MOL    H2033958   3.905   7.764   1.618 -1.2611  2.1477  1.5452
  240MOL    H2133959   3.745   7.692   1.610 -0.0572 -2.2203  0.1961
  240MOL    H2233960   3.890   7.588   1.625 -1.8506 -0.8897  0.0186
  240MOL    C2333961   3.781   7.877   1.949 -0.3559 -1.5317  0.6593
  240MOL    C2433962   3.852   0.100   1.930  0.1307 -0.0988  0.8634
  240MOL    O2533963   3.662   0.004   2.006 -0.1969 -0.0018  0.2341
  240MOL    H2633964   3.843   7.819   2.016  0.9900 -1.1405 -0.2125
  240MOL    H2733965   3.844   0.165   2.017 -0.6122 -0.9474  1.4461
  240MOL    H2833966   3.797   0.154   1.852 -0.5720  1.6734  2.5618
  240MOL    H2933967   3.959   0.098   1.910  0.1532 -1.6550  1.0706
  240MOL    C3033968   3.580   7.814   2.045  0.3437  0.0185 -0.0056
  240MOL    C3133969   3.600   7.806   2.198  0.2460  0.5757 -0.1310
  240MOL    O3233970   3.446   7.847   2.028 -0.0783 -0.2805  0.0118
  240MOL    H3333971   3.604   7.727   1.983  2.3911  1.6223 -1.5160
  240MOL    H3433972   3.607   7.907   2.237  0.3974  0.5722 -0.1464
  240MOL    H3533973   3.703   7.780   2.222 -0.0760  1.2930  2.1038
  240MOL    H3633974   3.524   7.744   2.246 -0.2531  1.1504 -0.1831
  240MOL    C3733975   3.408   7.848   1.897  0.8151 -0.5119 -0.0755
  240MOL    C3833976   3.311   7.726   1.893 -0.1939  0.3201 -0.1289
  240MOL    O3933977   3.337   0.051   1.854 -0.6105 -0.0879 -0.3639
  240MOL    H4033978   3.493   7.832   1.831 -0.5449  1.6193 -2.4574
  240MOL    H4133979   3.224   7.749   1.955 -0.6498 -0.8384 -0.3276
  240MOL    H4233980   3.365   7.648   1.948 -1.8441 -1.5358 -1.0711
  240MOL    H4333981   3.286   7.701   1.790  0.6274  1.0152 -0.5021
  240MOL    C4433982   3.415   0.157   1.815 -0.4579  0.2625  0.8764
  240MOL    C4533983   3.376   0.183   1.670  0.2719  0.4761  0.5369
  240MOL    O4633984   3.391   0.274   1.883  0.2613  0.2332  0.0820
  240MOL    H4733985   3.519   0.126   1.826 -0.7547 -0.7888  0.8238
  240MOL    H4833986   3.382   0.087   1.620  2.3926  1.6589 -1.5572
  240MOL    H4933987   3.443   0.257   1.627  2.5913 -2.3557 -0.9175
  240MOL    H5033988   3.273   0.217   1.662  0.4644  0.6996 -1.2259
  240MOL    C5133989   3.452   0.279   2.013  0.5075  0.3065  0.5999
  240MOL    C5233990   3.569   0.379   2.006 -0.0172  0.0866  0.3372
  240MOL    O5333991   3.375   0.331   2.111 -0.4685  0.5316  0.1432
  240MOL    H5433992   3.492   0.180   2.033 -0.7645 -0.7747 -1.9550
  240MOL    H5533993   3.625   0.374   2.100  1.5687 -1.0767 -0.6434
  240MOL    H5633994   3.534   0.480   1.986 -1.3055 -0.5861 -0.9320
  240MOL    H5733995   3.641   0.350   1.929  0.7610  0.4858  0.9086
  240MOL    C5833996   3.285   0.235   2.150 -0.0692 -0.4493 -0.1885
  240MOL    C5933997   3.323   0.201   2.295 -0.4891 -0.1461 -0.6701
  240MOL    O6033998   3.145   0.276   2.152  0.3068 -0.1237  0.0688
  240MOL    H6133999   3.295   0.144   2.091 -0.6339 -0.2381 -0.6114
  240MOL    H6234000   3.331   0.295   2.350  0.6117  0.2661 -1.5180
  240MOL    H6334001   3.421   0.154   2.286  0.2120  1.1996 -0.2405
  240MOL    H6434002   3.259   0.127   2.341 -1.4963  1.0169 -0.1562
  240MOL    C6534003   3.073   0.263   2.029 -0.6453 -0.9620 -0.2312
  240MOL    C6634004   2.957   0.156   2.056 -0.3938  0.3550  0.1528
  240MOL    O6734005   3.017   0.385   1.991 -0.2715 -1.1050 -0.0736
  240MOL    H6834006   3.134   0.224   1.948 -3.1112 -0.4437 -2.3858
  240MOL    H6934007   3.002   0.068   2.102 -0.6915  1.2195  2.1302
  240MOL    H7034008   2.912   0.134   1.959  1.3159 -1.4970 -0.2461
  240MOL    H7134009   2.883   0.195   2.126  1.2175  0.3451  1.8858
  240MOL    C7234010   3.109   0.483   1.952 -0.3466 -0.7987  0.1175
  240MOL    C7334011   3.096   0.484   1.802 -0.3704 -0.6271 -0.3980
  240MOL    O7434012   3.082   0.604   2.018  0.3716  0.1639  0.3456
  240MOL    H7534013   3.210   0.462   1.990  0.1472 -0.2738 -0.8982
  240MOL    H7634014   3.168   0.550   1.753  0.0389 -1.9272 -1.5579
  240MOL    H7734015   2.998   0.517   1.768 -0.4551 -0.8215 -0.3434
  240MOL    H7834016   3.115   0.383   1.765 -1.0598 -0.3317 -1.5695
  240MOL    C7934017   3.135   0.617   2.143 -0.3107  0.0155  0.4536
  240MOL    C8034018   3.248   0.721   2.130  0.0257  0.1256 -0.4061
  240MOL    O8134019   3.038   0.666   2.230  0.6624  1.1119  0.3565
  240MOL    H8234020   3.166   0.523   2.190  0.2581 -0.1488 -0.2520
  240MOL    H8334021   3.286   0.749   2.228  3.3085 -1.4576 -1.1256
  240MOL    H8434022   3.219   0.811   2.075 -2.3263 -0.8508 -0.8101
  240MOL    H8534023   3.346   0.686   2.095  0.0557 -1.3803  1.1586
  240MOL    C8634024   2.952   0.568   2.291 -0.0050 -0.1183  0.2315
  240MOL    C8734025   3.016   0.529   2.424  0.2612 -0.3406 -0.2878
  240MOL    O8834026   2.823   0.622   2.317  0.8237  0.4108  0.1007
  240MOL    H8934027   2.938   0.486   2.221  2.0206  0.3391 -0.7278
  240MOL    H9034028   3.109   0.476   2.408  0.6250  0.8962 -2.4330
  240MOL    H9134029   2.952   0.466   2.486 -0.8130 -1.1689 -2.2153
  240MOL    H9234030   3.048   0.622   2.471 -0.6190  1.0362 -2.3762
  240MOL    C9334031   2.752   0.662   2.203  0.4798  0.7208 -0.2231
  240MOL    C9434032   2.652   0.553   2.174 -0.3430 -0.4706 -0.0323
  240MOL    O9534033   2.693   0.795   2.228 -0.6831  0.4775  0.2764
  240MOL    H9634034   2.810   0.674   2.112  0.3187  0.9397 -0.2973
  240MOL    H9734035   2.579   0.525   2.250 -1.1989 -1.6757 -1.2833
  240MOL    H9834036   2.713   0.469   2.141  0.1289  0.2489 -0.9946
  240MOL    H9934037   2.592   0.577   2.087 -0.9521  0.0316  0.5196
  240MOL   C10034038   2.791   0.893   2.247 -0.0013 -1.0533  0.1630
  240MOL   C10134039   2.779   0.986   2.127  0.3746 -0.1569  0.4323
  240MOL   O10234040   2.753   0.971   2.355  0.1625  0.2583 -0.6538
  240MOL   H10334041   2.890   0.847   2.256  0.1620 -0.9571 -1.1031
  240MOL   H10434042   2.837   0.946   2.044  0.4608 -0.9538  0.8629
  240MOL   H10534043   2.813   1.088   2.144  0.3603 -0.2539  1.0455
  240MOL   H10634044   2.676   0.989   2.091  0.2039 -0.9943  0.8141
  240MOL   C10734045   2.762   0.897   2.475 -0.1745 -0.2253 -0.1949
  240MOL   C10834046   2.902   0.933   2.531  0.9087  0.0610 -0.1634
  240MOL   O10934047   2.668   0.943   2.563  0.4344 -0.0989 -0.6377
  240MOL   H11034048   2.744   0.790   2.465  2.2725 -0.6802  0.0232
  240MOL   H11134049   2.983   0.893   2.470  0.4654 -2.2160  0.6683
  240MOL   H11234050   2.906   0.881   2.627  4.4562 -0.4300 -0.5198
  240MOL   H11334051   2.918   1.039   2.550 -0.7160  0.7902 -2.7016
  240MOL   C11434052   2.541   0.890   2.534  0.0100 -0.2702  0.2999
  240MOL   C11534053   2.515   0.783   2.640  0.3514 -0.2210 -0.0561
  240MOL   O11634054   2.436   0.980   2.542 -0.1668  0.2457  0.1961
  240MOL   H11734055   2.540   0.856   2.430 -3.2446 -0.0190  0.1873
  240MOL   H11834056   2.421   0.731   2.619 -0.7596  2.1373 -1.0568
  240MOL   H11934057   2.516   0.832   2.737 -2.7062  2.6030 -1.3712
  240MOL   H12034058   2.596   0.710   2.634 -1.2255 -2.1349  1.1942
  240MOL   C12134059   2.415   1.059   2.431  0.5584  0.0085 -0.1325
  240MOL   C12234060   2.276   1.014   2.386 -0.8062 -0.1656 -0.4001
  240MOL   O12334061   2.403   1.194   2.469  0.9416 -0.2070  0.1547
  240MOL   H12434062   2.497   1.053   2.359  1.2418  0.2031  0.6297
  240MOL   H12534063   2.250   1.055   2.289  0.6190  1.0217 -0.2997
  240MOL   H12634064   2.198   1.053   2.451 -0.4961  0.4365 -0.3831
  240MOL   H12734065   2.264   0.907   2.377 -0.8902 -0.2024  0.1208
  240MOL   C12834066   2.521   1.255   2.500  0.1432  0.3423 -0.1250
  240MOL   C12934067   2.582   1.320   2.370 -0.0768 -0.1256  0.0627
  240MOL   O13034068   2.497   1.356   2.586  0.4153  0.3129  0.6085
  240MOL   H13134069   2.591   1.185   2.547 -0.3369  0.4007  0.6878
  240MOL   H13234070   2.513   1.389   2.321 -0.8275 -1.2330 -0.4786
  240MOL   H13334071   2.597   1.245   2.292 -0.5257 -0.6100  0.4396
  240MOL   H13434072   2.679   1.366   2.387  1.0923 -1.4150 -2.8704
  240MOL   C13534073   2.474   1.308   2.714 -0.0747  0.7509  0.2003
  240MOL   C13634074   2.605   1.292   2.789 -0.5702  0.0818  0.5199
  240MOL   O13734075   2.391   1.390   2.792  0.3495  0.4080  0.1373
  240MOL   H13834076   2.418   1.215   2.710 -0.3548  0.8531  1.4946
  240MOL   H13934077   2.655   1.201   2.755 -1.4839  0.2248 -1.3108
  240MOL   H14034078   2.582   1.287   2.895  1.9341 -0.5723  1.0610
  240MOL   H14134079   2.679   1.371   2.779 -2.0493  1.2429 -1.5453
  240MOL   H14234080   2.319   1.411   2.734 -1.0075  0.9801  2.0098
  241MOL     C134081   4.133   6.198   5.113  0.3132  0.0392 -0.4696
  241MOL     C234082   4.231   6.223   5.226 -0.6852 -0.4619  0.3154
  241MOL     O334083   4.012   6.257   5.153  0.2397 -0.8841 -0.5825
  241MOL     H434084   4.123   6.090   5.099 -0.5068 -0.1041  1.1156
  241MOL     H534085   4.329   6.181   5.205 -0.7014 -0.7818  0.8930
  241MOL     H634086   4.184   6.168   5.307  2.4114 -2.6748  0.7034
  241MOL     H734087   4.252   6.327   5.251 -1.1544 -1.3312  4.7305
  241MOL     H834088   4.178   6.240   5.023  0.8370 -1.3242 -0.8683
  241MOL     C934089   3.916   6.255   5.052  0.8298  0.2491  0.5242
  241MOL    C1034090   3.853   6.114   5.049 -0.0737  0.8008 -0.1770
  241MOL    O1134091   3.821   6.347   5.086  0.2028 -0.0624  0.1542
  241MOL    H1234092   3.960   6.287   4.957  0.2589 -0.1086  0.1283
  241MOL    H1334093   3.772   6.122   4.976 -0.3600 -0.1345  0.0313
  241MOL    H1434094   3.821   6.091   5.151 -1.4219  0.6737 -0.6130
  241MOL    H1534095   3.926   6.036   5.030 -0.4859 -0.0863  1.7555
  241MOL    C1634096   3.866   6.477   5.084 -0.0514 -0.4392 -0.2887
  241MOL    C1734097   3.811   6.541   4.960  0.7016 -0.9586  0.1371
  241MOL    O1834098   3.815   6.553   5.187 -0.0753 -0.4028  0.0932
  241MOL    H1934099   3.974   6.488   5.085  0.1630 -2.3350  0.9259
  241MOL    H2034100   3.849   6.485   4.874  2.2528 -0.3829  0.4483
  241MOL    H2134101   3.847   6.643   4.957  2.3562 -1.4567  2.3286
  241MOL    H2234102   3.702   6.543   4.958  0.6529 -2.8294 -0.1603
  241MOL    C2334103   3.874   6.523   5.311 -0.3306 -0.1758  0.1556
  241MOL    C2434104   3.986   6.625   5.336 -0.3514  0.5473 -0.8233
  241MOL    O2534105   3.777   6.531   5.409 -0.0742 -0.1369  0.2868
  241MOL    H2634106   3.914   6.422   5.317  1.4072  0.3341 -2.2689
  241MOL    H2734107   4.025   6.609   5.437  0.0557 -0.0867 -1.0800
  241MOL    H2834108   3.942   6.725   5.330  0.5186  1.0344  0.4879
  241MOL    H2934109   4.059   6.610   5.257  1.1889  1.3820  0.4084
  241MOL    C3034110   3.667   6.446   5.380  0.6094 -0.5176 -0.2622
  241MOL    C3134111   3.671   6.327   5.471 -0.1909 -1.0833 -0.7675
  241MOL    O3234112   3.553   6.525   5.410  0.3721  0.4566 -0.0652
  241MOL    H3334113   3.651   6.422   5.275 -3.9507 -1.3673  0.5556
  241MOL    H3434114   3.668   6.344   5.579 -1.5902  1.5507 -1.1785
  241MOL    H3534115   3.759   6.276   5.431  1.1588  0.0053  0.7218
  241MOL    H3634116   3.578   6.273   5.452 -0.3215 -1.0904 -0.1258
  241MOL    C3734117   3.531   6.630   5.323  0.1092 -0.1078 -0.8786
  241MOL    C3834118   3.407   6.591   5.242 -0.3901 -0.0850 -0.2107
  241MOL    O3934119   3.509   6.748   5.399  0.0856 -0.4667  0.2533
  241MOL    H4034120   3.606   6.646   5.245 -0.5280  0.5304 -1.3631
  241MOL    H4134121   3.326   6.578   5.313  1.2591 -1.6221  1.4243
  241MOL    H4234122   3.431   6.513   5.170 -0.8003 -0.3354 -0.0800
  241MOL    H4334123   3.376   6.672   5.176  0.4633  0.6459  0.2739
  241MOL    C4434124   3.625   6.822   5.424 -0.1380 -0.2499 -0.6786
  241MOL    C4534125   3.640   6.945   5.333  0.1701 -0.0907 -0.4177
  241MOL    O4634126   3.607   6.876   5.551  0.0173 -0.0440  0.2768
  241MOL    H4734127   3.714   6.760   5.411 -1.5440 -2.2247 -0.9995
  241MOL    H4834128   3.562   7.021   5.345  0.2928 -0.0099 -0.1293
  241MOL    H4934129   3.641   6.915   5.228  0.9546  1.2684 -0.8133
  241MOL    H5034130   3.735   6.996   5.350  1.0042 -1.6100 -0.4516
  241MOL    C5134131   3.627   6.790   5.658 -0.6686  0.6058 -0.6186
  241MOL    C5234132   3.763   6.818   5.710 -0.2334  0.5166  0.4638
  241MOL    O5334133   3.541   6.816   5.769  0.0796 -0.1704 -0.2985
  241MOL    H5434134   3.640   6.685   5.631 -1.3002  0.8089 -1.7639
  241MOL    H5534135   3.831   6.786   5.631 -1.3224 -1.2296  0.2226
  241MOL    H5634136   3.783   6.773   5.807  1.7765  0.4175  0.0282
  241MOL    H5734137   3.777   6.926   5.715 -1.6047  0.7765 -1.0901
  241MOL    C5834138   3.423   6.748   5.753  0.3540 -0.2388 -0.5007
  241MOL    C5934139   3.407   6.642   5.857 -0.9352 -0.0501 -0.0859
  241MOL    O6034140   3.315   6.839   5.779  0.6883  0.1397 -0.0416
  241MOL    H6134141   3.406   6.704   5.655  0.1534 -2.2622  0.4110
  241MOL    H6234142   3.424   6.692   5.953  1.5771  0.1230 -0.5747
  241MOL    H6334143   3.480   6.561   5.845 -0.1584  0.6161  0.0772
  241MOL    H6434144   3.309   6.597   5.839 -0.1210 -2.0321  0.2958
  241MOL    C6534145   3.291   6.924   5.669  0.0889 -0.2457 -0.2449
  241MOL    C6634146   3.161   6.883   5.598 -0.3407  0.4505 -0.0190
  241MOL    O6734147   3.271   7.054   5.708 -0.8338 -0.1412  0.6288
  241MOL    H6834148   3.364   6.924   5.588 -0.6287 -1.7817 -0.9113
  241MOL    H6934149   3.079   6.843   5.658 -1.0268 -1.0710 -1.9347
  241MOL    H7034150   3.184   6.816   5.515 -1.9293 -0.6273  0.3907
  241MOL    H7134151   3.123   6.979   5.563 -1.2687  0.5460  1.1955
  241MOL    C7234152   3.395   7.117   5.743  0.6241 -0.3456  0.3807
  241MOL    C7334153   3.433   7.228   5.639  0.3203 -0.9779 -0.1126
  241MOL    O7434154   3.377   7.193   5.855  0.0689  0.7652  0.3297
  241MOL    H7534155   3.479   7.048   5.750  0.1940 -0.8793  0.3221
  241MOL    H7634156   3.368   7.315   5.647  2.7479  0.8933 -0.0753
  241MOL    H7734157   3.428   7.190   5.537 -0.9681 -0.0426 -0.4139
  241MOL    H7834158   3.535   7.255   5.667  0.6164 -0.6577 -1.4382
  241MOL    C7934159   3.365   7.120   5.973  0.2666 -1.3834  0.0411
  241MOL    C8034160   3.473   7.174   6.072 -0.1369  0.6990 -0.8948
  241MOL    O8134161   3.245   7.132   6.039  0.0294  0.2612 -0.3373
  241MOL    H8234162   3.378   7.015   5.949 -2.9772 -1.2270 -2.7931
  241MOL    H8334163   3.466   7.280   6.096  2.8952  0.5268  0.9898
  241MOL    H8434164   3.566   7.155   6.017  0.3420 -0.4775  0.2994
  241MOL    H8534165   3.469   7.115   6.163 -1.0832  0.4822 -1.0765
  241MOL    C8634166   3.151   7.034   5.997 -0.2627 -0.1752  0.0263
  241MOL    C8734167   3.144   6.934   6.114 -0.0019 -0.0629  0.1596
  241MOL    O8834168   3.030   7.100   5.990  0.2864  0.1591 -0.1397
  241MOL    H8934169   3.171   6.986   5.901  3.3164 -2.1024  1.6345
  241MOL    H9034170   3.090   6.977   6.198 -0.3513  1.8049 -0.9726
  241MOL    H9134171   3.240   6.888   6.135 -0.1131 -1.7659 -2.8224
  241MOL    H9234172   3.082   6.849   6.087 -1.5288  0.6597  1.3189
  241MOL    C9334173   3.021   7.192   5.886 -0.1979 -0.8491  0.3000
  241MOL    C9434174   2.913   7.126   5.795  0.1551 -0.0282  0.4897
  241MOL    O9534175   2.965   7.319   5.923 -0.1419  0.3329  0.3073
  241MOL    H9634176   3.113   7.214   5.833 -0.7108  2.8955  0.7983
  241MOL    H9734177   2.860   7.200   5.735 -1.2992  0.5368  2.4259
  241MOL    H9834178   2.851   7.061   5.856  0.0383  0.0990  0.5077
  241MOL    H9934179   2.959   7.059   5.723  0.1043  1.6267 -1.1149
  241MOL   C10034180   3.053   7.384   6.008  0.7714 -0.1127 -0.1148
  241MOL   C10134181   3.151   7.468   5.927 -0.0143  0.3568  0.3552
  241MOL   O10234182   2.980   7.465   6.096 -0.0924  0.0455  0.5771
  241MOL   H10334183   3.114   7.320   6.072  0.2697 -0.3395  0.1443
  241MOL   H10434184   3.203   7.404   5.857 -0.6884 -1.2234  1.2745
  241MOL   H10534185   3.211   7.520   6.002 -2.1317 -1.4703  3.4136
  241MOL   H10634186   3.096   7.539   5.865  0.7714 -0.6906 -1.5902
  241MOL   C10734187   2.892   7.391   6.178  0.4686 -0.5350  0.7483
  241MOL   C10834188   2.951   7.391   6.320 -0.2588  0.5140 -0.0609
  241MOL   O10934189   2.763   7.439   6.182 -0.4857 -0.1641  0.1491
  241MOL   H11034190   2.884   7.285   6.154  0.3843 -0.2431 -0.5161
  241MOL   H11134191   2.900   7.326   6.391 -0.5929 -0.6291 -1.3445
  241MOL   H11234192   2.930   7.491   6.360 -2.6682  0.1864 -0.4618
  241MOL   H11334193   3.055   7.358   6.313 -1.2813 -2.7757 -0.5035
  241MOL   C11434194   2.678   7.394   6.080  0.0302 -0.1249 -0.4399
  241MOL   C11534195   2.560   7.324   6.149 -0.2772  0.3936  0.0574
  241MOL   O11634196   2.629   7.500   6.012  0.5069  0.0359 -0.2290
  241MOL   H11734197   2.731   7.327   6.012 -1.2437 -1.5751 -0.0287
  241MOL   H11834198   2.494   7.397   6.198  2.4779  3.3311 -0.4543
  241MOL   H11934199   2.583   7.243   6.219  0.1803 -0.3648 -0.9605
  241MOL   H12034200   2.502   7.281   6.067 -0.4789 -3.8971  2.2870
  241MOL   C12134201   2.719   7.561   5.917 -0.8524 -0.0238  0.2534
  241MOL   C12234202   2.695   7.496   5.782  0.0481  0.5829 -0.1267
  241MOL   O12334203   2.691   7.697   5.899  0.0779 -0.6667 -0.7301
  241MOL   H12434204   2.822   7.539   5.944 -1.4991 -1.6612  1.4194
  241MOL   H12534205   2.714   7.389   5.791  0.7930  0.8302  1.4779
  241MOL   H12634206   2.771   7.539   5.717  1.3979 -0.2128  0.9127
  241MOL   H12734207   2.595   7.507   5.739 -0.0940 -2.5646 -0.6904
  241MOL   C12834208   2.764   7.771   5.996 -0.2067 -0.2894 -0.4693
  241MOL   C12934209   2.872   7.849   5.924  0.1791 -0.0024  1.2638
  241MOL   O13034210   2.679   7.858   6.056 -0.3392  0.3115  0.1640
  241MOL   H13134211   2.820   7.705   6.062 -1.3678 -1.2493 -0.4260
  241MOL   H13234212   2.827   7.901   5.839  1.7781 -1.4458 -0.5026
  241MOL   H13334213   2.944   7.782   5.879 -0.3576  1.1747 -1.4860
  241MOL   H13434214   2.923   0.003   5.992 -1.2664  0.3293  2.0260
  241MOL   C13534215   2.599   7.801   6.152  0.7437 -0.5042 -1.0689
  241MOL   C13634216   2.552   0.003   6.224  0.3035 -0.4329  0.0248
  241MOL   O13734217   2.491   7.735   6.101  0.1395 -0.6876 -0.2026
  241MOL   H13834218   2.658   7.734   6.214  1.2464 -0.0013 -0.9963
  241MOL   H13934219   2.502   7.891   6.318  0.3600 -0.1160  0.1433
  241MOL   H14034220   2.483   0.063   6.164  0.1979 -2.3914 -1.8482
  241MOL   H14134221   2.636   0.065   6.254  0.2853 -0.2256 -0.3506
  241MOL   H14234222   2.528   7.670   6.043  2.3253 -0.1161  0.4915
  242MOL     C134223   6.250   6.443   3.058 -0.3084  0.3467 -0.2974
  242MOL     C234224   6.222   6.363   2.931  0.3360 -0.0167  0.2923
  242MOL     O334225   6.283   6.360   3.168  0.7961 -0.0113 -0.1270
  242MOL     H434226   6.173   6.516   3.085  0.3524  0.5342  1.1384
  242MOL     H534227   6.314   6.308   2.910 -0.1062 -0.7516  0.2497
  242MOL     H634228   6.196   6.431   2.850  1.4171 -2.8502 -2.5301
  242MOL     H734229   6.142   6.294   2.959  1.9793 -1.6634  1.0754
  242MOL     H834230   6.333   6.509   3.035 -0.2031 -0.1051 -1.2496
  242MOL     C934231   6.270   6.426   3.285  0.2687  0.4929 -0.2501
  242MOL    C1034232   6.300   6.324   3.396  0.1984 -0.6725  0.4618
  242MOL    O1134233   6.363   6.528   3.290 -0.4224  0.0595  1.0656
  242MOL    H1234234   6.171   6.472   3.294 -0.8784 -2.2105  1.6321
  242MOL    H1334235   6.399   6.280   3.378  0.9512  0.4472  1.8211
  242MOL    H1434236   6.236   6.236   3.400 -0.2432 -0.3713  0.0870
  242MOL    H1534237   6.303   6.361   3.498  1.1148 -0.2812  0.3033
  242MOL    C1634238   6.317   6.648   3.356  0.6200 -0.4475 -0.4052
  242MOL    C1734239   6.431   6.744   3.364 -0.0011  0.1529  0.4125
  242MOL    O1834240   6.230   6.710   3.274 -1.0621 -0.3622  0.4178
  242MOL    H1934241   6.280   6.608   3.450  0.1537  1.2542  0.1557
  242MOL    H2034242   6.520   6.705   3.412  1.6409  1.7025 -1.2759
  242MOL    H2134243   6.397   6.833   3.418 -0.6343 -0.2839  0.7343
  242MOL    H2234244   6.458   6.781   3.265 -0.1941 -0.8955 -0.0307
  242MOL    C2334245   6.122   6.775   3.334  0.0240 -0.1526  0.5251
  242MOL    C2434246   6.038   6.845   3.218 -0.5410  0.2559  0.5292
  242MOL    O2534247   6.039   6.685   3.386 -0.2503 -0.5756 -0.3428
  242MOL    H2634248   6.164   6.839   3.412 -1.9687 -0.3556  1.7832
  242MOL    H2734249   5.982   6.769   3.163  0.1739 -0.0559  0.2129
  242MOL    H2834250   6.084   6.921   3.155 -1.8834 -0.6415 -1.6130
  242MOL    H2934251   5.967   6.897   3.282 -0.0769  0.2275  1.0698
  242MOL    C3034252   5.967   6.729   3.499 -0.1900 -0.9009 -0.2964
  242MOL    C3134253   5.835   6.643   3.514 -0.2437 -0.0873  0.3977
  242MOL    O3234254   6.048   6.705   3.613 -0.4523 -0.0178  0.1367
  242MOL    H3334255   5.932   6.832   3.489 -0.6337 -0.9821  0.4021
  242MOL    H3434256   5.851   6.535   3.505 -0.0435  0.1164 -1.8736
  242MOL    H3534257   5.762   6.678   3.442 -0.4150  0.7085  0.9546
  242MOL    H3634258   5.804   6.655   3.618  1.4970 -0.2523  0.9515
  242MOL    C3734259   6.045   6.816   3.703  0.3446 -0.2032  0.0019
  242MOL    C3834260   6.130   6.768   3.815  0.0791 -1.0214  0.1970
  242MOL    O3934261   6.105   6.930   3.637  0.3431  0.1812 -0.2193
  242MOL    H4034262   5.944   6.842   3.735 -0.2955  0.2470 -2.2711
  242MOL    H4134263   6.132   6.848   3.889 -1.9969 -1.0834  0.3603
  242MOL    H4234264   6.225   6.743   3.768  0.0205  0.2431 -0.6083
  242MOL    H4334265   6.079   6.684   3.863 -0.3132 -1.1330 -0.4194
  242MOL    C4434266   6.057   7.055   3.677 -0.2042  0.1341 -0.2522
  242MOL    C4534267   6.146   7.162   3.618 -0.1660 -0.1010  0.2152
  242MOL    O4634268   5.930   7.078   3.632  0.4304  0.3884  0.2700
  242MOL    H4734269   6.062   7.056   3.786  2.0643 -1.8105 -0.2983
  242MOL    H4834270   6.251   7.145   3.640 -0.2382  2.0549  2.4404
  242MOL    H4934271   6.108   7.255   3.661 -0.1164 -1.0312  2.3255
  242MOL    H5034272   6.147   7.170   3.510 -0.0013  2.8756  0.3921
  242MOL    C5134273   5.851   7.143   3.726 -0.5593 -0.6135  0.3189
  242MOL    C5234274   5.738   7.204   3.643  0.1881 -1.0365 -0.1148
  242MOL    O5334275   5.793   7.050   3.817  0.1462 -0.3302 -0.1079
  242MOL    H5434276   5.909   7.222   3.774 -0.9429 -0.9559  1.3594
  242MOL    H5534277   5.681   7.116   3.613  1.1697 -1.0175 -2.0716
  242MOL    H5634278   5.773   7.268   3.563 -2.4607 -0.3840 -0.7919
  242MOL    H5734279   5.672   7.259   3.710  0.3651 -0.9828  0.0149
  242MOL    C5834280   5.825   7.064   3.957  0.4640 -0.2278  0.0073
  242MOL    C5934281   5.742   6.966   4.037  0.5524  0.6954  0.2552
  242MOL    O6034282   5.957   7.046   3.989  0.6038 -0.1772 -0.0918
  242MOL    H6134283   5.796   7.167   3.976  1.4368  0.0243  0.1289
  242MOL    H6234284   5.742   6.976   4.146 -0.3424  0.9823  0.2370
  242MOL    H6334285   5.766   6.871   3.990  0.4925  1.0039 -0.3990
  242MOL    H6434286   5.634   6.975   4.024  0.6321  2.1991  0.5273
  242MOL    C6534287   6.009   7.140   4.073  0.4854  0.7502  0.3186
  242MOL    C6634288   6.139   7.080   4.126  0.2991  0.0459  0.5292
  242MOL    O6734289   6.029   7.262   4.000 -0.3077 -0.7062  0.0653
  242MOL    H6834290   5.943   7.144   4.159  0.1033 -1.6029  0.1937
  242MOL    H6934291   6.185   7.147   4.199  0.9344  0.1180  0.0705
  242MOL    H7034292   6.205   7.074   4.039 -1.3392  0.8112 -0.7838
  242MOL    H7134293   6.121   6.986   4.179 -0.2595 -0.7590 -1.0700
  242MOL    C7234294   6.076   7.372   4.078  0.0960 -0.1826 -0.3597
  242MOL    C7334295   6.132   7.474   3.976  0.2614  0.1987  0.0442
  242MOL    O7434296   5.968   7.431   4.141  0.4005  0.3674 -0.0199
  242MOL    H7534297   6.159   7.348   4.145 -1.1858  0.7857  1.6003
  242MOL    H7634298   6.170   7.553   4.040  1.1434  0.3291 -0.6345
  242MOL    H7734299   6.045   7.509   3.921  1.4906  1.0551 -1.3741
  242MOL    H7834300   6.213   7.436   3.914  2.2173  2.0424  1.4120
  242MOL    C7934301   5.999   7.484   4.258 -0.0796  0.5606  0.0750
  242MOL    C8034302   5.865   7.534   4.305 -0.2934  0.3493 -0.1090
  242MOL    O8134303   6.051   7.390   4.347  0.1589 -0.3085  0.3457
  242MOL    H8234304   6.065   7.566   4.231 -0.3847  0.5870 -0.5904
  242MOL    H8334305   5.874   7.550   4.413  1.4191 -0.3532 -0.1441
  242MOL    H8434306   5.786   7.459   4.300  0.4337 -0.4590  0.5038
  242MOL    H8534307   5.835   7.631   4.265  1.0068  0.4325 -0.8829
  242MOL    C8634308   6.131   7.435   4.445 -0.5469  0.3718 -0.4510
  242MOL    C8734309   6.130   7.335   4.557  0.1940  0.0870  0.1169
  242MOL    O8834310   6.265   7.445   4.403 -0.1420  0.0906 -0.4278
  242MOL    H8934311   6.093   7.529   4.487  1.2646  0.9024  0.0316
  242MOL    H9034312   6.027   7.308   4.578 -0.0728 -0.3247 -1.6313
  242MOL    H9134313   6.188   7.366   4.644 -0.0121  1.1547 -0.1108
  242MOL    H9234314   6.170   7.240   4.522  0.6907  0.9116 -1.6007
  242MOL    C9334315   6.326   7.563   4.446 -0.0529 -0.3708 -0.4229
  242MOL    C9434316   6.475   7.551   4.402 -0.3658 -0.0785  0.3312
  242MOL    O9534317   6.269   7.670   4.371  0.1189 -0.0896 -0.0665
  242MOL    H9634318   6.319   7.564   4.555  0.9185 -1.4602 -0.3264
  242MOL    H9734319   6.535   7.500   4.478 -0.0161 -1.3583 -0.7752
  242MOL    H9834320   6.523   7.648   4.393  0.0523 -0.3183 -0.0196
  242MOL    H9934321   6.489   7.489   4.314 -0.5085  0.5403 -0.1235
  242MOL   C10034322   6.245   7.778   4.452  0.7887  0.1173 -0.0925
  242MOL   C10134323   6.252   7.901   4.364 -0.0900  0.1207 -0.2163
  242MOL   O10234324   6.111   7.769   4.500  0.4318 -0.0197 -0.2350
  242MOL   H10334325   6.324   7.777   4.527 -0.1203 -0.2659  0.8792
  242MOL   H10434326   6.185   7.891   4.278  1.3296 -1.1328 -1.2122
  242MOL   H10534327   6.357   7.912   4.339 -0.3526  0.7049 -1.1086
  242MOL   H10634328   6.239   0.084   4.413  2.4311  0.5724 -0.3765
  242MOL   C10734329   6.110   7.783   4.641 -0.2168  0.3788 -0.0198
  242MOL   C10834330   5.965   7.788   4.675  0.0633 -0.3815  0.4163
  242MOL   O10934331   6.168   7.672   4.703 -0.2855 -0.0574  0.6365
  242MOL   H11034332   6.160   7.877   4.660 -0.2645  0.3556  0.2280
  242MOL   H11134333   5.948   7.782   4.783  0.4499  3.2972  0.7443
  242MOL   H11234334   5.896   7.723   4.621 -1.0285  1.3285 -0.2920
  242MOL   H11334335   5.949   7.889   4.639 -3.4585 -1.0281 -0.0574
  242MOL   C11434336   6.236   7.699   4.817  0.2196 -0.6933 -0.5508
  242MOL   C11534337   6.256   7.574   4.902 -0.1606 -0.1979  0.0490
  242MOL   O11634338   6.361   7.755   4.781  0.5141 -0.0549  0.1264
  242MOL   H11734339   6.171   7.760   4.880  1.3231 -0.1671  0.0847
  242MOL   H11834340   6.337   7.595   4.972 -0.0838 -1.8441  0.4696
  242MOL   H11934341   6.289   7.498   4.831  0.9284 -0.3024  0.6589
  242MOL   H12034342   6.165   7.540   4.949  1.1904  0.2071  3.0576
  242MOL   C12134343   6.417   7.857   4.855 -0.0497  0.1475  0.2976
  242MOL   C12234344   6.566   7.848   4.824 -0.3241  0.2434  0.5720
  242MOL   O12334345   6.388   0.076   4.802  0.3121  0.4743 -0.0338
  242MOL   H12434346   6.399   7.854   4.962 -0.9620  0.5480  0.1621
  242MOL   H12534347   6.623   7.900   4.900  2.7496 -0.9688 -0.8075
  242MOL   H12634348   6.591   7.884   4.724  1.3377  2.2885  1.6857
  242MOL   H12734349   6.599   7.745   4.841 -1.3358 -0.1863 -0.0276
  242MOL   C12834350   6.336   0.161   4.897  0.7603  0.9125  0.9291
  242MOL   C12934351   6.369   0.305   4.850  0.2748  0.1635 -0.4130
  242MOL   O13034352   6.202   0.146   4.898 -0.4701  0.0212 -0.1468
  242MOL   H13134353   6.384   0.140   4.992  0.9707  1.3593  0.9257
  242MOL   H13234354   6.348   0.298   4.743 -0.3990  0.6761 -0.3209
  242MOL   H13334355   6.473   0.327   4.875  0.2185 -0.3731  0.3244
  242MOL   H13434356   6.306   0.381   4.897 -0.9630 -0.3819 -1.1531
  242MOL   C13534357   6.143   0.118   5.021  0.1214 -0.5270  0.2001
  242MOL   C13634358   5.999   0.118   4.984  0.2472 -0.1325 -0.6418
  242MOL   O13734359   6.174   7.909   5.081 -0.1896  0.0260  0.5765
  242MOL   H13834360   6.159   0.190   5.101 -1.7690 -1.2288  1.2405
  242MOL   H13934361   5.984   0.049   4.902 -1.0478 -0.4516 -0.1480
  242MOL   H14034362   5.977   0.217   4.942  2.0223  0.1065 -1.0315
  242MOL   H14134363   5.929   0.093   5.064  0.1906  1.4117 -0.1890
  242MOL   H14234364   6.227   0.013   5.157 -1.3469 -0.6835  1.5704
  243MOL     C134365   4.837   4.454   6.868 -0.7370  0.1517  0.0835
  243MOL     C234366   4.892   4.343   6.791 -0.1035 -0.6227  1.2113
  243MOL     O334367   4.770   4.395   6.979  0.1276  0.5183 -0.6018
  243MOL     H434368   4.767   4.509   6.805  0.5321  1.7132  0.0308
  243MOL     H534369   4.955   4.375   6.708 -2.2120 -0.0224 -0.1997
  243MOL     H634370   4.808   4.285   6.754 -0.4934  1.8664 -2.0380
  243MOL     H734371   4.958   4.276   6.847 -0.2077 -0.8126  1.1060
  243MOL     H834372   4.922   4.513   6.902 -0.8479  0.1337  0.3980
  243MOL     C934373   4.724   4.491   7.065  0.5790 -0.2008  0.0760
  243MOL    C1034374   4.581   4.525   7.021  0.0298  0.0457  0.0963
  243MOL    O1134375   4.701   4.451   7.196 -0.3145 -0.0485  0.3036
  243MOL    H1234376   4.789   4.578   7.064  1.5680 -0.9358 -1.5852
  243MOL    H1334377   4.523   4.577   7.097  1.4467 -0.3616  1.4824
  243MOL    H1434378   4.526   4.431   7.022 -0.6087  0.4129 -0.3447
  243MOL    H1534379   4.577   4.570   6.922  0.9808 -0.2712 -0.0910
  243MOL    C1634380   4.813   4.433   7.275 -0.3140 -0.6377 -1.2556
  243MOL    C1734381   4.787   4.504   7.405  0.0728 -0.2746  0.7835
  243MOL    O1834382   4.832   4.303   7.323 -0.0486 -0.6069 -0.1296
  243MOL    H1934383   4.900   4.486   7.237  0.4977 -1.3649 -0.4420
  243MOL    H2034384   4.695   4.482   7.460 -0.8582 -0.6731 -0.9051
  243MOL    H2134385   4.770   4.608   7.376  0.8252  0.0982  1.6502
  243MOL    H2234386   4.875   4.487   7.467  0.6526  0.9013  0.2871
  243MOL    C2334387   4.923   4.231   7.255 -0.2529  0.5040  0.1125
  243MOL    C2434388   5.048   4.227   7.346 -0.3156 -0.3228 -0.1025
  243MOL    O2534389   4.883   4.096   7.242 -0.3781 -0.2728 -0.1061
  243MOL    H2634390   4.945   4.273   7.158 -2.6662  1.1225 -0.2011
  243MOL    H2734391   5.134   4.176   7.303 -0.0125 -0.9616  1.2427
  243MOL    H2834392   5.029   4.165   7.433  0.9202 -0.9019 -0.2323
  243MOL    H2934393   5.062   4.328   7.385  0.8340  0.0985 -1.5449
  243MOL    C3034394   4.787   4.081   7.138  0.8139  0.4902 -0.6150
  243MOL    C3134395   4.854   4.001   7.025  0.3306  0.7181 -0.3102
  243MOL    O3234396   4.672   4.013   7.182 -0.1455  0.3709 -0.1353
  243MOL    H3334397   4.749   4.176   7.101 -2.1380 -0.8158 -1.1156
  243MOL    H3434398   4.781   3.970   6.950  1.0287  0.3741 -0.8518
  243MOL    H3534399   4.900   3.913   7.070  0.7132  1.0970  0.0450
  243MOL    H3634400   4.919   4.081   6.991  0.8731  0.3016 -0.2621
  243MOL    C3734401   4.575   4.095   7.238 -0.1970 -0.6626 -0.1806
  243MOL    C3834402   4.479   4.121   7.123  0.7253 -0.0758 -0.1839
  243MOL    O3934403   4.504   4.031   7.338  0.4499 -0.1847  0.2857
  243MOL    H4034404   4.608   4.187   7.285  1.6497 -1.8313  0.9213
  243MOL    H4134405   4.390   4.171   7.161  0.5429 -0.3462 -0.2495
  243MOL    H4234406   4.438   4.024   7.093  1.4573 -0.4071 -0.1198
  243MOL    H4334407   4.521   4.170   7.035  1.8896 -0.5334  0.1136
  243MOL    C4434408   4.582   4.017   7.455 -0.0336  0.7108 -0.8380
  243MOL    C4534409   4.501   4.062   7.577 -0.4638 -0.0608 -0.1867
  243MOL    O4634410   4.614   3.884   7.480 -0.7966  0.0523  0.1799
  243MOL    H4734411   4.670   4.083   7.455  0.9683 -0.5978  0.8919
  243MOL    H4834412   4.560   4.052   7.668  0.9191 -1.0898 -1.1816
  243MOL    H4934413   4.406   4.009   7.587 -0.4355 -0.4563 -1.9495
  243MOL    H5034414   4.480   4.169   7.572 -0.1092  0.0681  0.9477
  243MOL    C5134415   4.755   3.856   7.494 -0.1373 -0.1889  0.3366
  243MOL    C5234416   4.787   3.862   7.643  0.4961 -0.3521 -0.0344
  243MOL    O5334417   4.784   3.725   7.452  0.7491 -0.5054  0.1915
  243MOL    H5434418   4.806   3.929   7.432  1.0578 -0.2680  1.2130
  243MOL    H5534419   4.896   3.862   7.652  0.6190 -0.5255 -1.4605
  243MOL    H5634420   4.736   3.780   7.694 -0.0062  0.8235  1.3642
  243MOL    H5734421   4.760   3.955   7.692  1.7445  1.3194 -2.4050
  243MOL    C5834422   4.774   3.713   7.312  0.1981 -0.0461 -0.7057
  243MOL    C5934423   4.919   3.709   7.249 -0.3366  0.2682  0.5578
  243MOL    O6034424   4.712   3.594   7.272 -0.4054  0.1509 -0.0702
  243MOL    H6134425   4.719   3.792   7.261 -3.1921 -1.9623 -0.1299
  243MOL    H6234426   4.973   3.633   7.305 -1.7972 -1.6897 -0.6387
  243MOL    H6334427   4.976   3.802   7.259 -0.4784  0.4683 -0.4020
  243MOL    H6434428   4.909   3.680   7.144 -2.5825 -1.7190  1.2942
  243MOL    C6534429   4.572   3.600   7.286 -0.3829 -0.7543  0.0074
  243MOL    C6634430   4.505   3.582   7.144 -0.1371 -0.1478  0.2889
  243MOL    O6734431   4.519   3.488   7.360  0.3902 -0.4561  0.1609
  243MOL    H6834432   4.538   3.693   7.332  1.1100 -0.8845  1.4540
  243MOL    H6934433   4.403   3.615   7.161  0.5615  1.6836  0.9892
  243MOL    H7034434   4.509   3.475   7.120 -1.2409 -1.0090  3.7043
  243MOL    H7134435   4.561   3.645   7.075 -0.7598  0.9234  0.7550
  243MOL    C7234436   4.515   3.497   7.501  0.1728 -0.5377  1.0552
  243MOL    C7334437   4.370   3.495   7.541  0.1648  1.0309 -0.3990
  243MOL    O7434438   4.575   3.390   7.567  0.7145  0.1720  0.7654
  243MOL    H7534439   4.559   3.591   7.535 -0.4050 -0.4797  1.6412
  243MOL    H7634440   4.367   3.501   7.650 -0.5678  0.3269 -0.3777
  243MOL    H7734441   4.307   3.415   7.502  0.7907  0.4239 -0.1736
  243MOL    H7834442   4.328   3.587   7.501 -2.0368  1.0391  1.8312
  243MOL    C7934443   4.720   3.405   7.580  0.1150  0.1774  0.1865
  243MOL    C8034444   4.751   3.427   7.732  0.0203  0.3324 -0.5187
  243MOL    O8134445   4.783   3.285   7.553  0.0334  0.1445 -0.1189
  243MOL    H8234446   4.765   3.488   7.525 -1.9000  0.6890 -0.7182
  243MOL    H8334447   4.696   3.515   7.766 -1.2574 -1.4841  2.3539
  243MOL    H8434448   4.856   3.435   7.760 -0.7434 -0.2019  2.6271
  243MOL    H8534449   4.716   3.337   7.784 -1.8660  1.6479  0.5354
  243MOL    C8634450   4.804   3.278   7.418  0.5269 -0.0049  0.9497
  243MOL    C8734451   4.959   3.288   7.400  0.5414 -0.0625 -0.3281
  243MOL    O8834452   4.757   3.161   7.358 -0.0338  0.3729  0.4181
  243MOL    H8934453   4.757   3.360   7.363  0.1704  0.3855  1.8269
  243MOL    H9034454   4.977   3.284   7.292  2.0693  0.9090 -0.1253
  243MOL    H9134455   5.015   3.211   7.453  0.9847  0.8309  0.4951
  243MOL    H9234456   4.998   3.382   7.438  0.4069  0.5986 -1.7649
  243MOL    C9334457   4.622   3.132   7.367 -0.4573 -0.1787  0.2846
  243MOL    C9434458   4.583   3.119   7.218  0.5319 -0.3958 -0.1150
  243MOL    O9534459   4.604   3.012   7.434 -0.9987  0.7143  0.2506
  243MOL    H9634460   4.579   3.223   7.409  0.7909 -0.3484  1.9475
  243MOL    H9734461   4.622   3.196   7.152 -1.4814  0.3255 -0.5044
  243MOL    H9834462   4.475   3.116   7.204 -0.0918 -3.3038  4.2726
  243MOL    H9934463   4.623   3.023   7.187 -0.6090 -0.8076 -0.3295
  243MOL   C10034464   4.573   3.034   7.568  0.8013 -0.1401  0.7017
  243MOL   C10134465   4.417   2.998   7.591  0.1714 -0.0371 -0.1431
  243MOL   O10234466   4.650   2.943   7.637  0.1469  0.0920  0.1202
  243MOL   H10334467   4.587   3.134   7.609  0.2122  0.0150  0.5231
  243MOL   H10434468   4.387   2.897   7.561 -1.8576  1.0937 -2.1190
  243MOL   H10534469   4.349   3.067   7.541  0.8048  0.8585  0.2298
  243MOL   H10634470   4.400   3.000   7.698 -2.8898  1.4699 -0.5898
  243MOL   C10734471   4.788   2.967   7.635  0.8710  0.6288  0.3840
  243MOL   C10834472   4.824   3.025   7.767 -0.3119  0.2125  0.2143
  243MOL   O10934473   4.869   2.855   7.624  0.3783  0.1768 -0.7709
  243MOL   H11034474   4.814   3.041   7.560 -0.0813  0.8597  0.2833
  243MOL   H11134475   4.805   2.964   7.856 -1.3934  1.5602  0.9316
  243MOL   H11234476   4.775   3.122   7.762 -1.7466 -0.4351  1.2540
  243MOL   H11334477   4.928   3.056   7.762 -0.7423  1.7614  0.7691
  243MOL   C11434478   4.872   2.787   7.502  0.3485  0.7723 -0.8544
  243MOL   C11534479   4.951   2.865   7.398  0.3696 -0.4838  0.3473
  243MOL   O11634480   4.936   2.662   7.524  0.3889  0.3141  0.8320
  243MOL   H11734481   4.768   2.780   7.469 -0.3004  3.4456  0.5302
  243MOL   H11834482   5.030   2.933   7.432 -0.7289  0.9508  0.0925
  243MOL   H11934483   4.882   2.930   7.344  2.3037  0.7370 -0.7172
  243MOL   H12034484   4.978   2.786   7.328  0.2624  1.2462 -1.7032
  243MOL   C12134485   4.874   2.578   7.612 -0.1455 -0.7150  0.1644
  243MOL   C12234486   4.806   2.473   7.534 -0.1498 -0.3902 -0.1493
  243MOL   O12334487   4.969   2.513   7.693 -0.6234 -0.3887  0.5314
  243MOL   H12434488   4.804   2.638   7.670  0.9107 -0.3569  1.0892
  243MOL   H12534489   4.729   2.521   7.474 -0.5819 -0.6874  0.1668
  243MOL   H12634490   4.760   2.403   7.604  1.1000 -0.3660  0.7143
  243MOL   H12734491   4.879   2.427   7.467  2.9741  3.0579  0.7116
  243MOL   C12834492   5.019   2.580   7.803  0.4344  0.8194 -0.5647
  243MOL   C12934493   5.020   2.485   0.010 -0.6124  0.5346  0.1954
  243MOL   O13034494   5.154   2.602   7.784  0.9415  0.3941  0.1423
  243MOL   H13134495   4.967   2.675   7.817 -0.8041 -0.0117  0.5849
  243MOL   H13234496   4.926   2.462   0.059 -0.3150 -3.1962 -0.8559
  243MOL   H13334497   5.090   2.536   0.076 -1.3029  0.1731  1.2168
  243MOL   H13434498   5.061   2.389   7.894 -2.9898 -0.4374 -0.0603
  243MOL   C13534499   5.181   2.706   7.695 -0.0681 -0.1038  0.0478
  243MOL   C13634500   5.298   2.788   7.747 -0.5047 -0.0804  0.0671
  243MOL   O13734501   5.223   2.650   7.572 -0.3422 -0.2635  0.4084
  243MOL   H13834502   5.099   2.777   7.685 -0.0408 -0.0924 -0.0910
  243MOL   H13934503   5.391   2.732   7.760 -0.8155 -0.2275  1.7588
  243MOL   H14034504   5.270   2.825   7.845  0.5220  3.2288 -0.8415
  243MOL   H14134505   5.312   2.870   7.676 -0.6862 -0.6645 -0.6577
  243MOL   H14234506   5.137   2.645   7.533 -0.2150  0.9943 -0.0512
  244MOL     C134507   5.817   3.711   3.162  1.2165  0.5260  0.3381
  244MOL     C234508   5.890   3.681   3.294  0.1170  0.2609  1.3806
  244MOL     O334509   5.845   3.612   3.058  0.4223  0.0768  0.5862
  244MOL     H434510   5.849   3.814   3.144 -0.8143  1.3073  1.0760
  244MOL     H534511   5.994   3.665   3.267  0.7192 -0.4483  3.9747
  244MOL     H634512   5.850   3.588   3.334  0.6728  0.0307  1.4082
  244MOL     H734513   5.884   3.763   3.365 -0.5159  1.2161  0.2524
  244MOL     H834514   5.710   3.729   3.174  0.9608 -1.5559  1.3920
  244MOL     C934515   5.787   3.635   2.934 -0.1548  0.2132  0.4727
  244MOL    C1034516   5.854   3.755   2.860  0.0571 -0.1606 -0.9672
  244MOL    O1134517   5.821   3.530   2.850 -0.1536  0.2719 -0.5336
  244MOL    H1234518   5.679   3.647   2.945 -0.2679 -1.5920  1.5559
  244MOL    H1334519   5.853   3.837   2.932 -0.4950 -0.4264 -0.6591
  244MOL    H1434520   5.797   3.776   2.769 -2.5966 -1.2066  0.3764
  244MOL    H1534521   5.959   3.739   2.838  0.2059 -3.7170  1.8138
  244MOL    C1634522   5.768   3.409   2.878 -0.3837  0.6190 -0.3485
  244MOL    C1734523   5.618   3.415   2.869 -0.5506 -0.0295 -0.2451
  244MOL    O1834524   5.811   3.312   2.785  0.5248 -0.3256  0.5586
  244MOL    H1934525   5.811   3.391   2.976 -0.3230  3.1509  0.1250
  244MOL    H2034526   5.571   3.477   2.793  0.9447  0.9500 -0.3861
  244MOL    H2134527   5.578   3.437   2.968  1.4958  0.4682  0.4831
  244MOL    H2234528   5.579   3.319   2.837 -0.6159 -0.3419  0.7503
  244MOL    C2334529   5.950   3.278   2.788 -0.6193 -0.1482 -0.1918
  244MOL    C2434530   5.954   3.123   2.813 -0.0575  0.2006 -0.8627
  244MOL    O2534531   6.014   3.298   2.670 -0.2897 -0.0878  0.2966
  244MOL    H2634532   6.008   3.336   2.860  0.1871  1.4677 -2.0865
  244MOL    H2734533   5.915   3.106   2.914  1.2204  1.8143 -0.0706
  244MOL    H2834534   6.056   3.085   2.809  0.1443  0.3107  1.7675
  244MOL    H2934535   5.889   3.074   2.741 -1.0754  1.7119 -1.0048
  244MOL    C3034536   6.031   3.431   2.639  0.2154 -0.8109  0.9401
  244MOL    C3134537   6.184   3.457   2.621  0.5579  0.0162  0.5130
  244MOL    O3234538   5.979   3.451   2.517 -0.1055 -0.3947 -0.0684
  244MOL    H3334539   5.994   3.501   2.714  0.9738 -0.0441  0.6131
  244MOL    H3434540   6.224   3.478   2.721 -2.0277  1.5015  1.2857
  244MOL    H3534541   6.216   3.531   2.548 -0.1692 -1.1756 -1.0515
  244MOL    H3634542   6.223   3.364   2.580  1.1596  0.3899  0.2446
  244MOL    C3734543   5.846   3.504   2.509 -0.5097  0.7139  0.8390
  244MOL    C3834544   5.855   3.648   2.464  1.0295  0.1518 -0.5859
  244MOL    O3934545   5.773   3.430   2.409  0.3709  0.6195  0.2309
  244MOL    H4034546   5.791   3.493   2.603 -1.0787 -2.2566  0.1911
  244MOL    H4134547   5.882   3.651   2.359 -3.0190 -1.3349 -1.7526
  244MOL    H4234548   5.923   3.708   2.524 -0.2600 -0.1759  1.2675
  244MOL    H4334549   5.758   3.692   2.486  0.1900 -1.3320 -1.2424
  244MOL    C4434550   5.750   3.291   2.439  0.3088 -0.7203  0.5650
  244MOL    C4534551   5.601   3.277   2.464 -0.6517  0.3955 -0.1704
  244MOL    O4634552   5.782   3.214   2.326 -0.2217  0.5384 -0.0049
  244MOL    H4734553   5.808   3.269   2.529  1.8647  1.4694  0.1408
  244MOL    H4834554   5.567   3.341   2.545 -0.3540  1.1419 -0.6374
  244MOL    H4934555   5.583   3.172   2.487 -0.1027  1.1544  4.2629
  244MOL    H5034556   5.551   3.306   2.372 -0.1082  1.7170 -0.0541
  244MOL    C5134557   5.923   3.192   2.319  1.0315  0.1328  0.4829
  244MOL    C5234558   5.930   3.040   2.347 -0.0856  1.3058 -0.2117
  244MOL    O5334559   5.954   3.217   2.184 -0.1715 -0.0129  0.4192
  244MOL    H5434560   5.991   3.242   2.388 -0.0522  0.3165  1.4348
  244MOL    H5534561   6.034   3.009   2.358 -0.7597 -0.5562  1.2990
  244MOL    H5634562   5.894   2.969   2.273  0.1832 -0.4120  1.2732
  244MOL    H5734563   5.878   3.015   2.440  0.2527  2.8660  0.4195
  244MOL    C5834564   5.981   3.351   2.165 -0.3579 -0.6576 -0.6972
  244MOL    C5934565   6.131   3.351   2.134  0.4008 -0.9670  0.0237
  244MOL    O6034566   5.919   3.398   2.044 -0.0387  0.7531 -0.2066
  244MOL    H6134567   5.945   3.413   2.247  2.3194 -0.5672  0.4408
  244MOL    H6234568   6.165   3.453   2.115 -0.0994 -0.6646  0.7128
  244MOL    H6334569   6.163   3.280   2.057 -0.4708  1.0570 -2.2665
  244MOL    H6434570   6.181   3.310   2.221 -0.7761 -3.1360 -0.2803
  244MOL    C6534571   5.774   3.409   2.049 -0.0955  0.2432 -0.6357
  244MOL    C6634572   5.744   3.558   2.022  0.0177  0.3181 -0.3636
  244MOL    O6734573   5.713   3.338   1.944 -0.2513 -0.2969  0.0770
  244MOL    H6834574   5.732   3.375   2.144  1.5541  0.1944  0.0913
  244MOL    H6934575   5.639   3.581   2.040  0.4500 -1.0080  4.4942
  244MOL    H7034576   5.772   3.583   1.919 -0.9005  0.7437 -0.5164
  244MOL    H7134577   5.796   3.620   2.095 -1.5646  1.5639 -0.2750
  244MOL    C7234578   5.706   3.199   1.963 -0.2682 -0.0563  0.5911
  244MOL    C7334579   5.556   3.174   1.978 -0.0990  0.4153  0.5466
  244MOL    O7434580   5.748   3.139   1.848 -0.1582  0.0341 -0.7752
  244MOL    H7534581   5.763   3.163   2.049  0.6186 -0.1071 -0.0128
  244MOL    H7634582   5.503   3.206   2.068 -1.0289  2.7692 -0.7839
  244MOL    H7734583   5.541   3.068   1.960 -0.8306  0.6474 -0.2387
  244MOL    H7834584   5.492   3.222   1.904 -0.1413 -2.3885 -1.2846
  244MOL    C7934585   5.884   3.148   1.827 -0.2503  0.3382 -0.0572
  244MOL    C8034586   5.954   3.018   1.863  0.1489 -0.0949 -0.4207
  244MOL    O8134587   5.921   3.184   1.694 -0.0793  0.4388  0.0593
  244MOL    H8234588   5.932   3.232   1.877  0.2206  0.0417 -0.0122
  244MOL    H8334589   5.924   2.929   1.807 -2.6264  1.7813 -2.0268
  244MOL    H8434590   5.926   3.010   1.968  0.9941  0.7476 -0.1263
  244MOL    H8534591   6.062   3.030   1.858  0.2755 -0.4485  1.2597
  244MOL    C8634592   5.913   3.318   1.665  0.2734  0.5331  0.2789
  244MOL    C8734593   6.052   3.373   1.653  0.4809 -0.3679 -0.6456
  244MOL    O8834594   5.852   3.345   1.545 -0.0682  0.7012 -0.0356
  244MOL    H8934595   5.856   3.381   1.734  0.0840  2.8639 -1.9212
  244MOL    H9034596   6.092   3.422   1.742 -0.0495 -1.3997  0.1683
  244MOL    H9134597   6.052   3.464   1.593 -3.3905  0.7522  0.9401
  244MOL    H9234598   6.118   3.295   1.615  0.7505 -0.8209  0.7288
  244MOL    C9334599   5.716   3.313   1.550 -0.4572  0.7743 -0.4047
  244MOL    C9434600   5.629   3.429   1.517  0.5981 -0.0531 -0.1105
  244MOL    O9534601   5.691   3.226   1.447 -0.1012  0.4080 -0.2185
  244MOL    H9634602   5.681   3.271   1.644  2.7652 -0.5005  0.2594
  244MOL    H9734603   5.526   3.396   1.510  1.1941 -1.9744 -0.0910
  244MOL    H9834604   5.640   3.457   1.412 -1.2898 -0.9363 -0.5580
  244MOL    H9934605   5.632   3.512   1.589 -1.0797  0.0591 -0.1495
  244MOL   C10034606   5.694   3.087   1.487 -0.0330 -0.4790 -0.1992
  244MOL   C10134607   5.555   3.039   1.498 -0.5989 -0.2425  0.1786
  244MOL   O10234608   5.759   3.011   1.387  0.2008 -0.1866  0.0734
  244MOL   H10334609   5.742   3.064   1.582  0.5744 -2.6030 -0.9809
  244MOL   H10434610   5.501   3.077   1.411 -1.8247  0.3155  1.1603
  244MOL   H10534611   5.513   3.063   1.595  0.1634 -0.8759  0.6719
  244MOL   H10634612   5.545   2.931   1.485 -1.1225  0.0242 -1.8168
  244MOL   C10734613   5.899   3.023   1.371  0.3537  0.1167 -0.5999
  244MOL   C10834614   5.963   2.887   1.398  0.0756 -0.3348  0.1654
  244MOL   O10934615   5.935   3.050   1.245 -0.6326 -0.2480  0.4015
  244MOL   H11034616   5.943   3.093   1.443  1.1314 -1.4071  0.4459
  244MOL   H11134617   6.068   2.885   1.371  0.0200 -0.6342 -0.0293
  244MOL   H11234618   5.915   2.815   1.331  1.6479 -1.0390 -0.2160
  244MOL   H11334619   5.944   2.857   1.501 -0.5455 -0.5813 -0.0156
  244MOL   C11434620   5.921   3.184   1.205 -0.1490  0.2329 -0.0651
  244MOL   C11534621   6.060   3.236   1.170  0.0187 -0.8570  0.3666
  244MOL   O11634622   5.842   3.194   1.091  0.8266 -0.4389 -0.1207
  244MOL   H11734623   5.889   3.250   1.286  1.6738  1.0833 -0.0157
  244MOL   H11834624   6.134   3.215   1.248 -0.1231 -3.8925 -0.2376
  244MOL   H11934625   6.041   3.342   1.158  0.4471 -0.8027  0.1730
  244MOL   H12034626   6.094   3.191   1.077  0.3108 -0.4614  0.2806
  244MOL   C12134627   5.702   3.177   1.116  0.0537 -0.9736 -0.7395
  244MOL   C12234628   5.643   3.313   1.072  0.0463  0.6429 -0.1124
  244MOL   O12334629   5.634   3.086   1.033 -0.3526 -0.5852  0.0036
  244MOL   H12434630   5.673   3.161   1.220  0.9543 -0.2478 -0.3620
  244MOL   H12534631   5.647   3.343   0.968  0.9039  1.1235  0.0502
  244MOL   H12634632   5.703   3.388   1.124  4.8276 -2.4882 -0.7698
  244MOL   H12734633   5.546   3.322   1.120 -0.1840 -2.1371  0.0383
  244MOL   C12834634   5.657   2.954   1.073  0.0321  0.0242  1.1543
  244MOL   C12934635   5.531   2.893   1.114 -0.5372 -0.4147 -0.4349
  244MOL   O13034636   5.710   2.881   0.961 -0.0468 -0.1354  0.7282
  244MOL   H13134637   5.728   2.957   1.156  0.3506 -0.0157  0.8861
  244MOL   H13234638   5.450   2.921   1.046 -1.4990  1.9928  1.6376
  244MOL   H13334639   5.484   2.927   1.207 -1.1783 -2.9319  0.2121
  244MOL   H13434640   5.557   2.787   1.121 -1.1836 -0.6397 -1.3184
  244MOL   C13534641   5.824   2.942   0.905  0.5974  0.5248 -0.1594
  244MOL   C13634642   5.899   2.834   0.825  0.0857  0.4847  0.1219
  244MOL   O13734643   5.788   3.055   0.825 -0.0866  0.8364 -0.1743
  244MOL   H13834644   5.885   2.975   0.989 -0.1286  2.3105 -0.3103
  244MOL   H13934645   5.828   2.808   0.746  0.6273  3.6037 -1.4902
  244MOL   H14034646   5.913   2.746   0.886 -3.9473  0.3556  1.0280
  244MOL   H14134647   5.991   2.871   0.780 -0.5497 -0.7448 -2.2578
  244MOL   H14234648   5.733   3.109   0.879 -1.4395 -1.5517  0.8931
  245MOL     C134649   1.104   7.763   7.822 -0.2366  0.2680 -0.3807
  245MOL     C234650   1.202   7.767   7.711  0.0257  0.4987 -1.0157
  245MOL     O334651   1.137   7.865   7.902 -0.2731 -0.9693 -0.5458
  245MOL     H434652   1.119   7.669   7.875 -2.1858 -0.4579 -1.0509
  245MOL     H534653   1.179   7.862   7.662 -0.8199  1.3749  1.0332
  245MOL     H634654   1.168   7.688   7.644 -1.6662  2.0498 -2.0346
  245MOL     H734655   1.306   7.763   7.742 -0.9867 -0.8442  2.4563
  245MOL     H834656   1.000   7.767   7.787 -0.3898  2.3860  0.2078
  245MOL     C934657   1.078   7.885   0.118 -0.3156 -0.0903  0.0901
  245MOL    C1034658   1.171   7.812   0.220 -0.9273 -0.2256 -0.0250
  245MOL    O1134659   1.072   0.110   0.148  0.1817  0.2655 -0.0738
  245MOL    H1234660   0.976   7.846   0.118  0.5125 -2.3360  0.1294
  245MOL    H1334661   1.274   7.845   0.209 -1.2773  1.0911  0.4950
  245MOL    H1434662   1.176   7.704   0.209  3.0365 -0.1402  0.1287
  245MOL    H1534663   1.146   7.832   0.324  1.8560  0.3772  0.5728
  245MOL    C1634664   0.970   0.182   0.087  1.0055  0.5408 -0.1460
  245MOL    C1734665   0.851   0.175   0.184 -0.2829 -0.3573  0.6044
  245MOL    O1834666   1.005   0.314   0.067 -0.0393 -0.1560 -0.0269
  245MOL    H1934667   0.950   0.133   7.906 -0.1541  1.4071 -0.3654
  245MOL    H2034668   0.766   0.214   0.127 -0.1317 -0.4976  0.2896
  245MOL    H2134669   0.868   0.254   0.258 -0.2375  0.4938 -0.3006
  245MOL    H2234670   0.833   0.079   0.233  0.2110 -0.5068  0.4837
  245MOL    C2334671   1.081   0.339   7.869  0.3914 -0.3365 -0.9016
  245MOL    C2434672   0.986   0.389   7.755  0.0034  0.2067  0.1671
  245MOL    O2534673   1.160   0.443   7.891 -0.2581  0.1169 -0.4086
  245MOL    H2634674   1.154   0.263   7.841  1.8691  1.0595 -0.8486
  245MOL    H2734675   0.906   0.453   7.789 -1.5350 -0.8162 -1.4568
  245MOL    H2834676   0.935   0.297   7.727  1.5339 -0.6355  0.0702
  245MOL    H2934677   1.036   0.425   7.665 -0.5942 -1.6714 -0.9423
  245MOL    C3034678   1.269   0.414   0.063  0.0212  0.3030  0.5211
  245MOL    C3134679   1.391   0.385   7.897  0.0864 -0.1238  0.4539
  245MOL    O3234680   1.311   0.516   0.147 -0.6644 -0.1223 -0.2763
  245MOL    H3334681   1.245   0.324   0.119  1.2965 -1.6943 -2.0543
  245MOL    H3434682   1.414   0.466   7.828 -3.0022 -1.2818 -2.0657
  245MOL    H3534683   1.383   0.299   7.830  0.4041  1.2457 -1.3995
  245MOL    H3634684   1.480   0.368   0.045  1.3952 -3.0593 -2.0874
  245MOL    C3734685   1.209   0.575   0.223  0.0848 -0.9613  0.6251
  245MOL    C3834686   1.187   0.491   0.344 -0.1165 -0.4958 -0.7603
  245MOL    O3934687   1.262   0.696   0.262 -0.0194 -0.0616 -0.1816
  245MOL    H4034688   1.121   0.593   0.161  1.3259  0.0500 -0.8839
  245MOL    H4134689   1.277   0.477   0.404  0.7163  0.7558 -1.6876
  245MOL    H4234690   1.139   0.397   0.316 -0.4177  0.1570 -2.4419
  245MOL    H4334691   1.116   0.541   0.410  0.8494 -0.2591  0.1125
  245MOL    C4434692   1.276   0.787   0.158 -0.4255 -0.0667  0.1198
  245MOL    C4534693   1.166   0.895   0.169 -0.2711  0.2126 -0.0835
  245MOL    O4634694   1.398   0.851   0.183 -0.1585  0.0105  0.4831
  245MOL    H4734695   1.277   0.737   0.061  3.8349  0.3760 -0.1519
  245MOL    H4834696   1.176   0.960   0.256  1.7441 -0.5883  0.2934
  245MOL    H4934697   1.065   0.853   0.166 -0.3161  0.1365  1.8199
  245MOL    H5034698   1.177   0.962   0.083  4.4831 -1.1656 -0.6794
  245MOL    C5134699   1.516   0.771   0.166  0.2275  0.1647 -0.3348
  245MOL    C5234700   1.555   0.774   0.016 -0.4096  0.3081  0.0588
  245MOL    O5334701   1.621   0.833   0.239 -0.8265 -0.0282 -0.0237
  245MOL    H5434702   1.498   0.670   0.201 -0.7404  1.0382  1.7954
  245MOL    H5534703   1.655   0.735   0.000 -0.4326 -0.5407  1.8799
  245MOL    H5634704   1.553   0.880   7.903  0.5717  0.0508 -1.0470
  245MOL    H5734705   1.473   0.725   7.879 -0.2982 -0.1805  0.3537
  245MOL    C5834706   1.611   0.813   0.380 -0.2861  0.1669 -0.9603
  245MOL    C5934707   1.703   0.695   0.419  0.5228 -0.5805  0.9100
  245MOL    O6034708   1.661   0.923   0.448 -0.4297  0.2642 -0.2631
  245MOL    H6134709   1.505   0.797   0.402 -0.6404  0.5307 -2.4068
  245MOL    H6234710   1.799   0.732   0.382  0.7788 -1.3339  0.8105
  245MOL    H6334711   1.673   0.605   0.366  0.3663 -0.9486  1.6189
  245MOL    H6434712   1.705   0.686   0.528  0.7642 -1.7241  0.8146
  245MOL    C6534713   1.578   1.036   0.448 -0.2523 -0.6375 -0.5396
  245MOL    C6634714   1.536   1.052   0.589  0.4281 -0.6894  0.4250
  245MOL    O6734715   1.653   1.147   0.416  0.2939  0.2821 -0.6150
  245MOL    H6834716   1.494   1.025   0.379 -0.8243  1.8099 -0.2639
  245MOL    H6934717   1.487   0.959   0.618  0.2201 -1.4368 -2.1758
  245MOL    H7034718   1.463   1.133   0.587 -0.8514 -1.8222  0.4714
  245MOL    H7134719   1.622   1.079   0.650  0.5121  2.0888 -0.8820
  245MOL    C7234720   1.681   1.157   0.281  0.2828 -0.4709 -0.2607
  245MOL    C7334721   1.605   1.283   0.256 -0.1095  0.3616 -0.0847
  245MOL    O7434722   1.813   1.197   0.253  0.0585 -0.2541  0.1548
  245MOL    H7534723   1.641   1.076   0.220 -2.0181  1.4939 -1.4518
  245MOL    H7634724   1.497   1.270   0.257 -0.1529  0.7343  1.0446
  245MOL    H7734725   1.641   1.317   0.159  0.2627 -1.9638 -0.8176
  245MOL    H7834726   1.643   1.367   0.314  0.5894  0.4628 -0.6832
  245MOL    C7934727   1.902   1.090   0.281  0.2405  0.4677  0.1240
  245MOL    C8034728   1.928   1.023   0.143  0.2969 -0.1230  0.4211
  245MOL    O8134729   2.027   1.135   0.337  0.5003 -0.3016  0.5674
  245MOL    H8234730   1.860   1.020   0.353  1.7185  0.8375  1.3784
  245MOL    H8334731   1.979   1.099   0.084  0.5268 -1.2768 -0.8877
  245MOL    H8434732   1.835   0.992   0.095 -0.1252  1.8506 -0.0887
  245MOL    H8534733   1.990   0.935   0.159 -1.0053 -1.0945  0.2620
  245MOL    C8634734   2.023   1.164   0.475 -0.0983  0.2701  0.1524
  245MOL    C8734735   2.093   1.053   0.553  0.3169  0.9534 -0.0200
  245MOL    O8834736   2.094   1.284   0.511 -0.0573 -0.3591 -0.0385
  245MOL    H8934737   1.921   1.174   0.513  0.2031 -0.9465  1.2956
  245MOL    H9034738   2.101   1.069   0.660  1.5347 -1.0046  0.2161
  245MOL    H9134739   2.193   1.044   0.510  0.0221  0.6685 -0.6667
  245MOL    H9234740   2.033   0.963   0.535 -0.4827  1.1950  1.4383
  245MOL    C9334741   2.035   1.399   0.462  0.1323  0.4834 -0.0337
  245MOL    C9434742   1.966   1.472   0.574  0.2326 -0.2261 -0.3563
  245MOL    O9534743   2.132   1.483   0.397  0.0034  0.0393 -0.6982
  245MOL    H9634744   1.956   1.377   0.390  1.6007  0.1516 -1.5751
  245MOL    H9734745   1.929   1.564   0.529 -0.9078 -1.6461 -2.4022
  245MOL    H9834746   2.034   1.494   0.656 -0.9419  2.5745 -0.0708
  245MOL    H9934747   1.887   1.409   0.614  1.7033 -1.8071  0.1570
  245MOL   C10034748   2.181   1.433   0.281  0.2870  0.1148  0.2246
  245MOL   C10134749   2.077   1.480   0.175  0.5703 -0.3568 -0.1037
  245MOL   O10234750   2.302   1.499   0.247  0.0355 -0.0673 -0.1300
  245MOL   H10334751   2.189   1.324   0.286 -1.4059 -0.0289  0.1029
  245MOL   H10434752   2.044   1.582   0.194 -0.7735 -1.1105  1.8077
  245MOL   H10534753   1.988   1.416   0.172 -0.3453  0.9589 -1.5787
  245MOL   H10634754   2.127   1.467   0.080 -0.3240  0.0274 -0.6382
  245MOL   C10734755   2.413   1.435   0.311  0.2956  0.4803  0.8511
  245MOL   C10834756   2.456   1.323   0.214  1.0430  0.1873  0.5488
  245MOL   O10934757   2.523   1.519   0.314  0.0726 -0.0977  0.1142
  245MOL   H11034758   2.386   1.407   0.412  0.1369  0.9522  0.9417
  245MOL   H11134759   2.457   1.358   0.111  0.7965 -1.0686  0.1143
  245MOL   H11234760   2.388   1.238   0.222  1.5892 -0.3162 -0.1026
  245MOL   H11334761   2.554   1.289   0.248  0.9208 -0.0569  0.6553
  245MOL   C11434762   2.518   1.624   0.406  0.0141 -0.0952 -0.1734
  245MOL   C11534763   2.582   1.574   0.534 -0.5643  0.9314  0.4677
  245MOL   O11634764   2.596   1.725   0.356 -0.7175 -0.3573 -0.2332
  245MOL   H11734765   2.414   1.651   0.422 -0.1298 -0.7338 -0.0230
  245MOL   H11834766   2.580   1.660   0.602 -0.9299 -0.1618  1.8650
  245MOL   H11934767   2.684   1.539   0.520 -0.4791  0.4264  2.2290
  245MOL   H12034768   2.528   1.487   0.572  0.2687 -1.1858 -2.9894
  245MOL   C12134769   2.547   1.787   0.235  0.6277  0.0268  0.2716
  245MOL   C12234770   2.503   1.927   0.274  0.2925  0.1671  0.4420
  245MOL   O12334771   2.650   1.799   0.141 -0.4253 -0.4281 -0.6441
  245MOL   H12434772   2.457   1.744   0.189  0.5730 -0.9812  1.2913
  245MOL   H12534773   2.586   1.985   0.313  0.4538  0.8170 -0.8204
  245MOL   H12634774   2.424   1.911   0.347 -1.0255  1.6925 -0.6278
  245MOL   H12734775   2.467   1.977   0.184  1.3242  1.8933  0.9604
  245MOL   C12834776   2.689   1.685   0.071 -0.4678 -0.1083 -0.6306
  245MOL   C12934777   2.631   1.703   7.841 -0.1429 -0.1530  0.5274
  245MOL   O13034778   2.830   1.672   0.067  0.0511 -0.2564  0.4174
  245MOL   H13134779   2.646   1.598   0.121  0.0918 -0.8096 -1.3688
  245MOL   H13234780   2.523   1.692   7.854 -0.4699  1.8702 -0.2981
  245MOL   H13334781   2.678   1.625   7.780 -0.8018  1.4628 -2.1068
  245MOL   H13434782   2.650   1.805   7.810  1.6897 -0.5982  0.1129
  245MOL   C13534783   2.893   1.637   0.184 -0.2318 -0.1414 -0.1363
  245MOL   C13634784   3.038   1.586   0.161  0.3847  0.1382  0.5500
  245MOL   O13734785   2.894   1.738   0.280  0.5025 -0.0648 -0.0170
  245MOL   H13834786   2.837   1.554   0.227 -0.5738 -0.7709 -1.7695
  245MOL   H13934787   3.076   1.529   0.245  2.8788 -0.0577 -0.6611
  245MOL   H14034788   3.105   1.667   0.132 -0.4208 -0.3602 -3.0116
  245MOL   H14134789   3.039   1.516   0.077  0.4431 -1.2258  1.6732
  245MOL   H14234790   2.803   1.756   0.295  0.4927 -1.3878  1.6077
  246MOL     C134791   7.127   7.085   0.456 -0.0584 -0.7107  0.2449
  246MOL     C234792   7.033   7.204   0.461 -0.1149  0.0283 -0.2087
  246MOL     O334793   7.043   6.977   0.429  0.0791  0.1181  0.3339
  246MOL     H434794   7.180   7.071   0.550  0.3836  1.1023  0.2837
  246MOL     H534795   6.945   7.198   0.526  1.7665 -0.1999  2.3713
  246MOL     H634796   7.002   7.235   0.361  1.9116 -2.2799 -1.6156
  246MOL     H734797   7.079   7.294   0.503 -0.1293  0.0484 -0.2351
  246MOL     H834798   7.194   7.105   0.373 -0.3410  2.1993  0.6699
  246MOL     C934799   7.109   6.852   0.448 -0.6375  0.2291  0.3010
  246MOL    C1034800   7.002   6.744   0.433  0.1680  0.0533 -0.2937
  246MOL    O1134801   7.209   6.830   0.354 -0.6109 -0.1705 -0.0749
  246MOL    H1234802   7.157   6.847   0.545 -0.7795  0.1063  0.3660
  246MOL    H1334803   6.933   6.759   0.515 -0.4110  2.1598 -1.1322
  246MOL    H1434804   7.059   6.651   0.438  1.7640  1.0691  0.7378
  246MOL    H1534805   6.943   6.746   0.341  0.2717 -0.1445 -0.3660
  246MOL    C1634806   7.312   6.747   0.406  0.7970 -0.0366 -0.1121
  246MOL    C1734807   7.395   6.681   0.289  0.0141 -0.0071  0.7781
  246MOL    O1834808   7.399   6.822   0.489  0.0168 -0.7756 -0.0303
  246MOL    H1934809   7.261   6.669   0.462  0.3129  0.1559 -0.2807
  246MOL    H2034810   7.463   6.601   0.317 -0.0328 -0.6114 -0.8195
  246MOL    H2134811   7.458   6.753   0.238 -0.2408 -1.0216 -1.0115
  246MOL    H2234812   7.327   6.646   0.211  0.4954  0.0416  0.3423
  246MOL    C2334813   7.454   6.743   0.588 -0.2761  0.3224 -0.2389
  246MOL    C2434814   7.558   6.834   0.665 -0.0677 -0.2221  0.1424
  246MOL    O2534815   7.350   6.703   0.679 -0.0788  0.4475 -0.2760
  246MOL    H2634816   7.501   6.660   0.534 -0.8151 -0.0879 -0.0802
  246MOL    H2734817   7.599   6.781   0.751  1.2041 -0.6461 -0.7216
  246MOL    H2834818   7.503   6.925   0.692 -1.3426 -1.0548  0.3657
  246MOL    H2934819   7.637   6.867   0.597  0.2290 -0.5595  0.3190
  246MOL    C3034820   7.377   6.588   0.752  0.0873 -0.3370  0.1481
  246MOL    C3134821   7.270   6.586   0.855  0.7815  0.0853  0.8210
  246MOL    O3234822   7.361   6.473   0.670  0.0581  0.1105  0.2970
  246MOL    H3334823   7.479   6.594   0.790 -0.6333  3.1944  1.7444
  246MOL    H3434824   7.275   6.485   0.896 -1.3609 -1.2378 -1.9958
  246MOL    H3534825   7.171   6.608   0.815  1.9538  3.2179 -0.4947
  246MOL    H3634826   7.298   6.656   0.933  0.3212  1.6616 -0.4145
  246MOL    C3734827   7.466   6.382   0.662  0.4491  0.0381 -0.3092
  246MOL    C3834828   7.394   6.257   0.616  0.3302  0.3985  0.2060
  246MOL    O3934829   7.563   6.413   0.563  0.0378 -0.3650  0.1762
  246MOL    H4034830   7.511   6.380   0.761  0.8207  1.4294 -0.4448
  246MOL    H4134831   7.348   6.269   0.518  0.6487 -3.9629 -0.5877
  246MOL    H4234832   7.328   6.221   0.694  1.7705 -0.8746  0.8649
  246MOL    H4334833   7.464   6.176   0.596  0.1864  1.0329 -3.1139
  246MOL    C4434834   7.697   6.370   0.589 -0.4961  0.1667  0.6397
  246MOL    C4534835   7.759   6.340   0.451  0.0039  0.0027  0.5268
  246MOL    O4634836   7.766   6.471   0.655  0.0019 -0.1360  0.4796
  246MOL    H4734837   7.696   6.276   0.646  2.1910 -0.6720 -0.6085
  246MOL    H4834838   7.702   6.257   0.410 -0.1230  0.1022  0.5017
  246MOL    H4934839   7.865   6.314   0.464  0.4832 -0.2232 -3.2995
  246MOL    H5034840   7.743   6.430   0.392 -1.8041  0.7610  2.1104
  246MOL    C5134841   7.823   6.427   0.778 -0.6676 -0.1391 -0.0578
  246MOL    C5234842   7.895   6.552   0.826 -0.2168 -0.1291 -0.1069
  246MOL    O5334843   7.723   6.397   0.862  0.1598 -0.6193  0.3920
  246MOL    H5434844   7.892   6.345   0.757  0.0774  0.9256 -1.9296
  246MOL    H5534845   0.054   6.591   0.755  1.9424  0.3782  2.3044
  246MOL    H5634846   0.045   6.530   0.911  0.4222  0.7946 -0.3420
  246MOL    H5734847   7.826   6.634   0.843 -2.0608 -1.8725  0.9221
  246MOL    C5834848   7.756   6.298   0.955 -0.5461  0.4433 -0.2830
  246MOL    C5934849   7.629   6.279   1.038 -0.0586  0.2646  0.3511
  246MOL    O6034850   7.768   6.174   0.882  0.2928 -0.2196 -0.0024
  246MOL    H6134851   7.836   6.324   1.023 -1.2162  1.7863  0.0124
  246MOL    H6234852   7.604   6.378   1.076 -0.9807  0.2479 -0.1914
  246MOL    H6334853   7.637   6.205   1.116 -1.5759 -0.9248 -0.5863
  246MOL    H6434854   7.541   6.251   0.980  0.6883 -1.4524  0.0282
  246MOL    C6534855   7.883   6.093   0.914 -1.2259 -1.1258  0.7512
  246MOL    C6634856   7.851   5.944   0.887 -0.2797  0.7142 -0.0430
  246MOL    O6734857   0.084   6.127   0.840 -0.4402  0.0957  0.0480
  246MOL    H6834858   7.895   6.109   1.021  2.5909 -0.1668  0.2552
  246MOL    H6934859   7.815   5.927   0.785  2.5624  2.4505 -1.4105
  246MOL    H7034860   7.777   5.919   0.963  0.4541  1.0401  0.7867
  246MOL    H7134861   0.022   5.878   0.904  0.3748  1.4650 -0.3617
  246MOL    C7234862   0.196   6.105   0.916 -0.5592  0.2503 -0.2307
  246MOL    C7334863   0.320   6.108   0.824 -0.1943 -0.1110  0.0373
  246MOL    O7434864   0.217   6.208   1.019  0.4371  0.2258 -0.7277
  246MOL    H7534865   0.192   6.007   0.962  2.8383  0.2245  0.1544
  246MOL    H7634866   0.408   6.078   0.881 -1.9716  0.2529  3.0159
  246MOL    H7734867   0.325   6.211   0.788 -1.4939  0.1079  0.4476
  246MOL    H7834868   0.310   6.035   0.744 -0.7192 -0.3963  0.3656
  246MOL    C7934869   0.232   6.161   1.151  0.4083  0.5619 -0.1378
  246MOL    C8034870   0.303   6.259   1.238 -0.7826 -0.3726 -0.1069
  246MOL    O8134871   0.109   6.139   1.210  0.4478 -0.2707 -0.0098
  246MOL    H8234872   0.286   6.067   1.140  0.5756  0.5980  0.3388
  246MOL    H8334873   0.331   6.216   1.334 -2.2227 -0.3427  0.3471
  246MOL    H8434874   0.250   6.354   1.241 -3.4844 -1.7411 -2.3433
  246MOL    H8534875   0.398   6.275   1.187 -0.2109 -3.2602 -0.0107
  246MOL    C8634876   0.114   6.018   1.288 -0.7244 -0.4001 -0.0937
  246MOL    C8734877   7.900   6.010   1.382 -0.5526 -0.2603  0.3315
  246MOL    O8834878   0.111   5.905   1.200 -0.7031 -0.7202  0.8614
  246MOL    H8934879   0.205   6.024   1.347 -1.0769  0.5626  0.3631
  246MOL    H9034880   7.821   5.979   1.313  2.1381 -1.4548 -2.3631
  246MOL    H9134881   7.890   6.105   1.435 -0.2661  1.4761 -2.5987
  246MOL    H9234882   0.010   5.935   1.457 -0.8121 -0.7945 -0.1107
  246MOL    C9334883   0.202   5.809   1.239  0.1990  0.3382 -0.7737
  246MOL    C9434884   0.143   5.684   1.166 -0.9769 -0.4443 -0.2335
  246MOL    O9534885   0.327   5.839   1.198  0.2644 -0.4934  0.1135
  246MOL    H9634886   0.196   5.781   1.344  0.4482 -0.3677 -0.9467
  246MOL    H9734887   0.212   5.600   1.156 -0.6210  0.0883 -2.7407
  246MOL    H9834888   0.101   5.710   1.068  0.1616 -0.7875 -0.8193
  246MOL    H9934889   0.060   5.648   1.227 -1.0187 -1.5338 -0.9206
  246MOL   C10034890   0.428   5.825   1.294 -0.3776 -0.2994  0.8453
  246MOL   C10134891   0.556   5.841   1.206 -0.8770  0.9058 -0.5057
  246MOL   O10234892   0.425   5.922   1.388 -0.1345 -0.4304 -0.6861
  246MOL   H10334893   0.427   5.726   1.339 -2.9571 -0.8560 -0.3502
  246MOL   H10434894   0.562   5.940   1.162 -1.7211  0.2114 -2.2428
  246MOL   H10534895   0.549   5.783   1.114  0.1729 -0.5182  0.2847
  246MOL   H10634896   0.649   5.835   1.263 -0.9811 -1.5633 -0.5469
  246MOL   C10734897   0.504   5.905   1.501  0.3672 -0.3166  0.1281
  246MOL   C10834898   0.467   6.030   1.590  0.8042  0.5476  0.9748
  246MOL   O10934899   0.468   5.785   1.571 -0.0193 -0.0529 -0.0996
  246MOL   H11034900   0.610   5.911   1.479  0.1386  1.5959 -0.5346
  246MOL   H11134901   0.518   6.031   1.687 -1.4224  1.1179  2.1872
  246MOL   H11234902   0.359   6.039   1.605  0.4243 -0.6106 -1.0018
  246MOL   H11334903   0.513   6.116   1.543  2.2918  0.1946  1.7388
  246MOL   C11434904   0.568   5.716   1.630 -0.3122  0.3228 -0.0046
  246MOL   C11534905   0.489   5.608   1.715 -0.2795  0.4157 -0.3102
  246MOL   O11634906   0.642   5.639   1.532 -0.6833 -0.0151  0.0871
  246MOL   H11734907   0.626   5.790   1.685  0.0271  0.0993 -0.0571
  246MOL   H11834908   0.433   5.535   1.657 -1.6001 -0.1140  1.5760
  246MOL   H11934909   0.427   5.655   1.791  1.3280  2.7018 -0.3385
  246MOL   H12034910   0.560   5.549   1.774  0.6926  1.0672 -0.8145
  246MOL   C12134911   0.780   5.656   1.551 -0.3199 -0.1815 -0.0286
  246MOL   C12234912   0.852   5.527   1.498  0.3551 -0.4082 -0.9048
  246MOL   O12334913   0.827   5.764   1.478  0.1750 -0.2336  0.0723
  246MOL   H12434914   0.802   5.671   1.657  2.4343 -0.6871 -0.5052
  246MOL   H12534915   0.811   5.443   1.554  0.5995  0.3819  0.4779
  246MOL   H12634916   0.960   5.532   1.511  0.1998  1.1711 -0.1906
  246MOL   H12734917   0.826   5.514   1.393 -1.0010 -0.8434 -0.5291
  246MOL   C12834918   0.903   5.857   1.546  0.2874  0.1363 -0.3653
  246MOL   C12934919   0.954   5.957   1.439  0.0127  0.0783  0.4111
  246MOL   O13034920   0.825   5.930   1.633  0.5956 -0.1369 -0.3424
  246MOL   H13134921   0.978   5.799   1.601 -0.3191 -0.2168  0.0984
  246MOL   H13234922   0.876   5.988   1.370  0.8913 -1.6474 -1.3983
  246MOL   H13334923   1.014   5.903   1.366  1.1493  1.2252  0.4813
  246MOL   H13434924   1.027   6.030   1.476  0.8313  0.2491 -1.5221
  246MOL   C13534925   0.884   5.968   1.744 -0.5648  0.9538  0.0373
  246MOL   C13634926   0.804   6.090   1.786  0.7945  0.1700  0.0215
  246MOL   O13734927   0.865   5.868   1.841  0.1418  0.3004 -0.5035
  246MOL   H13834928   0.989   5.997   1.736  0.1865 -2.0853 -2.3490
  246MOL   H13934929   0.845   6.131   1.878 -0.1634  1.3648 -0.0601
  246MOL   H14034930   0.711   6.055   1.829  1.2664  0.7221  1.5116
  246MOL   H14134931   0.787   6.167   1.709  0.2245  0.5405  0.5119
  246MOL   H14234932   0.950   5.835   1.868 -0.7323  0.0265  2.0451
  247MOL     C134933   4.964   0.401   7.317  0.0544  0.2501  0.1259
  247MOL     C234934   4.940   0.499   7.429  0.1019 -0.6895  0.3810
  247MOL     O334935   4.944   0.271   7.362 -0.0867  0.2534  0.5066
  247MOL     H434936   5.065   0.414   7.277 -0.2299 -2.0610 -1.4167
  247MOL     H534937   4.959   0.601   7.395 -2.5839 -0.7285 -1.4135
  247MOL     H634938   4.983   0.472   7.525 -3.0219 -1.2867  1.6659
  247MOL     H734939   4.832   0.503   7.443  0.2048  0.2002  0.9077
  247MOL     H834940   4.892   0.413   7.236 -0.2139 -0.5759  0.2375
  247MOL     C934941   4.948   0.179   7.252 -0.4397  0.1138  0.0159
  247MOL    C1034942   4.996   0.042   7.312  0.8838 -0.2627  0.4896
  247MOL    O1134943   4.822   0.156   7.195 -0.0908  0.4118  0.2825
  247MOL    H1234944   5.021   0.213   7.180 -0.0748 -1.5200 -0.3932
  247MOL    H1334945   5.011   7.875   7.241 -1.9957 -1.3991  1.0932
  247MOL    H1434946   4.921   0.016   7.387 -0.3904  0.3112 -0.5566
  247MOL    H1534947   5.085   0.067   7.369  0.0774  2.9105  0.4237
  247MOL    C1634948   4.835   0.115   7.062  0.2535  0.9406  0.3550
  247MOL    C1734949   4.699   0.043   7.037  0.2175  0.0143  0.6691
  247MOL    O1834950   4.839   0.220   6.973  0.4346 -0.1085 -0.6718
  247MOL    H1934951   4.917   0.044   7.049  1.5760  2.4454  0.3791
  247MOL    H2034952   4.615   0.111   7.055  0.3696  0.8485 -1.5909
  247MOL    H2134953   4.679   7.879   7.110 -0.1832  1.9976  2.7266
  247MOL    H2234954   4.696   7.898   6.945 -1.5817  0.2822  0.5472
  247MOL    C2334955   4.946   0.208   6.887  0.0188 -0.0361  0.3116
  247MOL    C2434956   4.920   0.294   6.768  0.4181  0.4602  0.1363
  247MOL    O2534957   5.064   0.257   6.947 -0.6508 -0.2759  0.0368
  247MOL    H2634958   4.966   0.108   6.847 -0.0122 -0.6502  1.8208
  247MOL    H2734959   5.000   0.288   6.694  0.2572  1.7896 -0.1689
  247MOL    H2834960   4.891   0.394   6.799  0.6126  0.5549  0.0116
  247MOL    H2934961   4.825   0.263   6.725 -0.4889  2.0421  0.9520
  247MOL    C3034962   5.176   0.178   6.943  0.1016 -0.4004  0.1323
  247MOL    C3134963   5.285   0.248   7.013  0.2877 -0.2756  0.0439
  247MOL    O3234964   5.156   0.059   7.005 -0.3558 -0.0651  0.0679
  247MOL    H3334965   5.206   0.164   6.839 -0.9069 -1.7926  0.0163
  247MOL    H3434966   5.294   0.354   6.990  2.9079 -0.4407  0.2360
  247MOL    H3534967   5.381   0.197   7.005  1.0942  0.4428  3.9777
  247MOL    H3634968   5.251   0.228   7.115  1.7576 -0.4269  0.5170
  247MOL    C3734969   5.219   7.868   6.941  0.4787  0.4837 -0.0569
  247MOL    C3834970   5.212   7.744   7.033  0.5862 -0.5981  0.0040
  247MOL    O3934971   5.135   7.833   6.835 -0.2215 -0.2346 -0.0516
  247MOL    H4034972   5.320   7.889   6.909  0.7284  0.4480  0.6991
  247MOL    H4134973   5.105   7.728   7.048  0.7504  0.0378  1.9734
  247MOL    H4234974   5.270   7.755   7.124  2.3481 -0.6633 -1.0876
  247MOL    H4334975   5.247   7.649   6.992 -1.1323 -1.6600  0.9466
  247MOL    C4434976   5.189   7.757   6.733  0.6960  0.0367 -0.4460
  247MOL    C4534977   5.084   7.734   6.620 -0.6928  0.2332 -0.0479
  247MOL    O4634978   5.287   7.841   6.671 -0.2611 -0.1842  0.7045
  247MOL    H4734979   5.226   7.663   6.772 -1.3282 -0.5628  0.0920
  247MOL    H4834980   5.136   7.698   6.532 -2.4058 -2.5214  0.0100
  247MOL    H4934981   5.046   7.835   6.605  0.0827  0.5985  0.4057
  247MOL    H5034982   5.019   7.653   6.656  1.0563 -0.7742  0.9185
  247MOL    C5134983   5.399   7.767   6.635  1.0949  0.7030 -0.1566
  247MOL    C5234984   5.489   7.863   6.568 -0.5302 -0.3169  0.0527
  247MOL    O5334985   5.475   7.710   6.742 -0.0776 -0.0402  0.7935
  247MOL    H5434986   5.370   7.688   6.566  0.5710 -0.1510  1.0321
  247MOL    H5534987   5.578   7.809   6.535 -1.4505 -1.5714 -0.4083
  247MOL    H5634988   5.530   0.022   6.637 -0.8065  0.9261 -1.0573
  247MOL    H5734989   5.431   7.903   6.484 -0.5121  0.2209  0.2994
  247MOL    C5834990   5.493   7.573   6.735 -0.7760  0.4761  0.0671
  247MOL    C5934991   5.625   7.541   6.809 -0.9567  0.3205 -0.2056
  247MOL    O6034992   5.384   7.501   6.810 -0.0467  0.1417  0.1308
  247MOL    H6134993   5.505   7.526   6.637 -2.7309  1.3229 -0.6236
  247MOL    H6234994   5.646   7.437   6.833  1.7398  1.4120  2.4478
  247MOL    H6334995   5.627   7.606   6.897 -0.3046  0.6248 -0.4398
  247MOL    H6434996   5.701   7.579   6.741 -1.3924  3.4953  0.9807
  247MOL    C6534997   5.360   7.374   6.764 -0.0285  0.1845  0.1969
  247MOL    C6634998   5.304   7.295   6.884  0.0385 -0.1307 -0.0731
  247MOL    O6734999   5.250   7.365   6.669  0.8134 -0.1770  0.0198
  247MOL    H6835000   5.451   7.328   6.724  0.8010  1.9505  0.0128
  247MOL    H6935001   5.375   7.307   6.966  1.2489 -2.9366 -0.6622
  247MOL    H7035002   5.298   7.190   6.854  1.1494  0.2089 -1.5091
  247MOL    H7135003   5.212   7.334   6.928 -1.5686 -2.1998 -1.5110
  247MOL    C7235004   5.281   7.343   6.538 -0.2114  0.3532  0.1509
  247MOL    C7335005   5.166   7.266   6.455 -0.4197 -0.8231 -0.5821
  247MOL    O7435006   5.300   7.464   6.475  0.1691 -0.7934  0.0666
  247MOL    H7535007   5.373   7.284   6.541  0.2711  1.1910  2.8404
  247MOL    H7635008   5.146   7.184   6.524 -1.4670 -1.6164 -1.8112
  247MOL    H7735009   5.199   7.232   6.357 -0.5473 -0.8406 -0.6186
  247MOL    H7835010   5.074   7.325   6.456 -0.1239 -0.3530  0.8000
  247MOL    C7935011   5.384   7.460   6.367  0.0685  0.2853 -0.2325
  247MOL    C8035012   5.321   7.532   6.254  0.3873 -0.8996 -0.2285
  247MOL    O8135013   5.499   7.527   6.396 -0.2116  0.2702  0.0338
  247MOL    H8235014   5.402   7.358   6.333 -1.0719  0.2145 -0.6532
  247MOL    H8335015   5.326   7.641   6.256 -2.2140 -0.7470  0.1937
  247MOL    H8435016   5.216   7.506   6.242 -0.8257  3.9839 -1.5621
  247MOL    H8535017   5.372   7.494   6.166  2.8207  0.8798  0.3578
  247MOL    C8635018   5.610   7.456   6.356  0.1084 -0.0659  0.5027
  247MOL    C8735019   5.722   7.551   6.362 -0.3601  0.1978  0.8621
  247MOL    O8835020   5.636   7.349   6.441  0.8242  0.5355  0.8688
  247MOL    H8935021   5.599   7.418   6.254 -0.9554 -0.4406  0.7613
  247MOL    H9035022   5.813   7.491   6.358 -1.1992 -1.1272  1.2067
  247MOL    H9135023   5.743   7.606   6.454 -1.6328  2.5225 -0.1915
  247MOL    H9235024   5.719   7.612   6.271  2.9644 -0.4232  0.2730
  247MOL    C9335025   5.654   7.226   6.380  0.0996 -0.1925 -0.1710
  247MOL    C9435026   5.711   7.131   6.479 -0.1680 -0.0955 -0.0773
  247MOL    O9535027   5.537   7.166   6.332 -0.0223  0.8746 -0.2129
  247MOL    H9635028   5.726   7.239   6.299 -1.5018 -0.4807 -1.6786
  247MOL    H9735029   5.735   7.034   6.436  0.1093  0.3469 -0.9240
  247MOL    H9835030   5.637   7.092   6.549 -1.1587  0.9035 -0.5589
  247MOL    H9935031   5.798   7.175   6.527  0.6236 -0.5040 -1.1266
  247MOL   C10035032   5.537   7.133   6.194 -0.6893 -0.1647 -0.9553
  247MOL   C10135033   5.421   7.036   6.176  0.3605 -0.4465 -0.3730
  247MOL   O10235034   5.508   7.247   6.118 -0.0462 -0.3310  0.5596
  247MOL   H10335035   5.625   7.075   6.167 -0.5616 -0.6941  0.5794
  247MOL   H10435036   5.437   6.962   6.254  2.2159  1.5632  1.2301
  247MOL   H10535037   5.423   6.986   6.079  0.8448  0.0933 -0.6466
  247MOL   H10635038   5.324   7.085   6.189 -0.9686 -3.0809 -0.1497
  247MOL   C10735039   5.586   7.273   6.009  0.1131  0.2597 -0.4952
  247MOL   C10835040   5.519   7.373   5.916  0.2154 -0.6207 -0.1168
  247MOL   O10935041   5.701   7.350   6.050  0.1354 -0.1682 -0.2071
  247MOL   H11035042   5.624   7.186   5.956  2.7725  1.3087 -0.4172
  247MOL   H11135043   5.587   7.365   5.832 -2.1825  1.1229 -2.2813
  247MOL   H11235044   5.523   7.470   5.966 -0.6164 -0.1564 -0.9495
  247MOL   H11335045   5.417   7.341   5.897  0.0891 -1.3212  1.5973
  247MOL   C11435046   5.818   7.306   5.997 -0.1596  0.8547  0.0417
  247MOL   C11535047   5.927   7.420   6.015  0.0833  0.3863  0.3373
  247MOL   O11635048   5.860   7.197   6.075  0.1097  0.3278  0.0410
  247MOL   H11735049   5.819   7.276   5.893  0.5328 -3.0073  1.1013
  247MOL   H11835050   6.018   7.391   5.963  0.9524  2.0220  0.9260
  247MOL   H11935051   5.944   7.445   6.120  3.2081  0.1064 -0.0493
  247MOL   H12035052   5.878   7.500   5.961  0.3191 -0.3066 -0.9173
  247MOL   C12135053   5.886   7.077   6.006  0.0779  0.0008  0.4152
  247MOL   C12235054   5.965   6.975   6.089  0.3167  0.7289  0.8898
  247MOL   O12335055   5.764   7.016   5.977 -0.4694 -0.6400 -0.4861
  247MOL   H12435056   5.945   7.088   5.915 -2.0558 -0.7493 -1.0956
  247MOL   H12535057   6.002   6.891   6.031 -0.1281 -0.5957  2.4956
  247MOL   H12635058   5.895   6.944   6.166 -2.0251  1.5513 -0.8587
  247MOL   H12735059   6.046   7.031   6.138  1.2119  0.5540 -0.3639
  247MOL   C12835060   5.748   6.976   5.841  0.7065 -0.2587  0.1362
  247MOL   C12935061   5.616   6.906   5.844  0.5742 -0.3592 -0.4729
  247MOL   O13035062   5.743   7.085   5.757  0.3096 -0.3379 -0.3340
  247MOL   H13135063   5.829   6.909   5.811 -0.1195 -0.4910 -1.6018
  247MOL   H13235064   5.587   6.858   5.751 -1.9837 -0.3808  0.3035
  247MOL   H13335065   5.535   6.971   5.877  1.3574  0.8417 -0.9018
  247MOL   H13435066   5.621   6.827   5.920  0.3129  1.0713  1.0521
  247MOL   C13535067   5.782   7.056   5.624 -0.1626  0.1481  0.1250
  247MOL   C13635068   5.703   7.131   5.525 -0.0048 -0.0576  0.1896
  247MOL   O13735069   5.921   7.072   5.606  0.1130  0.5996  0.3508
  247MOL   H13835070   5.767   6.949   5.608 -0.9550  0.2369  0.2239
  247MOL   H13935071   5.721   7.238   5.525 -3.1213  0.5359 -1.1044
  247MOL   H14035072   5.596   7.122   5.543  0.3112 -0.7392  1.8381
  247MOL   H14135073   5.721   7.089   5.426 -0.1329 -1.1731  0.6389
  247MOL   H14235074   5.954   6.984   5.594  1.6787  1.2904 -0.5056
  248MOL     C135075   4.459   0.733   7.817  0.6363  0.8819 -0.3671
  248MOL     C235076   4.332   0.694   7.736  0.2496 -0.2764 -0.1163
  248MOL     O335077   4.502   0.852   7.776  0.2090  0.6220 -0.6050
  248MOL     H435078   4.527   0.650   7.798 -2.0038 -1.8370  1.5886
  248MOL     H535079   4.360   0.672   7.632 -0.0014  0.3843 -0.3296
  248MOL     H635080   4.248   0.763   7.739 -0.2869 -0.3439 -6.1618
  248MOL     H735081   4.287   0.604   7.776  1.5853 -0.9221 -0.0250
  248MOL     H835082   4.424   0.726   0.007  2.9754  0.7652  0.4399
  248MOL     C935083   4.597   0.894   7.861  0.1887  0.0650 -0.2322
  248MOL    C1035084   4.731   0.905   7.779  0.1478 -0.1587 -0.2099
  248MOL    O1135085   4.559   1.021   7.901  0.2161 -0.3628 -0.3988
  248MOL    H1235086   4.621   0.830   0.031 -2.1649 -0.5075  0.0243
  248MOL    H1335087   4.723   0.967   7.690 -0.8266 -0.2177 -0.1740
  248MOL    H1435088   4.771   0.808   7.750  0.2728  0.1242 -1.0015
  248MOL    H1535089   4.807   0.949   7.842 -0.3120  1.2012 -0.5868
  248MOL    C1635090   4.459   1.032   0.084 -0.4681  0.0257 -0.1662
  248MOL    C1735091   4.518   1.073   0.223 -0.3325  0.4070 -0.4959
  248MOL    O1835092   4.361   1.123   0.046 -0.5118 -0.4827  0.1184
  248MOL    H1935093   4.406   0.938   0.092 -0.6370  0.0555 -0.8956
  248MOL    H2035094   4.449   1.076   0.307  0.8026 -1.6389  0.5573
  248MOL    H2135095   4.561   1.173   0.217 -1.4973  1.0080  0.7979
  248MOL    H2235096   4.601   1.008   0.253 -1.5304 -0.6790  0.5202
  248MOL    C2335097   4.297   1.103   7.837 -0.3302  0.2652 -0.9100
  248MOL    C2435098   4.151   1.076   7.877  0.8478 -0.0017  0.2876
  248MOL    O2535099   4.284   1.217   7.754 -0.0960 -0.3397  0.2045
  248MOL    H2635100   4.342   1.020   7.782  1.5987  0.6919 -0.0202
  248MOL    H2735101   4.143   0.977   0.009 -2.2992 -0.8961 -2.0725
  248MOL    H2835102   4.087   1.070   7.790 -1.5905 -2.3902  2.1520
  248MOL    H2935103   4.122   1.152   0.035 -0.2624  1.2659 -1.4725
  248MOL    C3035104   4.400   1.248   7.697 -0.4568 -0.3660 -0.0384
  248MOL    C3135105   4.414   1.182   7.565  0.5445  0.3172  0.5535
  248MOL    O3235106   4.411   1.382   7.660  0.5184 -0.2992 -0.1855
  248MOL    H3335107   4.483   1.223   7.763 -0.1230  0.8363  0.0128
  248MOL    H3435108   4.501   1.219   7.511  1.0114 -2.9131 -1.0229
  248MOL    H3535109   4.332   1.211   7.500  0.6408  1.4053  0.9034
  248MOL    H3635110   4.425   1.074   7.575 -1.4620 -0.0063 -0.6389
  248MOL    C3735111   4.404   1.467   7.769  0.1618 -0.7955  0.7452
  248MOL    C3835112   4.539   1.541   7.780  0.1977  0.1744 -0.9346
  248MOL    O3935113   4.318   1.570   7.745 -0.6712  0.2308 -0.2104
  248MOL    H4035114   4.382   1.415   7.863 -1.4022 -0.0190  0.8257
  248MOL    H4135115   4.569   1.580   7.683 -0.2933  1.3176 -0.6325
  248MOL    H4235116   4.603   1.459   7.813 -0.3446  0.1589  0.0882
  248MOL    H4335117   4.530   1.618   7.856 -2.2313 -0.0634 -0.9333
  248MOL    C4435118   4.185   1.537   7.780 -0.3675 -0.0296  0.2254
  248MOL    C4535119   4.152   1.632   7.896 -0.1667  0.1083 -0.2089
  248MOL    O4635120   4.107   1.573   7.669 -0.6373  0.5602 -0.1016
  248MOL    H4735121   4.175   1.434   7.813 -0.4794 -0.0431  0.1456
  248MOL    H4835122   4.131   1.733   7.863  0.3930  0.9624  1.9248
  248MOL    H4935123   4.239   1.635   0.049 -0.1389 -2.8579 -0.0186
  248MOL    H5035124   4.067   1.585   0.033  1.7103 -0.8114  2.2042
  248MOL    C5135125   4.107   1.474   7.573 -0.3165 -0.0254  0.2064
  248MOL    C5235126   3.987   1.380   7.593  0.8256 -0.2440  0.0868
  248MOL    O5335127   4.108   1.527   7.446  0.2235 -0.4691  0.4548
  248MOL    H5435128   4.192   1.407   7.586 -0.6126 -0.7667 -1.5404
  248MOL    H5535129   3.980   1.315   7.506  1.7422  0.5713 -0.6080
  248MOL    H5635130   3.899   1.440   7.612 -0.7832 -2.3609 -0.5272
  248MOL    H5735131   3.999   1.315   7.680  1.1582  2.5285  2.1768
  248MOL    C5835132   4.235   1.562   7.407  0.0700 -0.1044  0.3399
  248MOL    C5935133   4.269   1.467   7.294  0.2693 -0.3233 -0.4607
  248MOL    O6035134   4.237   1.686   7.355 -0.0160  0.4962  0.5493
  248MOL    H6135135   4.308   1.551   7.487  1.8133  2.8332 -0.7361
  248MOL    H6235136   4.280   1.363   7.325  2.8109  0.2741  0.7599
  248MOL    H6335137   4.359   1.502   7.244  2.8540 -0.8412  3.5708
  248MOL    H6435138   4.183   1.477   7.228 -1.7712 -1.2182  1.9835
  248MOL    C6535139   4.242   1.791   7.440 -0.6388  0.1704 -0.0964
  248MOL    C6635140   4.369   1.864   7.414  0.1014 -0.1298 -0.0962
  248MOL    O6735141   4.139   1.881   7.413 -0.3580  0.1319 -0.7116
  248MOL    H6835142   4.232   1.773   7.547  1.6004  0.4395  0.1871
  248MOL    H6935143   4.366   1.882   7.307 -2.4233 -1.1790 -0.2478
  248MOL    H7035144   4.450   1.798   7.445 -0.9734 -0.8116  1.3539
  248MOL    H7135145   4.365   1.960   7.465 -0.9950 -0.5304  0.5804
  248MOL    C7235146   4.015   1.834   7.460 -0.4699 -0.1083  0.1002
  248MOL    C7335147   3.966   1.935   7.564  0.0073  0.0845  0.2387
  248MOL    O7435148   3.912   1.836   7.368  0.4368  0.6857  0.2323
  248MOL    H7535149   4.018   1.735   7.506 -0.3467 -0.8806 -1.5438
  248MOL    H7635150   3.939   2.034   7.526  0.5207  1.0464  2.3126
  248MOL    H7735151   4.044   1.942   7.639  0.9798  2.0971 -0.9019
  248MOL    H7835152   3.877   1.904   7.619 -1.0280 -0.3115 -1.5886
  248MOL    C7935153   3.928   1.751   7.252  0.1789 -0.9336 -0.4879
  248MOL    C8035154   3.833   1.635   7.253  0.0248  0.0775  0.0756
  248MOL    O8135155   3.907   1.822   7.138  0.0264 -0.2421 -0.3824
  248MOL    H8235156   4.032   1.720   7.246 -0.0240 -1.9438  0.9584
  248MOL    H8335157   3.865   1.567   7.174  1.4457  0.8844 -0.0617
  248MOL    H8435158   3.732   1.674   7.234  0.2499  1.1605  1.0611
  248MOL    H8535159   3.829   1.593   7.353  0.9032 -0.2102 -0.0082
  248MOL    C8635160   4.015   1.915   7.104  0.7235  0.3366  0.3617
  248MOL    C8735161   4.072   1.846   6.979  0.0016  1.1451 -0.4494
  248MOL    O8835162   3.963   2.040   7.065  0.2087  0.2530  0.1944
  248MOL    H8935163   4.094   1.936   7.177  1.0174  1.2502 -0.2076
  248MOL    H9035164   4.120   1.750   6.999  1.7788  2.0508 -0.3246
  248MOL    H9135165   4.136   1.914   6.924  2.3315  0.0966  0.8999
  248MOL    H9235166   3.988   1.825   6.913  0.1556  1.2180 -0.6696
  248MOL    C9335167   3.926   2.114   7.171 -0.2052  0.4272 -0.0027
  248MOL    C9435168   4.036   2.213   7.201 -0.2648 -0.3778  0.3224
  248MOL    O9535169   3.809   2.185   7.142  0.0367  0.1403 -0.0336
  248MOL    H9635170   3.911   2.057   7.263  1.5828 -0.1779 -0.0698
  248MOL    H9735171   4.008   2.274   7.287 -1.4590 -2.2940  1.3277
  248MOL    H9835172   4.057   2.273   7.112  0.3741 -0.2082  0.5851
  248MOL    H9935173   4.122   2.157   7.237 -1.3888 -1.1816  1.8073
  248MOL   C10035174   3.695   2.102   7.132 -0.7015  0.8882  0.0067
  248MOL   C10135175   3.623   2.110   7.268  0.3049 -0.2293 -0.2308
  248MOL   O10235176   3.614   2.143   7.029  0.1380  0.0896 -0.1943
  248MOL   H10335177   3.713   1.996   7.112 -1.8458  0.7555 -0.3890
  248MOL   H10435178   3.523   2.068   7.268 -0.6443  1.9193 -2.6691
  248MOL   H10535179   3.609   2.215   7.296 -0.7039 -0.5910  0.6471
  248MOL   H10635180   3.673   2.056   7.348 -1.4404  1.2092  1.9048
  248MOL   C10735181   3.659   2.106   6.896  0.7537  0.0950 -0.5018
  248MOL   C10835182   3.576   1.994   6.857  0.5001  0.4375  0.0019
  248MOL   O10935183   3.643   2.204   6.800 -0.0424  0.5795 -0.2794
  248MOL   H11035184   3.766   2.081   6.891  0.7821  0.0060  0.5759
  248MOL   H11135185   3.588   1.914   6.930  2.4583 -0.3072 -1.0960
  248MOL   H11235186   3.594   1.946   6.761 -0.1233 -1.2272  0.6887
  248MOL   H11335187   3.473   2.029   6.862  0.5653  1.0565 -2.5372
  248MOL   C11435188   3.707   2.326   6.833  0.6193 -0.0716 -0.1718
  248MOL   C11535189   3.823   2.343   6.743  0.7805  0.1197  0.8492
  248MOL   O11635190   3.622   2.436   6.801 -0.2501 -0.0770 -0.2962
  248MOL   H11735191   3.742   2.335   6.936  0.4862 -0.8955 -0.0456
  248MOL   H11835192   3.871   2.438   6.764 -0.8334  1.0017  0.6082
  248MOL   H11935193   3.794   2.333   6.638 -0.6406  0.4886  1.1966
  248MOL   H12035194   3.896   2.264   6.762  1.0024  0.4595  1.4039
  248MOL   C12135195   3.498   2.442   6.871 -0.4600 -0.1459  0.1253
  248MOL   C12235196   3.510   2.563   6.959  0.0663 -0.1852  0.1822
  248MOL   O12335197   3.385   2.464   6.799 -0.0164 -0.5601  0.0862
  248MOL   H12435198   3.491   2.363   6.945 -0.1139 -0.7817 -0.5168
  248MOL   H12535199   3.576   2.551   7.046  1.5309  1.1463 -0.7146
  248MOL   H12635200   3.410   2.594   6.989  1.2995  2.3189  1.8969
  248MOL   H12735201   3.557   2.647   6.909  0.7948  0.0641  1.2557
  248MOL   C12835202   3.354   2.352   6.718  0.6737 -0.4412  0.5387
  248MOL   C12935203   3.271   2.247   6.805 -0.2429  0.7550 -0.0243
  248MOL   O13035204   3.265   2.389   6.613 -0.3612 -0.0958  0.0322
  248MOL   H13135205   3.447   2.321   6.671  0.8166 -0.3900  0.7830
  248MOL   H13235206   3.282   2.162   6.738  0.6788  1.4980 -0.8399
  248MOL   H13335207   3.165   2.272   6.814 -0.9631 -2.2318  0.4255
  248MOL   H13435208   3.317   2.227   6.902  0.8442  0.3312 -0.6295
  248MOL   C13535209   3.315   2.478   6.516 -0.4991  0.4722  0.2694
  248MOL   C13635210   3.418   2.409   6.426 -0.2994 -0.1344 -0.1644
  248MOL   O13735211   3.207   2.515   6.435 -0.0155  0.1849 -0.2913
  248MOL   H13835212   3.350   2.563   6.575 -0.4848  0.7810 -0.1783
  248MOL   H13935213   3.513   2.395   6.477  0.5581  2.3173 -1.0405
  248MOL   H14035214   3.447   2.472   6.342 -0.2854 -0.6770 -0.5715
  248MOL   H14135215   3.374   2.319   6.383 -3.5679  0.3417  2.0290
  248MOL   H14235216   3.161   2.435   6.413  0.2613 -0.3820  1.1288
  249MOL     C135217   2.523   4.519   3.339 -0.0353  0.2290 -0.4196
  249MOL     C235218   2.427   4.625   3.284  0.3637 -0.7753  0.7626
  249MOL     O335219   2.631   4.589   3.406  0.1895 -0.5051 -0.6510
  249MOL     H435220   2.563   4.466   3.253 -0.9185 -0.9410 -0.1229
  249MOL     H535221   2.399   4.705   3.352 -0.4891 -1.2813  1.0144
  249MOL     H635222   2.337   4.575   3.247 -1.2925  1.6250  1.4042
  249MOL     H735223   2.462   4.680   3.197 -0.2735 -0.5839  0.6207
  249MOL     H835224   2.477   4.452   3.411 -0.5827  0.6807 -0.3412
  249MOL     C935225   2.747   4.518   3.432 -0.5501 -0.8604 -0.0429
  249MOL    C1035226   2.851   4.568   3.337  0.4909  0.4013  0.2941
  249MOL    O1135227   2.796   4.525   3.564  0.3280  0.2422 -0.4900
  249MOL    H1235228   2.722   4.417   3.398  1.2487 -0.4270 -2.8432
  249MOL    H1335229   2.878   4.673   3.351  1.7031  0.3205 -1.3880
  249MOL    H1435230   2.822   4.564   3.232 -0.3409 -0.2789  0.5463
  249MOL    H1535231   2.948   4.518   3.347  0.3054 -0.3177 -1.3472
  249MOL    C1635232   2.714   4.478   3.659  1.3647  0.8725  0.0985
  249MOL    C1735233   2.806   4.395   3.751 -0.0027 -0.3559 -0.2859
  249MOL    O1835234   2.656   4.575   3.738  0.4166 -0.3197 -0.3160
  249MOL    H1935235   2.642   4.415   3.608  2.6155 -0.7095  0.2385
  249MOL    H2035236   2.895   4.444   3.790 -1.1092  1.0637  0.5094
  249MOL    H2135237   2.814   4.295   3.708 -0.9480 -0.2183 -0.8090
  249MOL    H2235238   2.744   4.372   3.838  0.7564  1.3488  0.7463
  249MOL    C2335239   2.533   4.630   3.694 -0.1223 -0.6972  0.1592
  249MOL    C2435240   2.414   4.581   3.784 -0.3775  0.1946  0.2628
  249MOL    O2535241   2.536   4.771   3.707 -0.2915 -0.2446  0.4367
  249MOL    H2635242   2.499   4.604   3.594 -2.1353 -1.2082  0.9564
  249MOL    H2735243   2.430   4.610   3.888 -0.5292  2.9967 -0.4644
  249MOL    H2835244   2.417   4.472   3.790  0.1536  0.2280  0.6376
  249MOL    H2935245   2.316   4.604   3.742 -0.3012  0.5712  0.2915
  249MOL    C3035246   2.622   4.844   3.630  0.5906  0.1229  0.4875
  249MOL    C3135247   2.533   4.935   3.549  0.6663  0.5962 -0.8039
  249MOL    O3235248   2.707   4.929   3.699 -0.0181 -0.2619 -0.2516
  249MOL    H3335249   2.672   4.772   3.565 -0.4152 -0.3576  0.2360
  249MOL    H3435250   2.448   4.892   3.496 -0.2820 -0.1024  1.2270
  249MOL    H3535251   2.594   4.967   3.465  1.6438 -0.4907 -0.5152
  249MOL    H3635252   2.501   5.011   3.620 -3.7589 -1.8772  0.0858
  249MOL    C3735253   2.826   4.868   3.745 -0.1998 -0.5986 -0.3353
  249MOL    C3835254   2.936   4.920   3.652  0.4427  0.7381 -0.3243
  249MOL    O3935255   2.845   4.905   3.881  0.5207  0.4712  0.1439
  249MOL    H4035256   2.818   4.760   3.738  3.1007 -0.7755 -2.6614
  249MOL    H4135257   2.896   4.912   3.551 -1.4728  3.3732  0.1700
  249MOL    H4235258   3.031   4.866   3.661  0.0402  0.0814  0.0598
  249MOL    H4335259   2.945   5.022   3.689  1.1811  0.3043  0.7468
  249MOL    C4435260   2.756   4.835   3.970  0.3046  0.3753  0.1315
  249MOL    C4535261   2.844   4.754   4.065  0.0098 -0.6671  0.5207
  249MOL    O4635262   2.691   4.924   4.052  0.1106  0.5400 -0.6793
  249MOL    H4735263   2.684   4.775   3.915 -0.9452  2.0659 -0.0879
  249MOL    H4835264   2.890   4.823   4.136 -0.1781  0.0189 -0.0160
  249MOL    H4935265   2.925   4.707   4.009 -1.4461 -3.4028  0.6465
  249MOL    H5035266   2.785   4.674   4.109  1.6422 -1.9488  0.4645
  249MOL    C5135267   2.571   4.969   3.997 -0.2804  0.2696  0.3149
  249MOL    C5235268   2.454   4.900   4.079  0.2326 -0.8208 -0.2261
  249MOL    O5335269   2.560   5.107   4.016  0.0544  0.2217 -0.6176
  249MOL    H5435270   2.553   4.960   3.890  0.4287 -2.4579  0.3862
  249MOL    H5535271   2.357   4.938   4.049 -0.8382 -2.5254  0.9666
  249MOL    H5635272   2.465   4.910   4.187 -1.2737  2.5673 -0.3207
  249MOL    H5735273   2.457   4.799   4.038 -2.1873 -1.2536  0.5782
  249MOL    C5835274   2.604   5.181   3.905  0.4626 -0.3928 -0.5917
  249MOL    C5935275   2.484   5.230   3.826  0.1468 -0.2221 -0.0480
  249MOL    O6035276   2.676   5.294   3.939  0.1507  0.4386  0.1031
  249MOL    H6135277   2.677   5.122   3.849  0.1122  0.9341 -2.4971
  249MOL    H6235278   2.433   5.309   3.880  0.5247  0.3460 -0.5189
  249MOL    H6335279   2.426   5.142   3.796  1.0400 -1.2326  1.1404
  249MOL    H6435280   2.529   5.261   3.731  0.4790 -0.0669  0.1610
  249MOL    C6535281   2.806   5.261   3.991  0.6409 -0.1182 -0.1083
  249MOL    C6635282   2.903   5.316   3.891 -0.6571  0.1438 -0.4170
  249MOL    O6735283   2.825   5.303   4.124  0.2465  0.1066  0.5544
  249MOL    H6835284   2.816   5.152   3.993  1.6302 -0.0214  1.2844
  249MOL    H6935285   2.884   5.419   3.861 -0.5247 -0.1234 -1.4383
  249MOL    H7035286   2.893   5.263   3.796  0.2188 -3.4556  1.4338
  249MOL    H7135287   2.999   5.293   3.937 -0.8002  1.4223  0.5435
  249MOL    C7235288   2.754   5.241   4.227  0.3949 -0.2982  0.0512
  249MOL    C7335289   2.861   5.185   4.328  0.2068  0.2207 -0.5420
  249MOL    O7435290   2.687   5.337   4.300  0.3306 -0.1124  0.2978
  249MOL    H7535291   2.687   5.161   4.196  0.3553 -0.9930  1.8216
  249MOL    H7635292   2.906   5.100   4.275  0.8898  0.7583 -0.8374
  249MOL    H7735293   2.814   5.139   4.414  2.2989 -0.8610  0.0780
  249MOL    H7835294   2.942   5.252   4.357 -0.2053 -0.1476  1.4949
  249MOL    C7935295   2.576   5.390   4.237  0.5589  0.5026  0.3466
  249MOL    C8035296   2.461   5.359   4.339  0.7649 -0.1854 -0.2081
  249MOL    O8135297   2.585   5.525   4.236  0.3348 -0.1407 -0.2516
  249MOL    H8235298   2.545   5.346   4.142  0.8016 -0.0918  0.5382
  249MOL    H8335299   2.431   5.255   4.330  0.4916 -0.0015 -1.5038
  249MOL    H8435300   2.379   5.427   4.314  1.7773  1.4572  0.8117
  249MOL    H8535301   2.487   5.397   4.438  0.5205  1.1012 -0.6243
  249MOL    C8635302   2.655   5.584   4.130 -0.4646 -0.2103 -0.0725
  249MOL    C8735303   2.558   5.650   4.031 -0.5509 -0.4313 -0.3492
  249MOL    O8835304   2.733   5.684   4.186 -0.1855 -0.1092 -0.0531
  249MOL    H8935305   2.718   5.514   4.074  0.2573  0.0456  0.4141
  249MOL    H9035306   2.488   5.576   3.991 -2.3238  0.5240  0.9336
  249MOL    H9135307   2.613   5.699   3.950 -0.7467 -1.1891 -0.9493
  249MOL    H9235308   2.496   5.725   4.078  0.7386 -0.9941  2.3172
  249MOL    C9335309   2.844   5.632   4.256  0.1417  0.0299 -0.4161
  249MOL    C9435310   2.967   5.679   4.180  0.2691 -0.0858 -0.2174
  249MOL    O9535311   2.854   5.676   4.390 -0.0139 -0.4888  0.2847
  249MOL    H9635312   2.845   5.523   4.257  0.9362  0.0337  1.9002
  249MOL    H9735313   2.968   5.787   4.171 -1.5008  0.1916  2.5494
  249MOL    H9835314   2.962   5.627   4.084  2.3337  0.1227 -0.4808
  249MOL    H9935315   3.060   5.641   4.224  0.4632 -0.0365 -0.5783
  249MOL   C10035316   2.774   5.604   4.480 -0.7818  0.4909 -0.1692
  249MOL   C10135317   2.868   5.522   4.569 -0.3561 -0.3794 -0.0447
  249MOL   O10235318   2.708   5.693   4.569  0.2609 -0.4205  0.2868
  249MOL   H10335319   2.700   5.537   4.437 -0.7292  0.4673 -0.2219
  249MOL   H10435320   2.819   5.474   4.654 -1.9354  0.0389 -0.6970
  249MOL   H10535321   2.937   5.592   4.613 -1.1588  0.7132 -0.4853
  249MOL   H10635322   2.915   5.440   4.514  0.9680 -0.1362  0.7280
  249MOL   C10735323   2.598   5.749   4.505  0.2526  0.0300  0.2847
  249MOL   C10835324   2.485   5.685   4.577  0.0573  0.4020  0.0481
  249MOL   O10935325   2.594   5.888   4.518  0.3836  0.0320  0.2992
  249MOL   H11035326   2.602   5.736   4.397  1.0437 -0.2984  0.3510
  249MOL   H11135327   2.480   5.724   4.678 -2.9263  1.1412 -0.3242
  249MOL   H11235328   2.485   5.576   4.573 -1.3716  0.3476  1.1009
  249MOL   H11335329   2.392   5.717   4.529  0.8314  3.5159  0.5224
  249MOL   C11435330   2.623   5.950   4.400 -0.2178  0.4341  0.5500
  249MOL   C11535331   2.482   6.002   4.334 -0.4113  0.1565  0.2223
  249MOL   O11635332   2.704   6.061   4.431  0.5251  0.7113  0.6117
  249MOL   H11735333   2.674   5.902   4.317 -0.3552  3.3446 -1.2892
  249MOL   H11835334   2.507   6.054   4.242  2.2842 -3.1314 -1.0268
  249MOL   H11935335   2.427   6.070   4.399 -0.1738 -0.9022  1.5452
  249MOL   H12035336   2.411   5.928   4.296  1.0129 -0.8592 -0.5012
  249MOL   C12135337   2.836   6.018   4.459  0.1541  0.1306 -0.4282
  249MOL   C12235338   2.934   6.057   4.344  0.5476  0.2872 -0.4039
  249MOL   O12335339   2.890   6.087   4.574 -0.1125  0.4387  0.2591
  249MOL   H12435340   2.832   5.909   4.472 -0.7939 -0.0694 -2.2505
  249MOL   H12535341   3.032   6.025   4.380  0.2917 -0.1722 -0.1016
  249MOL   H12635342   2.940   6.165   4.333 -0.7910  0.3004 -1.0339
  249MOL   H12735343   2.917   6.016   4.244  0.9201 -0.8554 -0.0157
  249MOL   C12835344   2.830   6.059   4.691 -0.0532 -0.3337 -0.8634
  249MOL   C12935345   2.934   5.987   4.772  0.0498  0.4765  0.1327
  249MOL   O13035346   2.783   6.174   4.759 -0.2189 -0.0843 -0.0428
  249MOL   H13135347   2.745   5.996   4.665  0.3939 -0.1198 -2.9487
  249MOL   H13235348   2.958   5.893   4.723  0.4683  0.8453 -0.3760
  249MOL   H13335349   2.898   5.959   4.871  2.4862 -2.1145  0.3544
  249MOL   H13435350   3.031   6.036   4.782  0.6259 -0.9050  1.6194
  249MOL   C13535351   2.707   6.251   4.680 -0.7077  0.3469 -0.3518
  249MOL   C13635352   2.650   6.363   4.767  0.1073 -0.4465  0.1982
  249MOL   O13735353   2.783   6.330   4.583 -0.2364  0.0993  0.0042
  249MOL   H13835354   2.626   6.196   4.633 -0.6043  0.0248 -0.1496
  249MOL   H13935355   2.573   6.328   4.836 -0.5601 -1.8248 -1.2056
  249MOL   H14035356   2.617   6.446   4.704  0.5744  0.2300  0.8293
  249MOL   H14135357   2.726   6.420   4.820  0.2197 -0.5514  0.1506
  249MOL   H14235358   2.826   6.270   4.524 -0.0359 -0.7805  1.0142
  250MOL     C135359   3.592   3.408   2.513  0.1840  0.1076 -0.1336
  250MOL     C235360   3.656   3.433   2.642  0.1663 -0.2191  0.4237
  250MOL     O335361   3.460   3.368   2.528  0.4755  0.2403 -0.0431
  250MOL     H435362   3.656   3.339   2.457  0.1695 -1.4129  1.6900
  250MOL     H535363   3.749   3.488   2.632  0.3498 -0.4712  0.7599
  250MOL     H635364   3.670   3.338   2.693  3.7289 -1.2663 -2.2857
  250MOL     H735365   3.590   3.496   2.702 -1.5335 -1.2384 -0.3347
  250MOL     H835366   3.586   3.498   2.452 -1.0481  1.1764  1.5487
  250MOL     C935367   3.385   3.356   2.410  0.2704 -0.6500 -0.3524
  250MOL    C1035368   3.244   3.302   2.441  0.0864  0.2724  0.0899
  250MOL    O1135369   3.376   3.476   2.341  0.6114  0.3289  0.9255
  250MOL    H1235370   3.439   3.292   2.340 -0.0316 -0.6922 -0.5524
  250MOL    H1335371   3.202   3.357   2.525 -1.7647  0.7642 -1.1274
  250MOL    H1435372   3.242   3.198   2.474 -1.2670  0.1012 -0.4812
  250MOL    H1535373   3.172   3.310   2.359 -0.3735 -0.5702  0.3932
  250MOL    C1635374   3.310   3.588   2.413 -0.0138  0.9031  0.0232
  250MOL    C1735375   3.352   3.719   2.347 -0.0218  0.0365  0.0904
  250MOL    O1835376   3.177   3.583   2.391  0.2986 -0.5296 -0.6816
  250MOL    H1935377   3.349   3.589   2.515 -0.0780 -0.4527  0.0674
  250MOL    H2035378   3.320   3.803   2.409 -0.8295 -0.8994  0.9561
  250MOL    H2135379   3.316   3.731   2.245 -0.8111  1.5127  0.5253
  250MOL    H2235380   3.460   3.724   2.345  0.0465 -1.0413  0.5311
  250MOL    C2335381   3.099   3.658   2.485  0.0306  0.2615  0.7040
  250MOL    C2435382   2.955   3.616   2.453 -0.4393  0.1997 -0.4347
  250MOL    O2535383   3.127   3.619   2.615  0.0565  0.6868 -0.1565
  250MOL    H2635384   3.100   3.764   2.458  2.3583 -0.2625 -1.4935
  250MOL    H2735385   2.953   3.507   2.453 -1.2179  0.1899  1.6732
  250MOL    H2835386   2.929   3.654   2.355  2.3768  1.7690 -0.6189
  250MOL    H2935387   2.892   3.644   2.538  1.1410  2.0631  0.1541
  250MOL    C3035388   3.155   3.720   2.704  0.1175 -0.3668 -0.3991
  250MOL    C3135389   3.189   3.652   2.846  0.3970  0.1962  0.0159
  250MOL    O3235390   3.272   3.788   2.653 -0.2109 -0.3688  0.2336
  250MOL    H3335391   3.064   3.780   2.701  0.6062  0.5459  1.7902
  250MOL    H3435392   3.280   3.592   2.842  0.7539  0.7512 -0.2501
  250MOL    H3535393   3.098   3.598   2.871  0.4089  0.3922  0.4844
  250MOL    H3635394   3.198   3.731   2.919  1.8974 -0.0910  0.1574
  250MOL    C3735395   3.300   3.909   2.714  0.1206 -0.0781 -0.1299
  250MOL    C3835396   3.427   3.973   2.653  0.1146 -0.1038  0.1294
  250MOL    O3935397   3.197   4.005   2.697  0.2078 -0.3334 -0.1187
  250MOL    H4035398   3.312   3.896   2.822 -2.6059  0.4365  0.2686
  250MOL    H4135399   3.508   3.910   2.690 -0.0277 -0.2016  0.2780
  250MOL    H4235400   3.446   4.076   2.683  1.5618 -0.6812  1.2611
  250MOL    H4335401   3.418   3.982   2.545 -0.8082  1.5923  0.3344
  250MOL    C4435402   3.157   4.073   2.815 -0.4826 -0.2165 -0.1995
  250MOL    C4535403   3.052   4.177   2.778 -0.2408  0.4353  0.3413
  250MOL    O4635404   3.103   3.979   2.908 -0.3321  0.3408  0.0666
  250MOL    H4735405   3.245   4.124   2.855 -1.2336  0.9566 -0.0227
  250MOL    H4835406   2.982   4.114   2.723  2.2010 -0.9254 -1.2604
  250MOL    H4935407   3.081   4.260   2.712  2.4043 -0.7675 -0.0562
  250MOL    H5035408   3.000   4.207   2.869  2.2817  0.7246  1.7307
  250MOL    C5135409   3.137   4.007   3.044 -0.9215 -0.9597  0.2986
  250MOL    C5235410   3.060   3.920   3.133 -0.1682 -0.0669 -0.0355
  250MOL    O5335411   3.270   3.971   3.057  0.1305  0.4274  0.2875
  250MOL    H5435412   3.115   4.111   3.067 -0.7277 -0.5272 -1.4221
  250MOL    H5535413   3.075   3.814   3.114  0.3125 -0.0291  0.1334
  250MOL    H5635414   2.954   3.945   3.130 -0.0840  0.1670 -1.3467
  250MOL    H5735415   3.082   3.932   3.239 -0.0119 -0.9793  0.0371
  250MOL    C5835416   3.348   4.069   3.119  0.3628 -0.5625 -0.0438
  250MOL    C5935417   3.466   4.004   3.197  0.2285 -0.4130 -0.1894
  250MOL    O6035418   3.408   4.157   3.024 -0.8691 -0.1044  0.0075
  250MOL    H6135419   3.287   4.111   3.199  2.3857  0.0749  1.2095
  250MOL    H6235420   3.502   4.083   3.262 -0.5740 -0.1035 -0.1179
  250MOL    H6335421   3.541   3.975   3.123  0.9282  1.4408 -0.2165
  250MOL    H6435422   3.419   3.926   3.258 -0.3123 -1.2910 -1.6935
  250MOL    C6535423   3.393   4.286   3.073 -0.2748  0.1831  0.8048
  250MOL    C6635424   3.497   4.380   3.008  0.1896 -0.3540  0.2433
  250MOL    O6735425   3.267   4.342   3.046  0.1886 -0.7090  0.7465
  250MOL    H6835426   3.414   4.290   3.180  0.7965 -0.5426  0.6291
  250MOL    H6935427   3.597   4.347   3.036 -0.1804 -0.5754  1.3346
  250MOL    H7035428   3.485   4.486   3.032  0.4852 -0.3771  0.4903
  250MOL    H7135429   3.493   4.376   2.900 -0.5147  0.6957  0.2189
  250MOL    C7235430   3.213   4.422   3.147 -0.2759 -0.6279 -0.0448
  250MOL    C7335431   3.113   4.529   3.086  0.1437 -0.0683  0.0031
  250MOL    O7435432   3.134   4.354   3.232  0.0580 -0.3924  0.0945
  250MOL    H7535433   3.292   4.483   3.190  0.7752 -1.0637 -1.3139
  250MOL    H7635434   3.077   4.601   3.160  2.0518  1.2037 -0.2453
  250MOL    H7735435   3.028   4.477   3.043 -0.6809  0.1186  1.3669
  250MOL    H7835436   3.168   4.585   3.010 -0.2253 -1.8729 -1.6142
  250MOL    C7935437   3.180   4.365   3.367 -0.4348 -0.0547 -0.1279
  250MOL    C8035438   3.076   4.290   3.452 -0.5087 -0.2892  0.4480
  250MOL    O8135439   3.296   4.289   3.384 -0.2236 -0.4363  0.1077
  250MOL    H8235440   3.187   4.471   3.393  1.8956 -0.2077 -0.0584
  250MOL    H8335441   3.100   4.304   3.557 -1.2638  0.7822  0.4884
  250MOL    H8435442   3.096   4.185   3.431 -0.0890 -0.1329  0.0459
  250MOL    H8535443   2.978   4.332   3.431  0.2175  0.6195 -1.2110
  250MOL    C8635444   3.402   4.358   3.443 -0.6428  0.0078 -0.1113
  250MOL    C8735445   3.498   4.264   3.516  0.3687  0.1442  0.4733
  250MOL    O8835446   3.480   4.429   3.355 -0.3507  0.1304  0.0405
  250MOL    H8935447   3.359   4.422   3.520 -0.5235 -0.3691  0.2752
  250MOL    H9035448   3.597   4.302   3.541  0.5935 -0.4422  0.4813
  250MOL    H9135449   3.497   4.182   3.444  1.1934  0.3520  0.2170
  250MOL    H9235450   3.457   4.229   3.611 -0.9270  0.2356 -0.0419
  250MOL    C9335451   3.500   4.563   3.388  0.2861 -0.3477 -0.1998
  250MOL    C9435452   3.616   4.613   3.295  0.4220 -0.0830  0.0178
  250MOL    O9535453   3.390   4.643   3.342  0.4960 -0.0110  0.5784
  250MOL    H9635454   3.524   4.568   3.494  1.6593 -0.0523 -0.5152
  250MOL    H9735455   3.698   4.550   3.330 -0.5359 -1.3354  0.0249
  250MOL    H9835456   3.618   4.721   3.309  1.0379  0.1188 -1.5192
  250MOL    H9935457   3.599   4.603   3.188 -1.2514  2.1564  0.0495
  250MOL   C10035458   3.343   4.729   3.444 -0.2727 -0.3755  0.1213
  250MOL   C10135459   3.254   4.853   3.381 -0.0071  0.8105  0.2486
  250MOL   O10235460   3.257   4.669   3.532 -0.0193  0.0325 -0.3195
  250MOL   H10335461   3.426   4.774   3.499 -0.6015 -0.4959  0.7214
  250MOL   H10435462   3.166   4.821   3.326 -0.3672  1.4813  0.4278
  250MOL   H10535463   3.321   4.906   3.313 -2.8235 -0.1502 -3.3879
  250MOL   H10635464   3.230   4.916   3.467 -1.8280  0.7640 -0.2259
  250MOL   C10735465   3.278   4.696   3.666 -0.9916 -0.1861 -0.0690
  250MOL   C10835466   3.152   4.647   3.730  0.4571  0.0151 -0.2057
  250MOL   O10935467   3.383   4.624   3.726  0.3963  0.5502  0.3155
  250MOL   H11035468   3.295   4.803   3.682 -1.3199  0.2100 -2.1771
  250MOL   H11135469   3.135   4.713   3.816  1.8990  0.2723 -0.0965
  250MOL   H11235470   3.164   4.552   3.783  0.2949  0.9036  1.4496
  250MOL   H11335471   3.064   4.650   3.666 -0.0021  3.8115  0.4601
  250MOL   C11435472   3.476   4.705   3.789 -0.2350 -0.0207  0.0284
  250MOL   C11535473   3.600   4.620   3.840 -0.5720  0.1941 -0.9260
  250MOL   O11635474   3.528   4.798   3.703  0.4414 -0.2664 -0.3029
  250MOL   H11735475   3.436   4.738   3.885  1.7818  1.3685  0.4214
  250MOL   H11835476   3.570   4.545   3.913 -2.1733  0.6791 -1.0549
  250MOL   H11935477   3.675   4.673   3.899 -2.6489  2.1703  0.0238
  250MOL   H12035478   3.649   4.572   3.755 -0.9868 -0.6755 -0.6840
  250MOL   C12135479   3.536   4.933   3.752 -0.0079  0.3704  0.0675
  250MOL   C12235480   3.673   4.981   3.697  0.1439 -0.7104  0.6531
  250MOL   O12335481   3.437   5.001   3.682  0.3143  0.6684  0.1477
  250MOL   H12435482   3.523   4.950   3.859  0.8457  2.7973 -0.1926
  250MOL   H12535483   3.687   5.088   3.712 -1.2792 -0.5745  1.1153
  250MOL   H12635484   3.670   4.976   3.588 -2.0485 -2.7856  0.7485
  250MOL   H12735485   3.763   4.924   3.721  0.5324 -0.3419  0.0694
  250MOL   C12835486   3.351   5.070   3.770  0.2477  0.7610 -0.3180
  250MOL   C12935487   3.254   5.159   3.682 -0.3346 -0.4390 -0.0570
  250MOL   O13035488   3.281   4.986   3.850 -0.5205 -0.3484 -0.0278
  250MOL   H13135489   3.413   5.139   3.826  1.7991 -0.3803 -0.6010
  250MOL   H13235490   3.190   5.099   3.617  0.2377  0.2821 -1.2974
  250MOL   H13335491   3.292   5.244   3.625  0.3129 -0.6129  0.1077
  250MOL   H13435492   3.192   5.210   3.756 -0.1825 -2.0266  1.1849
  250MOL   C13535493   3.254   5.028   3.977  1.0013 -0.3365 -0.5167
  250MOL   C13635494   3.162   4.917   4.044  0.4072  0.8533  0.4624
  250MOL   O13735495   3.364   5.047   4.061 -0.4859 -0.5754  0.3538
  250MOL   H13835496   3.200   5.122   3.971  2.1379  0.3333 -0.4771
  250MOL   H13935497   3.092   4.877   3.971  1.7968 -0.1033 -0.3721
  250MOL   H14035498   3.117   4.951   4.137  1.4241  1.1001  0.8757
  250MOL   H14135499   3.223   4.831   4.073 -2.7913 -0.9658  2.0435
  250MOL   H14235500   3.355   5.134   4.098 -1.8795 -1.3937  2.0216
  251MOL     C135501   2.775   5.596   4.968 -0.4689 -0.2776 -0.7151
  251MOL     C235502   2.924   5.630   5.010  0.5131 -0.4290  0.2138
  251MOL     O335503   2.691   5.697   5.012 -1.1000 -0.2462  0.6852
  251MOL     H435504   2.755   5.492   4.996 -0.7584 -0.4974 -1.7197
  251MOL     H535505   2.926   5.652   5.117 -0.1774 -0.5905  0.2604
  251MOL     H635506   2.949   5.724   4.960 -0.2226 -0.4336 -0.1684
  251MOL     H735507   3.001   5.554   5.004 -1.0156 -2.1173  1.5729
  251MOL     H835508   2.773   5.590   4.859  0.9798  1.1058 -0.8410
  251MOL     C935509   2.579   5.713   4.933 -0.0744  0.2148 -0.0187
  251MOL    C1035510   2.492   5.589   4.949 -0.7782 -0.1160  0.4051
  251MOL    O1135511   2.511   5.818   4.987 -0.4057 -1.0383 -0.4935
  251MOL    H1235512   2.625   5.726   4.835  1.0410 -1.8667  0.1947
  251MOL    H1335513   2.540   5.499   4.910  2.7058  0.9856  1.9237
  251MOL    H1435514   2.398   5.617   4.902  0.3028 -0.0788 -1.7809
  251MOL    H1535515   2.471   5.574   5.055  1.1870  0.9120  0.9570
  251MOL    C1635516   2.555   5.948   4.958 -0.5284  0.1440 -0.0063
  251MOL    C1735517   2.480   5.994   4.828  0.3080 -0.1739 -0.1510
  251MOL    O1835518   2.508   6.034   5.052 -0.2021  0.5852  0.8226
  251MOL    H1935519   2.664   5.956   4.953 -0.1320 -2.0345  3.3636
  251MOL    H2035520   2.376   6.005   4.858 -0.4329 -1.1240 -2.2933
  251MOL    H2135521   2.498   5.925   4.746  1.2093 -0.8342  0.5910
  251MOL    H2235522   2.523   6.087   4.790 -1.4061  0.2307 -1.1090
  251MOL    C2335523   2.589   6.057   5.162 -0.5330  0.2271 -0.3825
  251MOL    C2435524   2.657   6.189   5.134 -0.2248 -0.1403  0.0600
  251MOL    O2535525   2.518   6.077   5.280 -0.0745 -0.6241 -0.0799
  251MOL    H2635526   2.654   5.970   5.175 -0.7259  0.2134  0.5591
  251MOL    H2735527   2.580   6.259   5.101 -0.1358 -0.4412 -0.7964
  251MOL    H2835528   2.717   6.180   5.043  1.1793  1.1107  0.8419
  251MOL    H2935529   2.718   6.226   5.216  0.6214 -0.8161 -0.2610
  251MOL    C3035530   2.459   5.963   5.341  0.0724  0.5159 -0.2467
  251MOL    C3135531   2.540   5.947   5.474 -0.1482  0.6283  0.1100
  251MOL    O3235532   2.324   5.990   5.378 -0.1607 -0.0621 -0.0669
  251MOL    H3335533   2.468   5.874   5.278 -1.0820  0.2545 -0.0517
  251MOL    H3435534   2.508   5.859   5.529  0.5452 -0.6796 -1.5486
  251MOL    H3535535   2.511   6.032   5.536 -0.8350  0.0418  0.5960
  251MOL    H3635536   2.646   5.927   5.456 -0.2980 -1.6412  1.5620
  251MOL    C3735537   2.233   5.994   5.273  0.0682  0.8998 -0.9629
  251MOL    C3835538   2.164   5.863   5.255 -0.4424  0.5405 -0.3596
  251MOL    O3935539   2.126   6.076   5.301 -0.1631  0.1753 -0.7094
  251MOL    H4035540   2.291   6.013   5.182  2.8269 -1.7990  0.1259
  251MOL    H4135541   2.222   5.781   5.299 -0.3276  0.4116 -0.7489
  251MOL    H4235542   2.156   5.840   5.149 -0.6151  1.5954 -0.5744
  251MOL    H4335543   2.065   5.867   5.301 -0.8945 -1.2950 -1.1114
  251MOL    C4435544   2.171   6.209   5.294  0.3088  0.4174 -0.5910
  251MOL    C4535545   2.083   6.275   5.191  0.8717 -0.0664  0.7320
  251MOL    O4635546   2.147   6.292   5.412 -0.7817  0.2158 -0.0861
  251MOL    H4735547   2.276   6.217   5.264 -0.2024 -0.2949 -2.6730
  251MOL    H4835548   2.146   6.356   5.154 -0.9520  1.4930  1.0123
  251MOL    H4935549   1.980   6.282   5.226  0.4246 -0.0632 -0.5588
  251MOL    H5035550   2.069   6.212   5.103 -0.1062  1.0565  0.0696
  251MOL    C5135551   2.253   6.288   5.505  0.3768  0.6047 -0.0790
  251MOL    C5235552   2.310   6.431   5.496  0.2376  0.4668 -0.4588
  251MOL    O5335553   2.204   6.276   5.634  0.5310 -0.1724 -0.9652
  251MOL    H5435554   2.331   6.211   5.499  1.4949  1.6269  1.0873
  251MOL    H5535555   2.223   6.494   5.514  0.1651  0.1135  0.4525
  251MOL    H5635556   2.345   6.448   5.395 -1.1241 -0.4273 -1.1002
  251MOL    H5735557   2.384   6.448   5.574 -0.0281  1.0515 -0.3320
  251MOL    C5835558   2.141   6.149   5.659  0.3776  0.0052  0.0782
  251MOL    C5935559   2.247   6.058   5.714  0.3049 -0.3736 -0.6743
  251MOL    O6035560   2.035   6.163   5.754  0.3963  0.0404 -0.2968
  251MOL    H6135561   2.095   6.109   5.568 -0.2554  1.9029 -0.4635
  251MOL    H6235562   2.335   6.055   5.650  0.4042 -0.4643 -0.5311
  251MOL    H6335563   2.200   5.960   5.725  0.0284 -0.1894 -0.1883
  251MOL    H6435564   2.275   6.101   5.810  0.5707 -1.3000 -0.3320
  251MOL    C6535565   1.942   6.265   5.723  0.2390 -0.1675 -0.5162
  251MOL    C6635566   1.807   6.191   5.694  0.3066 -0.7167 -0.2239
  251MOL    O6735567   1.919   6.335   5.845 -0.4198 -0.0925  0.5322
  251MOL    H6835568   1.960   6.329   5.637 -1.0742  0.9619  0.0201
  251MOL    H6935569   1.731   6.263   5.661 -0.2834 -1.4466 -0.4818
  251MOL    H7035570   1.779   6.126   5.777 -2.0102 -1.6722 -1.7174
  251MOL    H7135571   1.831   6.120   5.615  0.1739 -1.9920  0.8648
  251MOL    C7235572   2.033   6.405   5.890 -0.1646 -0.1640 -0.0127
  251MOL    C7335573   2.011   6.551   5.867 -0.4137 -0.2537 -0.3075
  251MOL    O7435574   2.056   6.395   6.029  0.0781 -0.1441  0.0001
  251MOL    H7535575   2.124   6.374   5.838  0.1257 -0.3909  0.6151
  251MOL    H7635576   2.099   6.606   5.899  0.2914 -0.8774 -1.1573
  251MOL    H7735577   1.927   6.589   5.926 -1.4955 -2.7577 -0.1834
  251MOL    H7835578   1.999   6.566   5.760  0.7828 -1.4655 -0.6314
  251MOL    C7935579   2.105   6.271   6.062 -0.5771  0.5118  0.5046
  251MOL    C8035580   2.241   6.299   6.129  0.0318  0.0070  0.5886
  251MOL    O8135581   2.022   6.212   6.156 -0.4743  0.5244 -0.0014
  251MOL    H8235582   2.130   6.211   5.974  0.0012  0.0099  1.0117
  251MOL    H8335583   2.295   6.371   6.066  0.1645 -0.1875  0.4800
  251MOL    H8435584   2.297   6.208   6.149  2.7643  2.0609  2.6689
  251MOL    H8535585   2.226   6.353   6.222 -1.3249  1.5872 -0.5211
  251MOL    C8635586   1.928   6.123   6.102 -0.1448  0.6495  0.2581
  251MOL    C8735587   1.984   5.984   6.131 -0.4876 -0.3891  0.2075
  251MOL    O8835588   1.806   6.129   6.159  0.3494  0.0894 -0.1259
  251MOL    H8935589   1.921   6.136   5.994  0.3049  0.6032  0.2200
  251MOL    H9035590   1.980   5.972   6.240 -1.5555 -0.2364  0.1902
  251MOL    H9135591   2.082   5.968   6.087 -0.6522 -1.1974  0.1231
  251MOL    H9235592   1.911   5.914   6.089 -0.3644 -0.8098  0.6855
  251MOL    C9335593   1.721   6.227   6.100  0.1825  0.0724  0.4730
  251MOL    C9435594   1.594   6.149   6.070  0.0746 -0.0803 -0.6576
  251MOL    O9535595   1.685   6.331   6.189  0.4213 -0.2859  1.5358
  251MOL    H9635596   1.747   6.273   6.005 -0.6204  0.3049  0.3575
  251MOL    H9735597   1.525   6.212   6.015 -0.9846 -0.9423 -0.3273
  251MOL    H9835598   1.563   6.106   6.166  0.1872 -0.8113 -0.9398
  251MOL    H9935599   1.634   6.065   6.014 -0.4156 -2.2464  2.0978
  251MOL   C10035600   1.784   6.425   6.205  0.0745  0.1615 -0.6130
  251MOL   C10135601   1.743   6.551   6.127  0.1780  0.0697 -0.1220
  251MOL   O10235602   1.781   6.466   6.338 -0.1258  0.1100  0.4448
  251MOL   H10335603   1.883   6.401   6.166  0.0541 -0.6743 -0.1689
  251MOL   H10435604   1.825   6.619   6.151  1.4613 -0.6277 -2.4262
  251MOL   H10535605   1.648   6.587   6.166 -0.1799 -0.8901 -0.1001
  251MOL   H10635606   1.729   6.530   6.021  0.1872  0.7064 -0.2532
  251MOL   C10735607   1.865   6.388   6.419 -0.0164 -0.3620 -0.8076
  251MOL   C10835608   2.002   6.455   6.412  0.0641 -0.6840  0.5715
  251MOL   O10935609   1.828   6.406   6.548  0.1974 -0.0167  0.5100
  251MOL   H11035610   1.873   6.285   6.383  0.6488 -0.1597 -1.2591
  251MOL   H11135611   2.066   6.425   6.495  0.2434  0.2418  0.7736
  251MOL   H11235612   1.985   6.563   6.416  0.3398 -0.6334  0.4234
  251MOL   H11335613   2.055   6.436   6.318 -1.3523 -1.7479 -0.0314
  251MOL   C11435614   1.699   6.362   6.577 -0.3867 -0.8323 -0.3105
  251MOL   C11535615   1.705   6.233   6.654  0.0700 -0.1611 -0.4193
  251MOL   O11635616   1.638   6.456   6.657  0.1303 -0.1068 -0.4856
  251MOL   H11735617   1.640   6.345   6.486 -0.9169  1.6834 -0.4664
  251MOL   H11835618   1.737   6.150   6.591  2.1458 -0.9280  1.5575
  251MOL   H11935619   1.611   6.199   6.696 -0.5498 -1.6033 -2.8476
  251MOL   H12035620   1.769   6.238   6.742 -1.2422  1.4402  0.4653
  251MOL   C12135621   1.637   6.589   6.606  0.1789 -0.3523  0.0929
  251MOL   C12235622   1.525   6.605   6.509  0.1930 -0.3249 -0.7193
  251MOL   O12335623   1.618   6.684   6.715 -0.1153 -0.2105 -0.1090
  251MOL   H12435624   1.730   6.606   6.552  0.8168 -0.9225  0.9874
  251MOL   H12535625   1.545   6.553   6.416  0.7727 -0.6447 -0.4186
  251MOL   H12635626   1.505   6.707   6.475  0.7520  0.6492  1.7412
  251MOL   H12735627   1.437   6.564   6.558  0.1920  1.8535  1.2308
  251MOL   C12835628   1.730   6.701   6.797 -1.2200  0.0720 -0.2934
  251MOL   C12935629   1.768   6.847   6.808 -0.2071 -0.6064  0.1687
  251MOL   O13035630   1.703   6.671   6.931 -0.4536  0.0888  0.7034
  251MOL   H13135631   1.814   6.642   6.760 -1.3595  1.2160 -2.4472
  251MOL   H13235632   1.795   6.876   6.706  0.5031 -0.4454  0.4036
  251MOL   H13335633   1.851   6.882   6.869 -0.7107 -0.0729  0.5579
  251MOL   H13435634   1.679   6.906   6.830 -0.2136 -1.5577  2.9177
  251MOL   C13535635   1.709   6.540   6.968  0.0194 -0.0136  0.5717
  251MOL   C13635636   1.708   6.540   7.115  0.7867  0.3015 -0.3866
  251MOL   O13735637   1.604   6.460   6.919 -0.0282  0.1249  0.4082
  251MOL   H13835638   1.808   6.504   6.941 -0.2846  0.2694 -0.9341
  251MOL   H13935639   1.615   6.585   7.150  0.3894  0.8908 -2.1650
  251MOL   H14035640   1.799   6.591   7.146  0.4120  1.2277 -0.7984
  251MOL   H14135641   1.713   6.438   7.153 -1.8385 -0.0757 -0.9691
  251MOL   H14235642   1.612   6.459   6.825 -0.3319  0.6147  0.3761
  252MOL     C135643   2.466   0.190   3.972 -0.0240  0.9250 -0.2641
  252MOL     C235644   2.372   0.220   3.861 -0.5888 -0.2677  0.2515
  252MOL     O335645   2.525   0.309   4.027 -0.3952  0.1536 -0.3692
  252MOL     H435646   2.543   0.121   3.938  1.0028  1.3200  1.2337
  252MOL     H535647   2.319   0.308   3.897  0.3435  0.3332  0.1713
  252MOL     H635648   2.318   0.127   3.841 -0.2431 -0.5574  0.6297
  252MOL     H735649   2.435   0.252   3.778 -1.1095  0.1318  0.0084
  252MOL     H835650   2.410   0.136   4.049  1.3944  1.6714  1.3059
  252MOL     C935651   2.619   0.372   3.954  0.4483 -0.0991  0.7263
  252MOL    C1035652   2.583   0.516   3.934  0.4289 -0.2532  0.3653
  252MOL    O1135653   2.736   0.391   4.028  0.2806 -0.2067  0.1620
  252MOL    H1235654   2.630   0.317   3.860  0.7893  0.3516  0.5037
  252MOL    H1335655   2.651   0.568   3.866  0.1525 -0.0018  0.2799
  252MOL    H1435656   2.593   0.573   4.026  2.1938  0.3847 -0.1860
  252MOL    H1535657   2.480   0.535   3.906  0.3238 -0.0073  0.9194
  252MOL    C1635658   2.810   0.281   4.061  0.4002 -0.0642  0.1171
  252MOL    C1735659   2.939   0.275   3.968  0.7767  0.2043 -0.6339
  252MOL    O1835660   2.856   0.294   4.193 -0.0815  0.7706 -0.4240
  252MOL    H1935661   2.748   0.191   4.068  0.6529 -0.3168 -0.7760
  252MOL    H2035662   2.990   0.181   3.989 -0.5428 -0.3874  0.0091
  252MOL    H2135663   3.009   0.357   3.982  1.4307 -0.1759 -1.6307
  252MOL    H2235664   2.904   0.266   3.866 -2.6489 -0.5324  0.5260
  252MOL    C2335665   2.749   0.292   4.286  0.0461 -0.4649  0.2534
  252MOL    C2435666   2.760   0.162   4.364 -0.4870  0.0855 -0.3887
  252MOL    O2535667   2.776   0.395   4.376  0.8183 -0.7662 -0.4439
  252MOL    H2635668   2.652   0.322   4.247 -0.7572  1.4567  3.5813
  252MOL    H2735669   2.666   0.150   4.419  1.5146 -1.4982  2.8289
  252MOL    H2835670   2.837   0.172   4.440 -1.4908  1.4757  0.4691
  252MOL    H2935671   2.788   0.077   4.303 -0.2495 -1.6061  2.0013
  252MOL    C3035672   2.793   0.524   4.314 -0.5823 -0.9041  0.3344
  252MOL    C3135673   2.657   0.598   4.339 -0.1175  0.0180  0.1771
  252MOL    O3235674   2.893   0.599   4.381 -0.3601  0.5617 -0.8867
  252MOL    H3335675   2.828   0.528   4.210  0.7846  1.7096  0.8594
  252MOL    H3435676   2.585   0.561   4.266 -1.6525  1.0815  1.1186
  252MOL    H3535677   2.671   0.706   4.331 -0.5678  0.1329  0.8545
  252MOL    H3635678   2.613   0.586   4.438  2.0454  1.1276  1.3114
  252MOL    C3735679   3.023   0.540   4.390 -0.3719  0.2483  0.4446
  252MOL    C3835680   3.107   0.601   4.278  0.0016 -0.4777  0.2381
  252MOL    O3935681   3.083   0.571   4.516  0.5540  0.3219 -0.4230
  252MOL    H4035682   3.017   0.432   4.380  1.9618  0.0757  0.5890
  252MOL    H4135683   3.206   0.558   4.288  1.2411  1.8703 -1.4379
  252MOL    H4235684   3.116   0.710   4.288  1.2714 -0.4582 -1.0900
  252MOL    H4335685   3.051   0.576   4.189  0.0350  2.0262 -0.5257
  252MOL    C4435686   3.017   0.513   4.618 -0.1550  0.2697 -0.3208
  252MOL    C4535687   3.082   0.387   4.658  0.3182 -0.1679  0.3759
  252MOL    O4635688   3.009   0.589   4.735  0.3883  0.4055  0.4546
  252MOL    H4735689   2.912   0.501   4.589 -0.3217 -0.4846  0.5735
  252MOL    H4835690   3.007   0.331   4.714  0.0562 -1.9589 -1.7137
  252MOL    H4935691   3.173   0.410   4.713 -0.0011 -0.1064  0.8877
  252MOL    H5035692   3.113   0.333   4.569  0.9616 -0.4166  0.7477
  252MOL    C5135693   2.902   0.683   4.738  0.7210 -0.2448  0.4511
  252MOL    C5235694   2.821   0.653   4.871 -0.0937  0.7262  0.5164
  252MOL    O5335695   2.946   0.814   4.745 -0.0690 -0.6852 -0.1490
  252MOL    H5435696   2.834   0.688   4.653 -0.7210  0.6235  1.6431
  252MOL    H5535697   2.882   0.654   4.961  0.4552  1.0958  0.1406
  252MOL    H5635698   2.776   0.553   4.879 -2.1867  1.3638 -2.1552
  252MOL    H5735699   2.741   0.722   4.898 -0.4544  0.8330 -0.7794
  252MOL    C5835700   3.021   0.863   4.638  0.2820  0.3385 -0.4685
  252MOL    C5935701   2.951   0.984   4.590 -0.4464 -0.2463  0.2927
  252MOL    O6035702   3.160   0.900   4.672 -0.4214 -0.1123  0.1059
  252MOL    H6135703   3.017   0.792   4.555  0.6675  1.2580 -1.2792
  252MOL    H6235704   2.965   1.066   4.660 -0.7530 -1.3815  1.6995
  252MOL    H6335705   2.845   0.958   4.603 -0.0566 -2.7012 -1.0925
  252MOL    H6435706   2.957   0.992   4.481 -3.2189 -0.1932  0.1025
  252MOL    C6535707   3.254   0.795   4.677 -0.2270  0.7068  0.4635
  252MOL    C6635708   3.358   0.797   4.560 -1.0056 -0.9333 -0.5039
  252MOL    O6735709   3.331   0.806   4.798 -0.1283 -0.2965  0.1809
  252MOL    H6835710   3.207   0.697   4.672  0.4238  0.4726 -1.3384
  252MOL    H6935711   3.427   0.714   4.568 -1.7494 -1.3614  1.9583
  252MOL    H7035712   3.417   0.888   4.568 -1.7441 -0.4603 -0.3158
  252MOL    H7135713   3.307   0.788   4.464  1.7274 -0.4049 -2.0546
  252MOL    C7235714   3.256   0.752   4.909 -0.7194 -0.4735  0.7915
  252MOL    C7335715   3.332   0.627   4.961  0.2106 -0.4309 -0.0152
  252MOL    O7435716   3.250   0.838   5.022 -0.1707 -0.5161 -0.0615
  252MOL    H7535717   3.155   0.727   4.876 -0.3333  2.0745 -2.6119
  252MOL    H7635718   3.288   0.589   5.053  2.3560  0.0279  1.2428
  252MOL    H7735719   3.436   0.660   4.966  0.2283 -0.4581 -0.1949
  252MOL    H7835720   3.317   0.557   4.879 -3.1325 -2.3439  2.1154
  252MOL    C7935721   3.133   0.914   5.028  0.4672  0.3452  0.5620
  252MOL    C8035722   3.051   0.838   5.137  0.2995 -0.3324  0.1818
  252MOL    O8135723   3.157   1.038   5.081  0.1709  0.5263 -0.0605
  252MOL    H8235724   3.076   0.921   4.936 -2.1075 -1.9668  1.8862
  252MOL    H8335725   2.955   0.885   5.158  0.6008  0.2874  0.1803
  252MOL    H8435726   3.106   0.841   5.232  1.0234  1.1040 -0.2550
  252MOL    H8535727   3.043   0.732   5.114 -0.3253  0.2931 -2.6548
  252MOL    C8635728   3.202   1.120   4.984  0.3466  0.5106  0.2785
  252MOL    C8735729   3.086   1.221   4.959 -0.2090 -0.2813  0.2199
  252MOL    O8835730   3.306   1.199   5.022 -0.5067  0.0380  0.4088
  252MOL    H8935731   3.221   1.074   4.887 -2.1836 -0.0056 -0.0109
  252MOL    H9035732   2.999   1.177   4.911 -0.3320 -0.1449  0.3181
  252MOL    H9135733   3.121   1.300   4.892 -1.3584  0.8900  0.9651
  252MOL    H9235734   3.057   1.270   5.052 -1.4998 -1.9570  0.7249
  252MOL    C9335735   3.437   1.147   5.007 -0.2775 -0.2850 -0.4930
  252MOL    C9435736   3.510   1.230   4.897 -0.2509  0.0914  0.8621
  252MOL    O9535737   3.511   1.155   5.132  0.2767 -0.4595  0.0581
  252MOL    H9635738   3.421   1.042   4.981  1.7503 -1.2390  1.9056
  252MOL    H9735739   3.438   1.234   4.815  0.6433  0.7333  0.1074
  252MOL    H9835740   3.602   1.185   4.861 -0.3383 -0.2534  1.0628
  252MOL    H9935741   3.531   1.331   4.932 -0.7883  0.8893 -1.0763
  252MOL   C10035742   3.479   1.065   5.233 -0.1399 -0.0832 -0.2312
  252MOL   C10135743   3.594   0.956   5.255  0.5311  0.7702  0.5764
  252MOL   O10235744   3.463   1.121   5.354 -0.2068  0.0479 -0.3104
  252MOL   H10335745   3.387   1.018   5.196 -0.1427  0.5682 -1.0460
  252MOL   H10435746   3.689   1.005   5.275  0.2713  0.3721  2.9624
  252MOL   H10535747   3.615   0.912   5.158 -1.8558  1.0794 -0.1157
  252MOL   H10635748   3.579   0.884   5.335 -0.6337  1.4904  1.0254
  252MOL   C10735749   3.348   1.183   5.381  0.0062 -0.3349 -0.4295
  252MOL   C10835750   3.257   1.099   5.473 -0.0908  0.7733  0.1071
  252MOL   O10935751   3.367   1.296   5.459 -0.2434  0.5676 -0.3687
  252MOL   H11035752   3.291   1.196   5.288 -2.5298 -1.2609  0.9520
  252MOL   H11135753   3.236   1.008   5.418 -1.5675  0.8562  0.5305
  252MOL   H11235754   3.154   1.127   5.492 -0.6615 -1.3126  0.1992
  252MOL   H11335755   3.306   1.076   5.568  0.7123  2.0960  0.0271
  252MOL   C11435756   3.388   1.415   5.381  0.2997 -0.2265 -0.0648
  252MOL   C11535757   3.282   1.517   5.431 -0.3162 -0.5810 -0.6240
  252MOL   O11635758   3.512   1.479   5.411 -0.3226  0.9327 -0.1467
  252MOL   H11735759   3.372   1.402   5.274 -0.2822 -0.6567  0.0724
  252MOL   H11835760   3.285   1.595   5.355 -0.7422  0.3554  0.3083
  252MOL   H11935761   3.316   1.556   5.527 -0.3811 -0.6733 -0.5637
  252MOL   H12035762   3.184   1.472   5.443 -0.1714 -1.4119 -2.3439
  252MOL   C12135763   3.622   1.431   5.340 -0.2342  0.0022  0.5769
  252MOL   C12235764   3.654   1.544   5.233 -0.0315  0.2244  0.2043
  252MOL   O12335765   3.721   1.413   5.431 -0.4177 -0.0351 -0.0714
  252MOL   H12435766   3.607   1.338   5.286 -2.0131  0.2991  0.5213
  252MOL   H12535767   3.558   1.556   5.183 -0.5286 -1.0488  0.8316
  252MOL   H12635768   3.728   1.520   5.155 -1.0837  0.2827 -0.8254
  252MOL   H12735769   3.695   1.630   5.285 -1.7976  1.4663 -0.4349
  252MOL   C12835770   3.700   1.290   5.502 -0.0739 -0.0474 -0.3231
  252MOL   C12935771   3.819   1.203   5.480  0.6530 -0.1012  0.8243
  252MOL   O13035772   3.697   1.323   5.635  0.5190 -0.2916 -0.4775
  252MOL   H13135773   3.617   1.228   5.469  0.9439 -1.5749 -0.0767
  252MOL   H13235774   3.902   1.267   5.512 -0.9935  1.9574  1.1493
  252MOL   H13335775   3.831   1.168   5.377 -0.1384  1.4843  0.1698
  252MOL   H13435776   3.826   1.120   5.550  1.5349  0.3811  1.3341
  252MOL   C13535777   3.593   1.272   5.701 -0.6848  0.5402 -0.4208
  252MOL   C13635778   3.636   1.272   5.851  0.3517  0.3169 -0.0391
  252MOL   O13735779   3.472   1.340   5.689 -0.0050  0.1411 -0.8211
  252MOL   H13835780   3.575   1.168   5.674  0.1478 -0.1725  1.7197
  252MOL   H13935781   3.560   1.239   5.922  0.8802 -0.1007  0.3337
  252MOL   H14035782   3.670   1.370   5.885  1.8795  0.4432 -1.8411
  252MOL   H14135783   3.724   1.208   5.847  1.0769  1.3558 -0.9539
  252MOL   H14235784   3.429   1.322   5.607 -3.0296 -2.2272  1.1461
  253MOL     C135785   6.086   6.618   2.604  0.8649  0.6444  0.7511
  253MOL     C235786   5.935   6.605   2.624  0.0017 -0.2418  0.0106
  253MOL     O335787   6.135   6.485   2.588 -0.4991  0.0262  0.5802
  253MOL     H435788   6.127   6.673   2.689 -0.7118 -0.7298  2.4425
  253MOL     H535789   5.887   6.533   2.558 -0.0441 -0.0684 -0.1439
  253MOL     H635790   5.887   6.703   2.619 -1.3307 -0.9200 -0.9357
  253MOL     H735791   5.917   6.570   2.726  1.5453  2.5781  1.3180
  253MOL     H835792   6.104   6.678   2.515 -0.3437 -2.2102 -1.4886
  253MOL     C935793   6.256   6.464   2.528 -0.3372  0.5157  0.1117
  253MOL    C1035794   6.364   6.443   2.629  0.0116  0.0595  0.8122
  253MOL    O1135795   6.251   6.345   2.453  0.0930 -0.0034  0.1737
  253MOL    H1235796   6.282   6.537   2.451  1.2806 -0.2621 -0.1056
  253MOL    H1335797   6.365   6.527   2.698  1.3767  2.3586 -1.9020
  253MOL    H1435798   6.464   6.440   2.585 -0.9748 -1.4282 -1.3981
  253MOL    H1535799   6.350   6.343   2.671 -0.1385 -0.6717 -0.9257
  253MOL    C1635800   6.141   6.339   2.359 -0.2427  0.1597 -0.4389
  253MOL    C1735801   6.211   6.377   2.227 -0.0065  0.2388  0.4625
  253MOL    O1835802   6.087   6.210   2.346 -0.1571 -0.7470  0.2349
  253MOL    H1935803   6.061   6.411   2.378  0.4081  0.4178  1.4300
  253MOL    H2035804   6.142   6.367   2.144  0.6082 -1.0438  0.0992
  253MOL    H2135805   6.292   6.306   2.213  0.7553  1.0927  0.4484
  253MOL    H2235806   6.247   6.478   2.250  1.1877  0.1733 -1.0514
  253MOL    C2335807   6.022   6.171   2.459 -0.2317 -0.1786 -0.2732
  253MOL    C2435808   5.867   6.183   2.440 -0.3950 -0.1980  0.4377
  253MOL    O2535809   6.042   6.039   2.495 -0.0011 -0.2671 -0.3628
  253MOL    H2635810   6.060   6.221   2.548  1.4561  1.0562 -1.6322
  253MOL    H2735811   5.816   6.130   2.520 -0.5806 -0.3035  0.2514
  253MOL    H2835812   5.844   6.120   2.354 -1.2467  1.3981 -0.5331
  253MOL    H2935813   5.838   6.288   2.440 -0.7845 -0.2822 -1.8190
  253MOL    C3035814   6.163   6.012   2.541 -0.4142  0.6633  1.1230
  253MOL    C3135815   6.165   6.007   2.690  0.2242 -0.4315  0.2860
  253MOL    O3235816   6.211   5.887   2.498  0.2819  0.1800  1.1712
  253MOL    H3335817   6.238   6.086   2.511 -2.0909  1.4056 -1.2941
  253MOL    H3435818   6.106   6.086   2.738  0.5466 -0.3667  0.5801
  253MOL    H3535819   6.265   6.002   2.734  0.0902  1.1850  0.8303
  253MOL    H3635820   6.120   5.912   2.717 -0.5016 -0.5305 -1.2416
  253MOL    C3735821   6.212   5.875   2.356 -0.5571 -0.0261  0.6490
  253MOL    C3835822   6.340   5.944   2.288 -0.1010  0.0841  0.2697
  253MOL    O3935823   6.213   5.742   2.322  0.8148 -0.2710 -0.0956
  253MOL    H4035824   6.124   5.915   2.305 -2.2688 -3.5266  0.6554
  253MOL    H4135825   6.419   5.921   2.359 -1.3935 -1.0639  1.3565
  253MOL    H4235826   6.341   6.053   2.286 -1.1380  0.0914  0.0974
  253MOL    H4335827   6.354   5.896   2.191  3.9975 -1.2892  1.4337
  253MOL    C4435828   6.083   5.678   2.338 -0.4418 -0.4428  0.6818
  253MOL    C4535829   6.044   5.639   2.203  0.9169 -0.2797 -0.2016
  253MOL    O4635830   6.089   5.559   2.412 -0.7849  0.5003  0.2593
  253MOL    H4735831   6.004   5.741   2.381 -0.5277  0.8890 -1.3246
  253MOL    H4835832   6.123   5.590   2.147 -0.9057 -2.0284 -1.3077
  253MOL    H4935833   6.023   5.722   2.135 -1.1034 -0.4092  0.2405
  253MOL    H5035834   5.963   5.568   2.213 -1.4407  2.5740  2.1362
  253MOL    C5135835   6.130   5.578   2.545  0.2354 -0.7485  0.0599
  253MOL    C5235836   6.009   5.610   2.639 -0.9919 -0.2291 -0.3157
  253MOL    O5335837   6.190   5.463   2.598 -0.4512  0.0078  0.4969
  253MOL    H5435838   6.212   5.649   2.537 -0.8189  0.3370 -1.4521
  253MOL    H5535839   5.976   5.712   2.619 -2.0144 -0.3056  0.9613
  253MOL    H5635840   6.056   5.612   2.737  0.4430  1.3638 -1.0054
  253MOL    H5735841   5.924   5.541   2.636 -2.0476  0.8694  2.8801
  253MOL    C5835842   6.314   5.439   2.545 -0.3987 -0.4137  0.5074
  253MOL    C5935843   6.422   5.475   2.659  0.3818 -0.2389  0.7375
  253MOL    O6035844   6.320   5.296   2.522 -0.1805 -0.2781  0.3246
  253MOL    H6135845   6.343   5.493   2.455  1.7594  1.4221  2.2487
  253MOL    H6235846   6.423   5.583   2.668 -1.5313 -0.1030 -0.5173
  253MOL    H6335847   6.512   5.425   2.622  0.7865  1.7746 -1.1008
  253MOL    H6435848   6.400   5.428   2.755  1.1747  0.0370  1.0610
  253MOL    C6535849   6.271   5.267   2.398 -0.1453 -0.4822  0.7448
  253MOL    C6635850   6.396   5.251   2.317  0.3514  0.2473 -0.0214
  253MOL    O6735851   6.197   5.143   2.403  0.0113 -0.6612  0.3602
  253MOL    H6835852   6.207   5.348   2.365  1.0837  0.1960  0.0103
  253MOL    H6935853   6.462   5.338   2.323  0.4053  0.1168  1.4847
  253MOL    H7035854   6.375   5.248   2.210  0.1740 -2.6361  0.0655
  253MOL    H7135855   6.448   5.163   2.355 -1.7246 -0.7747  0.4978
  253MOL    C7235856   6.082   5.163   2.479 -0.1207  0.1026 -0.3746
  253MOL    C7335857   5.963   5.168   2.391  0.0313 -0.5785  0.1053
  253MOL    O7435858   6.065   5.053   2.559  0.5613 -0.6190 -0.3375
  253MOL    H7535859   6.086   5.244   2.552  0.0462 -0.3364  0.1091
  253MOL    H7635860   5.875   5.187   2.453 -0.3516 -1.5487 -0.1333
  253MOL    H7735861   5.950   5.080   2.328 -0.0045 -0.1196 -0.5377
  253MOL    H7835862   5.985   5.244   2.315 -1.1972  0.9729  1.2503
  253MOL    C7935863   6.166   5.024   2.651  0.5862  0.4052  0.4443
  253MOL    C8035864   6.114   5.058   2.788 -0.0333 -0.1237 -0.2572
  253MOL    O8135865   6.172   4.883   2.651  0.0103 -0.5181  0.4627
  253MOL    H8235866   6.265   5.066   2.636  1.6632 -1.7434  1.3011
  253MOL    H8335867   6.018   5.009   2.804  0.4596 -0.1125  2.9285
  253MOL    H8435868   6.099   5.166   2.798 -0.5976  0.0517 -2.6403
  253MOL    H8535869   6.187   5.020   2.860 -1.6768 -1.8329  0.5431
  253MOL    C8635870   6.232   4.825   2.540 -0.0984 -0.8350 -0.5970
  253MOL    C8735871   6.365   4.761   2.587  0.1047  0.4146 -0.3103
  253MOL    O8835872   6.156   4.719   2.488 -0.0279 -0.1846  0.2488
  253MOL    H8935873   6.266   4.899   2.467  0.4050 -0.1199  0.3441
  253MOL    H9035874   6.352   4.669   2.645 -0.1425  0.1109 -0.8473
  253MOL    H9135875   6.418   4.845   2.632 -0.1953  0.7481 -0.5803
  253MOL    H9235876   6.427   4.733   2.502 -2.2785 -1.9428 -1.3298
  253MOL    C9335877   6.046   4.762   2.412 -0.4042  0.0541  0.2216
  253MOL    C9435878   6.082   4.714   2.267  0.2731  0.2473  0.5916
  253MOL    O9535879   5.925   4.698   2.447  0.0505 -0.2084  0.2340
  253MOL    H9635880   6.018   4.867   2.415 -1.5793 -0.1660 -1.9871
  253MOL    H9735881   6.109   4.608   2.266 -1.5020 -0.2100  0.4742
  253MOL    H9835882   6.173   4.767   2.239  0.9725 -1.7168 -0.9747
  253MOL    H9935883   6.007   4.728   2.189  1.2575 -1.2496 -0.6447
  253MOL   C10035884   5.870   4.751   2.563 -0.0831  0.1538 -0.9620
  253MOL   C10135885   5.769   4.852   2.511 -0.1853 -0.0538 -0.3316
  253MOL   O10235886   5.811   4.654   2.641  0.1263 -0.1828  0.2151
  253MOL   H10335887   5.942   4.802   2.627 -0.8390 -1.4476  1.1983
  253MOL   H10435888   5.806   4.918   2.432 -1.8118 -0.5085 -1.4911
  253MOL   H10535889   5.729   4.913   2.592  2.8573 -0.5834  1.6902
  253MOL   H10635890   5.684   4.806   2.462 -0.3076  0.9870 -1.1011
  253MOL   C10735891   5.898   4.568   2.705  0.0139  0.5495 -0.5342
  253MOL   C10835892   5.936   4.626   2.847  0.3087 -0.3682 -0.0323
  253MOL   O10935893   5.839   4.443   2.728 -0.0937  0.1108  0.4729
  253MOL   H11035894   5.987   4.562   2.643 -0.4997  1.4147 -1.3579
  253MOL   H11135895   5.843   4.638   2.903 -1.3569 -0.4973 -2.6517
  253MOL   H11235896   5.994   4.717   2.845 -1.7866  1.0021 -0.7070
  253MOL   H11335897   6.001   4.555   2.899  1.3134  0.2862 -0.3973
  253MOL   C11435898   5.824   4.363   2.614  0.2079 -0.2222 -0.0135
  253MOL   C11535899   5.959   4.309   2.557 -0.2743 -0.3543  0.4529
  253MOL   O11635900   5.746   4.255   2.641  0.3582 -0.0059 -0.0810
  253MOL   H11735901   5.773   4.423   2.539 -1.4921 -2.0005 -0.3265
  253MOL   H11835902   6.007   4.244   2.630  0.4367 -0.1261  0.1901
  253MOL   H11935903   6.031   4.385   2.527  0.3035 -0.7906  0.7197
  253MOL   H12035904   5.938   4.252   2.467 -1.7099  1.7280 -0.5848
  253MOL   C12135905   5.616   4.282   2.670  0.2773  0.0087  0.1255
  253MOL   C12235906   5.537   4.235   2.545  0.9154 -0.0343  0.4136
  253MOL   O12335907   5.566   4.213   2.780  0.5128  0.3002 -0.1412
  253MOL   H12435908   5.605   4.390   2.682 -1.7186 -0.2599  0.9000
  253MOL   H12535909   5.579   4.260   2.448 -0.7604 -1.6892 -0.7805
  253MOL   H12635910   5.430   4.251   2.559  0.9398 -0.6315  1.3116
  253MOL   H12735911   5.538   4.126   2.541  0.1945 -0.0513  0.5928
  253MOL   C12835912   5.588   4.278   2.904 -0.1735  0.2147 -0.4211
  253MOL   C12935913   5.450   4.304   2.961  0.6336  0.1389  0.1136
  253MOL   O13035914   5.653   4.194   2.996  0.2487 -0.2988  0.5813
  253MOL   H13135915   5.635   4.376   2.900  0.0874  0.0107 -3.2567
  253MOL   H13235916   5.397   4.373   2.896 -1.2376  0.8866  2.3688
  253MOL   H13335917   5.444   4.348   3.061 -0.0251  2.0168 -0.7404
  253MOL   H13435918   5.402   4.206   2.955  1.6658 -0.3765  0.0901
  253MOL   C13535919   5.790   4.176   2.975 -0.1547  0.2558 -0.0785
  253MOL   C13635920   5.837   4.100   3.097  0.8303  0.0388 -0.0613
  253MOL   O13735921   5.819   4.089   2.870  1.3533  0.1722  0.3340
  253MOL   H13835922   5.843   4.268   2.952 -1.0989  0.8134 -0.0520
  253MOL   H13935923   5.784   4.009   3.126  0.0305  1.1768  2.2161
  253MOL   H14035924   5.829   4.162   3.187  2.4356  0.2203 -0.0314
  253MOL   H14135925   5.940   4.072   3.077  0.3621 -0.5765 -1.6870
  253MOL   H14235926   5.798   4.134   2.790  0.9714 -0.5865  0.0055
  254MOL     C135927   1.296   4.469   7.795  0.2332  0.2702 -0.1954
  254MOL     C235928   1.244   4.340   7.863 -0.0129 -0.3150 -0.2100
  254MOL     O335929   1.221   4.491   7.675 -0.0457  0.9320  0.0987
  254MOL     H435930   1.402   4.484   7.777 -0.2808  2.3331 -1.6322
  254MOL     H535931   1.202   4.276   7.785  0.4528 -0.0486 -0.6808
  254MOL     H635932   1.157   4.371   0.007  0.3667  0.8862 -0.2735
  254MOL     H735933   1.319   4.293   0.012  1.4157 -0.4352 -1.9428
  254MOL     H835934   1.272   4.551   7.863 -0.0798  1.1670 -1.3765
  254MOL     C935935   1.247   4.611   7.614  0.9486 -0.1673 -0.2942
  254MOL    C1035936   1.165   4.599   7.483  0.1528  0.0852 -0.1411
  254MOL    O1135937   1.207   4.718   7.698 -0.0199 -0.2993 -0.4192
  254MOL    H1235938   1.351   4.631   7.591  0.9689  0.7312  0.5472
  254MOL    H1335939   1.218   4.524   7.424 -0.1216  0.3782 -0.7717
  254MOL    H1435940   1.155   4.687   7.419 -1.6535  0.4611  0.6200
  254MOL    H1535941   1.066   4.562   7.508 -0.0640  0.1320 -0.9254
  254MOL    C1635942   1.250   4.845   7.653 -0.2117  0.5328 -0.3619
  254MOL    C1735943   1.190   4.945   7.751  0.2421 -0.0510  0.4463
  254MOL    O1835944   1.391   4.853   7.666 -0.4986  0.2028 -0.1381
  254MOL    H1935945   1.218   4.866   7.551  0.8291  0.9092 -0.6199
  254MOL    H2035946   1.084   4.958   7.726  0.4825  0.8208 -0.1524
  254MOL    H2135947   1.239   5.038   7.720  0.0634 -0.3317 -0.7050
  254MOL    H2235948   1.214   4.931   7.856 -0.1208 -0.2844  0.4970
  254MOL    C2335949   1.456   4.938   7.577  0.7696  0.2436 -0.0858
  254MOL    C2435950   1.601   4.921   7.583  0.5210  0.1833 -0.4920
  254MOL    O2535951   1.427   4.903   7.447  0.1168 -0.3026  0.0638
  254MOL    H2635952   1.421   5.033   7.616 -0.2421 -1.5681  3.7362
  254MOL    H2735953   1.636   4.822   7.556 -1.1206  0.0675 -2.2335
  254MOL    H2835954   1.645   4.958   7.677  2.6702  0.3821 -1.5388
  254MOL    H2935955   1.648   4.986   7.509 -0.6523 -1.7584 -2.9866
  254MOL    C3035956   1.407   5.026   7.373  0.1032  0.1186 -0.0981
  254MOL    C3135957   1.390   4.974   7.232  0.1553 -0.3184  0.9673
  254MOL    O3235958   1.291   5.100   7.406 -0.3497 -0.2667 -0.7272
  254MOL    H3335959   1.499   5.084   7.382 -0.6086  1.0608  1.4657
  254MOL    H3435960   1.384   5.053   7.158  0.9868 -1.0472  0.1022
  254MOL    H3535961   1.312   4.898   7.227 -0.6679  0.6175 -0.9209
  254MOL    H3635962   1.484   4.922   7.211 -0.4877 -0.8967 -0.5533
  254MOL    C3735963   1.300   5.237   7.404  0.4368  0.2610  0.0516
  254MOL    C3835964   1.155   5.269   7.396  0.9066  0.2822  0.5821
  254MOL    O3935965   1.348   5.296   7.521  0.3638 -0.0598 -0.0351
  254MOL    H4035966   1.349   5.276   7.314 -1.7196  3.5457  0.2255
  254MOL    H4135967   1.093   5.219   7.470 -0.3463 -0.3259 -0.8587
  254MOL    H4235968   1.112   5.235   7.302  2.0176  0.5094 -0.0088
  254MOL    H4335969   1.136   5.375   7.410  1.3452  0.5085 -0.4886
  254MOL    C4435970   1.471   5.351   7.498 -0.8488  0.6240 -0.1192
  254MOL    C4535971   1.492   5.435   7.621  0.0761  0.5054 -0.0060
  254MOL    O4635972   1.580   5.258   7.483 -0.1221 -0.4901  0.2886
  254MOL    H4735973   1.467   5.417   7.411 -2.2643 -1.0757 -1.3770
  254MOL    H4835974   1.411   5.507   7.630  0.2976  0.9830 -1.6214
  254MOL    H4935975   1.581   5.498   7.610  1.0181 -0.3272  2.4971
  254MOL    H5035976   1.502   5.366   7.704 -3.7944 -0.6655 -0.4293
  254MOL    C5135977   1.684   5.309   7.406 -0.2387  0.4015 -0.5995
  254MOL    C5235978   1.805   5.226   7.431 -0.3291  0.7600  0.3842
  254MOL    O5335979   1.641   5.296   7.270 -0.7020  0.1292 -0.3464
  254MOL    H5435980   1.699   5.414   7.432  0.8566  0.1645 -0.2656
  254MOL    H5535981   1.820   5.203   7.537 -2.3675 -2.6799  0.0127
  254MOL    H5635982   1.892   5.272   7.383  0.6981 -1.7868 -0.2705
  254MOL    H5735983   1.795   5.127   7.388  0.3732  1.0589 -0.4761
  254MOL    C5835984   1.690   5.390   7.181  0.1682 -0.5394 -0.3644
  254MOL    C5935985   1.622   5.348   7.050  0.4183  0.4522  0.1062
  254MOL    O6035986   1.638   5.515   7.201  0.0050 -0.2643  0.2982
  254MOL    H6135987   1.799   5.379   7.180  0.2349  0.0487  0.2490
  254MOL    H6235988   1.514   5.334   7.055  0.6481 -1.3824  0.5920
  254MOL    H6335989   1.658   5.251   7.015  1.1356  0.9299 -0.5123
  254MOL    H6435990   1.642   5.423   6.973  1.0001  0.6533  0.4461
  254MOL    C6535991   1.716   5.617   7.151 -0.0449  0.3171 -0.2482
  254MOL    C6635992   1.644   5.747   7.174 -0.0289  0.7913 -0.4007
  254MOL    O6735993   1.828   5.629   7.235 -0.2629  0.1914 -0.0031
  254MOL    H6835994   1.748   5.596   7.049  0.8773 -0.8036  0.2565
  254MOL    H6935995   1.653   5.778   7.278  1.7860 -0.9379 -0.0064
  254MOL    H7035996   1.543   5.751   7.134  0.3918 -0.2185 -1.6213
  254MOL    H7135997   1.704   5.821   7.120  1.3707 -2.4898 -3.5817
  254MOL    C7235998   1.948   5.673   7.183 -0.4672 -0.4618  0.4809
  254MOL    C7335999   2.045   5.686   7.300  0.6684  0.2933 -0.5243
  254MOL    O7436000   2.003   5.590   7.093 -0.8823 -0.3295  0.1676
  254MOL    H7536001   1.924   5.771   7.143  0.5689  0.1609  1.3609
  254MOL    H7636002   2.034   5.593   7.356 -1.2935  0.2629 -0.9126
  254MOL    H7736003   2.012   5.777   7.350  0.2739 -0.0186 -0.2142
  254MOL    H7836004   2.150   5.702   7.274  0.9227 -1.5341 -0.6940
  254MOL    C7936005   2.043   5.657   6.979  0.4435  0.3586  0.3409
  254MOL    C8036006   2.124   5.557   6.898 -0.4402  0.6615 -0.8977
  254MOL    O8136007   1.935   5.696   6.897  0.5057  0.5544 -1.0161
  254MOL    H8236008   2.106   5.743   7.001  0.0307  0.3469  1.6706
  254MOL    H8336009   2.220   5.547   6.950 -0.4837 -1.4356 -1.1923
  254MOL    H8436010   2.125   5.585   6.793 -0.7340 -0.8818 -1.3200
  254MOL    H8536011   2.068   5.464   6.903  0.6141  0.0075 -1.1428
  254MOL    C8636012   1.935   5.833   6.860 -0.2364  0.7552  0.4004
  254MOL    C8736013   1.824   5.846   6.753 -0.3360 -0.2132 -0.1314
  254MOL    O8836014   1.903   5.908   6.972 -0.0623  0.0596  0.3141
  254MOL    H8936015   2.030   5.862   6.813  0.1242 -1.2062 -0.1243
  254MOL    H9036016   1.858   5.786   6.668  1.6451 -0.5967  0.9038
  254MOL    H9136017   1.821   5.948   6.714 -1.0703 -0.5888 -1.0851
  254MOL    H9236018   1.728   5.829   6.801 -0.0295  0.9878  0.9330
  254MOL    C9336019   1.974   6.020   6.985 -0.3742 -0.1515  0.0984
  254MOL    C9436020   1.896   6.089   7.101  0.4420  0.1237  0.4950
  254MOL    O9536021   2.104   6.005   7.039  1.0826  0.1400 -0.5877
  254MOL    H9636022   1.965   6.090   6.902 -0.5321  0.1839  0.3941
  254MOL    H9736023   1.789   6.092   7.078  0.4021 -1.8214  0.3479
  254MOL    H9836024   1.933   6.189   7.123  1.0495  0.4154 -1.6827
  254MOL    H9936025   1.906   6.052   7.203  0.5692  0.8472  0.7506
  254MOL   C10036026   2.205   6.044   6.957 -0.0710 -0.1498  0.0961
  254MOL   C10136027   2.322   6.079   7.048  0.1102  0.6960 -1.3112
  254MOL   O10236028   2.245   5.936   6.887 -0.0899 -0.3774  0.8716
  254MOL   H10336029   2.178   6.127   6.892  1.4605 -0.7259 -1.3182
  254MOL   H10436030   2.361   5.991   7.099  1.9987  1.9777 -0.4499
  254MOL   H10536031   2.269   6.151   7.111 -1.9595 -1.8346 -0.0506
  254MOL   H10636032   2.397   6.118   6.979  2.6469  0.5779  1.2423
  254MOL   C10736033   2.276   5.964   6.761 -0.2633 -0.1310  0.0245
  254MOL   C10836034   2.333   5.828   6.709  0.2937  0.1149  0.7404
  254MOL   O10936035   2.177   6.000   6.669  0.3680 -0.6013  0.2546
  254MOL   H11036036   2.355   6.039   6.770 -1.9696  2.0118 -2.2017
  254MOL   H11136037   2.379   5.840   6.611  0.2901  0.7450  0.8099
  254MOL   H11236038   2.251   5.757   6.701  1.4456 -1.2025  0.4407
  254MOL   H11336039   2.408   5.807   6.786  0.5038  4.1222  1.7916
  254MOL   C11436040   2.229   6.051   6.551 -0.2011  0.2164  0.0300
  254MOL   C11536041   2.112   6.095   6.471 -0.3369  0.1668 -0.0073
  254MOL   O11636042   2.307   6.166   6.577  0.2694  0.7174 -0.4867
  254MOL   H11736043   2.271   5.981   6.479  0.9780 -0.6588  1.5506
  254MOL   H11836044   2.065   6.000   6.449  0.4851  0.0668 -1.3565
  254MOL   H11936045   2.138   6.158   6.386  0.1787  0.8204  0.6162
  254MOL   H12036046   2.044   6.154   6.533 -0.3399 -1.1158  1.2444
  254MOL   C12136047   2.389   6.188   6.472 -0.1175  0.2176 -0.5239
  254MOL   C12236048   2.395   6.338   6.465  0.2922 -0.4402 -0.1818
  254MOL   O12336049   2.517   6.136   6.500  0.0034  0.0655  0.7687
  254MOL   H12436050   2.354   6.156   6.374 -1.3931  0.9381 -0.3059
  254MOL   H12536051   2.421   6.384   6.560  1.6179  0.2693 -0.8817
  254MOL   H12636052   2.294   6.369   6.437  0.6765  0.2583 -0.8279
  254MOL   H12736053   2.461   6.363   6.381 -1.7039 -0.8483 -1.9316
  254MOL   C12836054   2.559   6.053   6.397 -0.1209  0.2267  0.7463
  254MOL   C12936055   2.710   6.030   6.427 -0.4586  0.1745 -0.2240
  254MOL   O13036056   2.487   5.931   6.408 -0.3839  0.4350 -0.3502
  254MOL   H13136057   2.548   6.099   6.299  0.5236  0.5820  0.8413
  254MOL   H13236058   2.759   5.972   6.349 -1.1331  0.2182 -0.6764
  254MOL   H13336059   2.693   5.970   6.517 -1.8131 -0.3880 -0.8475
  254MOL   H13436060   2.762   6.124   6.446 -0.4706  0.3276 -0.9261
  254MOL   C13536061   2.478   5.867   6.282  0.8339 -0.2839 -0.3133
  254MOL   C13636062   2.408   5.735   6.306 -0.1198 -0.2226 -0.6749
  254MOL   O13736063   2.416   5.947   6.183  0.2011 -0.0855  0.3162
  254MOL   H13836064   2.584   5.857   6.257  1.0335  0.7279  0.0831
  254MOL   H13936065   2.307   5.759   6.341  1.0596  2.0560  1.3578
  254MOL   H14036066   2.469   5.685   6.381 -3.3188 -0.2320  2.0308
  254MOL   H14136067   2.410   5.672   6.217  0.3528 -0.4874 -0.4756
  254MOL   H14236068   2.435   5.915   6.096 -1.3546  1.0931 -0.4893
  255MOL     C136069   7.809   3.642   5.218  0.3608 -0.3312  0.1912
  255MOL     C236070   7.795   3.761   5.116 -0.0412 -0.3182 -0.3898
  255MOL     O336071   7.679   3.607   5.260 -0.7540 -0.2220 -0.4017
  255MOL     H436072   7.876   3.671   5.299  1.5559  1.2587 -1.3292
  255MOL     H536073   7.890   3.797   5.076  1.4178 -0.6674  2.5879
  255MOL     H636074   7.744   3.841   5.169  0.3422  1.8548 -3.1737
  255MOL     H736075   7.741   3.726   5.028 -0.6268 -0.3706 -0.0069
  255MOL     H836076   7.848   3.565   5.152 -0.7047  0.9488 -1.9570
  255MOL     C936077   7.668   3.504   5.350  0.4378 -0.0487 -0.3341
  255MOL    C1036078   7.656   3.565   5.493  0.1666 -0.3998  0.6270
  255MOL    O1136079   7.554   3.433   5.316 -0.2131  0.5085  0.4017
  255MOL    H1236080   7.747   3.429   5.349  0.9969  0.4355  2.3635
  255MOL    H1336081   7.569   3.629   5.482  0.6880 -0.4316 -4.8971
  255MOL    H1436082   7.745   3.622   5.520  1.0227 -1.2017 -0.4547
  255MOL    H1536083   7.650   3.490   5.572 -1.1599 -0.1519  0.7798
  255MOL    C1636084   7.569   3.348   5.209  0.3167  0.5455 -0.9620
  255MOL    C1736085   7.581   3.211   5.272  0.2447 -0.2702 -0.4328
  255MOL    O1836086   7.457   3.346   5.126 -0.8650 -0.3569  0.2116
  255MOL    H1936087   7.663   3.372   5.159  1.9360 -0.1305  1.6893
  255MOL    H2036088   7.482   3.178   5.302 -0.2435  0.0882 -1.6193
  255MOL    H2136089   7.647   3.225   5.357  0.2123 -1.5427 -0.1936
  255MOL    H2236090   7.614   3.142   5.194  0.1922  1.8262 -2.3978
  255MOL    C2336091   7.407   3.473   5.076 -0.3356 -0.2319  0.0732
  255MOL    C2436092   7.483   3.510   4.949 -0.0672 -0.4042 -0.0080
  255MOL    O2536093   7.273   3.454   5.052 -0.8114  0.0975  0.9588
  255MOL    H2636094   7.424   3.552   5.150  1.5035 -0.4212 -0.1140
  255MOL    H2736095   7.474   3.430   4.875 -1.4302 -0.1009 -0.1785
  255MOL    H2836096   7.589   3.528   4.963 -0.2460 -0.0173  0.8670
  255MOL    H2936097   7.435   3.598   4.907  2.1854  0.7622 -0.1588
  255MOL    C3036098   7.199   3.455   5.173  0.1579 -0.2411  0.7731
  255MOL    C3136099   7.151   3.599   5.209 -0.3861 -0.3821 -0.7144
  255MOL    O3236100   7.084   3.374   5.154 -0.3305  0.0301 -0.5386
  255MOL    H3336101   7.256   3.420   5.260  1.3104 -0.4306 -0.0436
  255MOL    H3436102   7.071   3.587   5.283 -0.9423  2.9722 -0.7044
  255MOL    H3536103   7.111   3.658   5.127 -1.9382  2.5880  2.0535
  255MOL    H3636104   7.228   3.660   5.255 -0.4665 -0.7674 -0.0635
  255MOL    C3736105   7.120   3.232   5.138  0.5783 -0.0964 -0.1087
  255MOL    C3836106   7.102   3.176   5.279 -0.0241  0.2579  0.1340
  255MOL    O3936107   7.021   3.169   5.063 -0.5150  0.2926  0.1834
  255MOL    H4036108   7.222   3.222   5.101  0.7249  1.3118 -0.1476
  255MOL    H4136109   7.172   3.220   5.350  1.7657  1.4767 -2.3343
  255MOL    H4236110   7.118   3.069   5.270 -0.9227  0.0204  1.1259
  255MOL    H4336111   6.999   3.188   5.314  0.6816  0.5729  2.1853
  255MOL    C4436112   7.028   3.204   4.929 -0.0651 -0.2625 -0.6451
  255MOL    C4536113   7.062   3.069   4.860 -0.3096  0.5951  0.0076
  255MOL    O4636114   6.910   3.242   4.877  0.1363 -0.3050 -0.2458
  255MOL    H4736115   7.107   3.277   4.909  0.3252 -0.3520  0.4903
  255MOL    H4836116   7.152   3.022   4.901  0.3458  2.5981  0.9395
  255MOL    H4936117   7.074   3.088   4.754 -0.7009 -0.6758 -0.2681
  255MOL    H5036118   6.975   3.004   4.868  0.1169 -0.0225 -0.3128
  255MOL    C5136119   6.884   3.370   4.889  0.2900 -0.4205 -0.4989
  255MOL    C5236120   6.902   3.432   4.747 -0.5493  0.2907  0.3397
  255MOL    O5336121   6.750   3.401   4.924 -0.0778 -0.0129  0.7004
  255MOL    H5436122   6.956   3.422   4.953  0.7083 -1.9963  0.3347
  255MOL    H5536123   6.992   3.391   4.701  0.9799 -0.6895  4.0021
  255MOL    H5636124   6.912   3.539   4.766 -2.8437  0.8525 -1.4672
  255MOL    H5736125   6.818   3.413   4.680  0.6221  1.8877 -1.6213
  255MOL    C5836126   6.728   3.383   5.058  0.1896 -0.0120 -0.0918
  255MOL    C5936127   6.695   3.522   5.110  0.2408  0.2658  0.1395
  255MOL    O6036128   6.622   3.294   5.084 -0.5655 -0.8206 -0.2157
  255MOL    H6136129   6.821   3.347   5.103  0.5836  0.2726 -0.6691
  255MOL    H6236130   6.775   3.593   5.089  1.0204 -0.7416 -0.3454
  255MOL    H6336131   6.678   3.515   5.217 -0.8528  1.6985  0.0693
  255MOL    H6436132   6.603   3.551   5.059  1.8073  1.3176 -2.1789
  255MOL    C6536133   6.657   3.167   5.055 -0.1526  1.7185  0.2946
  255MOL    C6636134   6.667   3.089   5.180  0.2985  0.3958  0.1952
  255MOL    O6736135   6.552   3.110   4.985  0.1496 -0.4415 -0.0540
  255MOL    H6836136   6.738   3.145   4.986 -0.0597  0.2372  0.8652
  255MOL    H6936137   6.578   3.097   5.244  0.1400 -2.6599  0.4147
  255MOL    H7036138   6.751   3.125   5.239  1.5030  0.5654 -1.5834
  255MOL    H7136139   6.684   2.985   5.154 -2.2783 -0.4543  1.6815
  255MOL    C7236140   6.522   3.170   4.867 -0.1783 -0.7889 -0.1114
  255MOL    C7336141   6.547   3.073   4.750  0.3564 -0.1826  0.0227
  255MOL    O7436142   6.385   3.202   4.857  0.5847 -0.3965  0.4881
  255MOL    H7536143   6.585   3.258   4.848 -1.9082  0.2047 -1.4261
  255MOL    H7636144   6.522   3.118   4.654  2.0707 -3.0067 -1.7957
  255MOL    H7736145   6.495   2.978   4.763 -0.6867  0.5586  1.4406
  255MOL    H7836146   6.653   3.046   4.749  0.6208  0.8285 -0.1271
  255MOL    C7936147   6.345   3.320   4.917  0.1941 -0.0011 -0.2153
  255MOL    C8036148   6.378   3.442   4.830  0.6111  0.6269 -0.4276
  255MOL    O8136149   6.213   3.323   4.942  0.5523 -0.1057  0.1542
  255MOL    H8236150   6.397   3.329   5.012  2.4713 -1.3318 -1.3093
  255MOL    H8336151   6.337   3.418   4.731 -2.3276 -1.6360  1.2306
  255MOL    H8436152   6.485   3.460   4.830  0.9909 -1.3365  2.1099
  255MOL    H8536153   6.332   3.531   4.873  1.0334 -0.1278  1.6336
  255MOL    C8636154   6.169   3.284   5.075 -0.1773  0.0981  0.5697
  255MOL    C8736155   6.023   3.319   5.080  0.4792 -0.0584  0.2496
  255MOL    O8836156   6.174   3.151   5.110  0.4405 -0.2025  0.7079
  255MOL    H8936157   6.218   3.341   5.154  1.1551  0.0459 -0.1999
  255MOL    H9036158   5.988   3.261   5.166 -1.5693  2.1210  0.9532
  255MOL    H9136159   5.977   3.275   4.992  1.8884 -0.3905 -0.3357
  255MOL    H9236160   5.994   3.425   5.081 -2.3140 -0.7865  0.9496
  255MOL    C9336161   6.279   3.100   5.182 -0.0435  0.0878  0.3951
  255MOL    C9436162   6.288   3.165   5.318  0.5229 -0.1099 -0.0600
  255MOL    O9536163   6.270   2.964   5.193 -0.3474  0.8707 -0.0218
  255MOL    H9636164   6.375   3.114   5.133 -0.5220  1.5601 -0.1377
  255MOL    H9736165   6.323   3.267   5.306 -0.9236  0.7718  2.8118
  255MOL    H9836166   6.366   3.126   5.382  0.4766 -0.5033 -0.2397
  255MOL    H9936167   6.195   3.155   5.375  0.4861  0.6731  0.0128
  255MOL   C10036168   6.289   2.897   5.073  0.1212 -0.4718 -0.1074
  255MOL   C10136169   6.414   2.802   5.098  0.4836  0.1133  0.0922
  255MOL   O10236170   6.178   2.812   5.039  0.2281 -0.4432  0.2710
  255MOL   H10336171   6.308   2.962   4.988  0.1042 -3.5372 -2.5200
  255MOL   H10436172   6.440   2.758   5.002  0.7000 -0.3694  0.3713
  255MOL   H10536173   6.390   2.729   5.175 -1.3819  0.7724  0.1645
  255MOL   H10636174   6.491   2.870   5.136  0.1239  0.4608  0.1989
  255MOL   C10736175   6.069   2.879   4.973 -0.2967  0.2543 -0.0193
  255MOL   C10836176   6.100   2.882   4.826 -0.8214 -0.2171  0.2088
  255MOL   O10936177   5.955   2.795   4.980 -0.0387 -0.3720 -0.0087
  255MOL   H11036178   6.040   2.975   5.014 -0.6198  0.6879 -1.2341
  255MOL   H11136179   6.120   2.778   4.798 -0.1502 -0.1384  0.3760
  255MOL   H11236180   6.184   2.944   4.796  0.3015 -2.1404 -0.7475
  255MOL   H11336181   6.019   2.938   4.780 -0.7937  1.7444  2.4356
  255MOL   C11436182   5.895   2.806   5.105 -0.8410 -0.3354  0.9511
  255MOL   C11536183   5.778   2.891   5.084  0.2819 -0.1070 -0.4235
  255MOL   O11636184   5.849   2.680   5.155 -0.3896  0.5350  0.0774
  255MOL   H11736185   5.964   2.854   5.175  0.4733 -3.2731  1.7369
  255MOL   H11836186   5.730   2.854   4.993  1.2961 -3.0034  0.1578
  255MOL   H11936187   5.809   2.994   5.064 -0.6162  0.3935  0.7192
  255MOL   H12036188   5.715   2.891   5.173  1.2256 -0.0719  0.2479
  255MOL   C12136189   5.956   2.598   5.198  0.1182 -0.4372  0.1708
  255MOL   C12236190   6.018   2.639   5.331  0.6011 -0.9003 -0.0668
  255MOL   O12336191   5.893   2.473   5.230 -0.6669  0.2928 -0.1893
  255MOL   H12436192   6.034   2.594   5.122  2.9476  0.5005  2.8994
  255MOL   H12536193   5.936   2.658   5.400  0.7301 -1.0924  0.1414
  255MOL   H12636194   6.070   2.735   5.327  0.5775 -0.9029 -0.4406
  255MOL   H12736195   6.093   2.566   5.363  0.4070 -1.3118 -0.5537
  255MOL   C12836196   5.858   2.397   5.117 -0.5215  0.6915  0.5871
  255MOL   C12936197   5.935   2.267   5.117  0.1522  0.0771  0.1314
  255MOL   O13036198   5.721   2.367   5.106  0.0729  0.2282  0.2233
  255MOL   H13136199   5.895   2.444   5.025  0.5061  0.2375  0.7649
  255MOL   H13236200   5.897   2.208   5.033 -0.8581 -0.3149  0.8518
  255MOL   H13336201   5.912   2.209   5.206 -0.6127 -1.8661 -1.2700
  255MOL   H13436202   6.042   2.275   5.102 -0.0710  0.1927 -1.5592
  255MOL   C13536203   5.657   2.469   5.044 -0.0479  0.1545  0.2521
  255MOL   C13636204   5.530   2.414   4.987 -1.2110  0.6390  0.2202
  255MOL   O13736205   5.614   2.570   5.133 -0.3434  0.0072  0.1974
  255MOL   H13836206   5.715   2.520   4.967  0.9066 -1.8416 -0.3902
  255MOL   H13936207   5.469   2.496   4.950  0.5781  0.9982 -2.0354
  255MOL   H14036208   5.482   2.383   5.080  0.1044 -1.0253  0.3660
  255MOL   H14136209   5.533   2.330   4.917  1.0212  1.0762 -0.2367
  255MOL   H14236210   5.687   2.623   5.161 -2.9487  2.8056  2.0100
  256MOL     C136211   2.249   2.912   7.476 -0.0016 -0.6297  0.4354
  256MOL     C236212   2.194   3.062   7.495 -0.5030  0.4709 -0.0773
  256MOL     O336213   2.145   2.817   7.460 -0.3456 -0.1070 -0.4151
  256MOL     H436214   2.311   2.887   7.562  0.9057 -0.5351 -0.1809
  256MOL     H536215   2.114   3.066   7.569 -0.6162 -0.6775 -0.1290
  256MOL     H636216   2.153   3.092   7.398  0.4816 -0.7143 -0.8735
  256MOL     H736217   2.271   3.136   7.516 -1.4573  1.4393  0.0431
  256MOL     H836218   2.318   2.916   7.391  0.3076 -0.0885  0.7125
  256MOL     C936219   2.200   2.700   7.409 -0.4700  0.2643  0.7937
  256MOL    C1036220   2.079   2.599   7.415 -0.4583  0.2321 -0.1295
  256MOL    O1136221   2.233   2.722   7.272  0.4235  0.1140  0.4968
  256MOL    H1236222   2.285   2.664   7.467 -0.2671 -1.5691 -0.6143
  256MOL    H1336223   2.122   2.501   7.392  2.3093  1.2918  0.2823
  256MOL    H1436224   2.009   2.623   7.335 -0.6902 -0.9225 -0.2833
  256MOL    H1536225   2.046   2.576   7.517  0.4575 -1.0089 -0.1029
  256MOL    C1636226   2.293   2.611   7.212  0.1702  0.4092 -0.0847
  256MOL    C1736227   2.313   2.638   7.061  0.7260  0.2101 -0.1161
  256MOL    O1836228   2.418   2.586   7.274 -0.4279 -0.4058  0.5623
  256MOL    H1936229   2.228   2.523   7.214  1.1223 -0.2740  1.2702
  256MOL    H2036230   2.374   2.559   7.015 -0.1779 -0.1909 -0.6393
  256MOL    H2136231   2.377   2.726   7.052 -0.6268  1.6340  3.5935
  256MOL    H2236232   2.217   2.662   7.015 -0.0155 -0.6168  0.9699
  256MOL    C2336233   2.454   2.451   7.281  0.0168 -0.3407 -0.0135
  256MOL    C2436234   2.603   2.453   7.345  0.3619 -0.1885 -0.3585
  256MOL    O2536235   2.381   2.381   7.377  0.4141  0.4539  0.1307
  256MOL    H2636236   2.464   2.404   7.184 -0.3551  2.0567 -1.2676
  256MOL    H2736237   2.597   2.500   7.443  3.5043 -1.1931  0.3987
  256MOL    H2836238   2.661   2.513   7.274 -1.9222  3.3279  0.6181
  256MOL    H2936239   2.643   2.352   7.352 -0.4286 -0.5905 -1.5754
  256MOL    C3036240   2.327   2.253   7.336  0.0715  0.3548  0.6193
  256MOL    C3136241   2.270   2.187   7.470 -0.4151  0.4147  0.5198
  256MOL    O3236242   2.215   2.278   7.251 -0.0620  0.2779 -0.4882
  256MOL    H3336243   2.394   2.185   7.282 -2.1337 -0.1413 -1.6069
  256MOL    H3436244   2.198   2.109   7.444  2.3134 -1.7424 -0.8741
  256MOL    H3536245   2.209   2.263   7.519  0.5584  1.7734 -0.3379
  256MOL    H3636246   2.352   2.161   7.537 -0.1610  1.2313  0.5291
  256MOL    C3736247   2.212   2.206   7.130 -1.2447  0.4767  0.2114
  256MOL    C3836248   2.077   2.229   7.065  0.0996  0.2189 -0.2512
  256MOL    O3936249   2.309   2.256   7.046  0.0311 -0.1980  0.2219
  256MOL    H4036250   2.230   2.102   7.158 -2.0474  0.5054  0.8317
  256MOL    H4136251   2.053   2.334   7.050 -1.2725 -0.3659 -2.3494
  256MOL    H4236252   2.000   2.189   7.131 -1.1493  1.0524 -1.1885
  256MOL    H4336253   2.067   2.173   6.972  0.7740 -0.9952  0.3828
  256MOL    C4436254   2.351   2.169   6.948  0.2029 -0.1783  0.1188
  256MOL    C4536255   2.412   2.254   6.832  0.2100  0.2262 -0.1651
  256MOL    O4636256   2.443   2.072   6.998  0.8681 -0.2019  0.5050
  256MOL    H4736257   2.261   2.114   6.919 -0.5770  0.9997  0.2754
  256MOL    H4836258   2.518   2.277   6.848  0.1003  1.1383 -0.6773
  256MOL    H4936259   2.358   2.345   6.806 -1.4458 -1.4537 -2.8057
  256MOL    H5036260   2.409   2.189   6.744 -0.4147  0.4783 -0.3360
  256MOL    C5136261   2.427   1.945   6.936  0.0834 -1.4040  0.3725
  256MOL    C5236262   2.536   1.856   6.983 -0.2362 -0.5006  0.1001
  256MOL    O5336263   2.311   1.890   6.985 -0.3828 -0.0381 -0.3091
  256MOL    H5436264   2.430   1.962   6.829 -0.5655  0.6993  0.6593
  256MOL    H5536265   2.637   1.881   6.951 -1.0480  1.3114 -1.0912
  256MOL    H5636266   2.529   1.757   6.939 -1.1577  0.0168 -0.9172
  256MOL    H5736267   2.541   1.847   7.092 -2.2678  4.9425  0.7834
  256MOL    C5836268   2.236   1.825   6.885  0.1106 -0.6804 -0.7217
  256MOL    C5936269   2.141   1.734   6.971  0.0317 -0.5072  0.4802
  256MOL    O6036270   2.155   1.914   6.810 -0.3578 -0.0487 -0.2693
  256MOL    H6136271   2.298   1.760   6.823  0.8267 -1.5608  0.8829
  256MOL    H6236272   2.095   1.667   6.899  1.4120 -0.1440 -0.7576
  256MOL    H6336273   2.078   1.799   7.032  0.3810  0.0092  0.2920
  256MOL    H6436274   2.209   1.677   7.035  0.0924  0.1177  0.9724
  256MOL    C6536275   2.159   1.877   6.665 -1.3960 -0.1208 -0.0621
  256MOL    C6636276   2.085   1.980   6.588  0.1366 -0.5489  0.2710
  256MOL    O6736277   2.297   1.892   6.623  0.1028  0.9865 -0.0780
  256MOL    H6836278   2.120   1.776   6.654 -1.3901 -0.4151  2.3509
  256MOL    H6936279   1.980   1.990   6.616  0.3232  1.3304  0.3836
  256MOL    H7036280   2.073   1.957   6.482  0.0382 -2.5551  0.7019
  256MOL    H7136281   2.125   2.081   6.594 -1.4369  0.2528 -2.3823
  256MOL    C7236282   2.323   1.840   6.494 -0.3474 -0.0499 -0.3021
  256MOL    C7336283   2.469   1.847   6.480 -0.2446 -0.8953  0.2702
  256MOL    O7436284   2.293   1.707   6.489 -0.5639  0.2780  0.4148
  256MOL    H7536285   2.271   1.901   6.419 -0.2490 -2.2661 -2.2293
  256MOL    H7636286   2.515   1.785   6.403  1.7126  1.1222 -0.2395
  256MOL    H7736287   2.529   1.824   6.568 -0.7526 -0.5370  0.7087
  256MOL    H7836288   2.498   1.950   6.463 -1.0871 -0.1524  3.1585
  256MOL    C7936289   2.259   1.665   6.360  0.7303  0.7590  0.0064
  256MOL    C8036290   2.338   1.532   6.344  0.0921  0.7754 -0.4036
  256MOL    O8136291   2.125   1.631   6.359 -0.2141  0.0394  0.5159
  256MOL    H8236292   2.294   1.736   6.285 -3.4745  0.5198 -2.3507
  256MOL    H8336293   2.316   1.479   6.437  1.4429  0.4087 -0.2900
  256MOL    H8436294   2.443   1.553   6.361  0.8559 -0.7622 -2.9211
  256MOL    H8536295   2.317   1.478   6.251 -0.6525 -1.2580  0.9018
  256MOL    C8636296   2.061   1.662   6.240  0.8705  0.6683  0.2280
  256MOL    C8736297   1.921   1.592   6.247  0.0992 -0.3123 -0.8112
  256MOL    O8836298   2.040   1.801   6.247  0.2303  0.2019 -0.1107
  256MOL    H8936299   2.119   1.637   6.151  1.1730 -1.8403  1.1106
  256MOL    H9036300   1.880   1.612   6.346  0.1872 -0.9247 -0.6487
  256MOL    H9136301   1.943   1.487   6.232  0.7309 -0.4520  0.9976
  256MOL    H9236302   1.856   1.639   6.173 -1.3224  0.9734  1.1785
  256MOL    C9336303   2.058   1.872   6.124 -0.2885 -0.1294  0.3734
  256MOL    C9436304   1.992   2.014   6.148 -0.2038  0.6158 -0.4726
  256MOL    O9536305   2.191   1.887   6.089  0.2132  0.2970  0.0149
  256MOL    H9636306   1.998   1.818   6.051  0.6076  0.1595 -0.5899
  256MOL    H9736307   2.034   2.057   6.238  0.8735  0.8620 -1.0792
  256MOL    H9836308   1.884   2.016   6.163 -0.2698  0.9050 -0.9840
  256MOL    H9936309   2.026   2.075   6.064  1.0636 -0.4811 -0.7839
  256MOL   C10036310   2.221   1.867   5.956  0.9283  0.0124 -0.1004
  256MOL   C10136311   2.334   1.956   5.920 -0.1000 -0.2482  0.4327
  256MOL   O10236312   2.257   1.735   5.933  0.1376 -0.4925  0.2008
  256MOL   H10336313   2.141   1.892   5.886  0.4041 -1.0173  0.1192
  256MOL   H10436314   2.426   1.915   5.963  0.5308 -1.1987 -1.7710
  256MOL   H10536315   2.303   2.051   5.963 -0.4259 -1.2583  2.4909
  256MOL   H10636316   2.352   1.976   5.815 -2.2711 -1.2888 -0.1678
  256MOL   C10736317   2.176   1.656   5.850 -0.4575  0.4926 -0.2004
  256MOL   C10836318   2.245   1.523   5.847  0.0515 -0.2509 -0.5416
  256MOL   O10936319   2.048   1.649   5.902 -0.0523  0.5740 -0.0116
  256MOL   H11036320   2.183   1.702   5.752 -2.0554 -0.5208 -0.8080
  256MOL   H11136321   2.276   1.490   5.947  1.1680  1.7173 -0.2119
  256MOL   H11236322   2.332   1.535   5.783  0.2203  0.4473 -0.1821
  256MOL   H11336323   2.187   1.441   5.804  0.9920 -1.6338  0.7575
  256MOL   C11436324   1.957   1.617   5.799 -0.4989 -0.0794 -0.6016
  256MOL   C11536325   1.832   1.561   5.860 -0.3598 -0.6665 -0.0937
  256MOL   O11636326   1.923   1.736   5.722 -0.2960 -0.5363  0.3759
  256MOL   H11736327   1.998   1.542   5.732 -0.0999 -1.2101  0.8904
  256MOL   H11836328   1.794   1.628   5.937 -3.3170 -2.0618 -0.2564
  256MOL   H11936329   1.855   1.464   5.906 -0.0708 -0.6495 -0.2035
  256MOL   H12036330   1.758   1.542   5.782  0.5089 -2.3266 -0.5367
  256MOL   C12136331   1.943   1.715   5.581  0.2443 -0.2445 -1.0741
  256MOL   C12236332   1.892   1.842   5.511  0.0213  0.9471 -0.3378
  256MOL   O12336333   2.078   1.701   5.550  0.1083 -0.1925 -0.0549
  256MOL   H12436334   1.875   1.632   5.561 -1.5045  0.7738  0.4729
  256MOL   H12536335   1.870   1.821   5.407 -2.8693 -3.6465  1.0494
  256MOL   H12636336   1.958   1.929   5.515  1.5035 -0.0560 -2.2341
  256MOL   H12736337   1.796   1.860   5.559 -0.2761  0.8347 -0.8832
  256MOL   C12836338   2.099   1.606   5.444 -0.1222 -0.3197  0.1823
  256MOL   C12936339   2.248   1.607   5.418  0.3753 -0.1650 -0.5342
  256MOL   O13036340   2.061   1.475   5.485  0.5353  0.3201 -0.3691
  256MOL   H13136341   2.044   1.632   5.353  2.7629  0.3560 -1.4285
  256MOL   H13236342   2.275   1.542   5.334 -0.0215  0.4873 -1.1723
  256MOL   H13336343   2.300   1.572   5.507 -1.3804  0.0568  0.6034
  256MOL   H13436344   2.272   1.709   5.389 -2.2004  1.3619  2.5128
  256MOL   C13536345   2.002   1.394   5.390 -0.6860 -0.0302 -0.3783
  256MOL   C13636346   1.961   1.260   5.458  0.3478 -0.5176  0.1282
  256MOL   O13736347   1.884   1.446   5.335  0.0460  0.4550 -0.2726
  256MOL   H13836348   2.070   1.378   5.306 -0.7340 -0.1269 -0.3993
  256MOL   H13936349   2.036   1.225   5.530  1.0113 -0.7528 -0.6612
  256MOL   H14036350   1.950   1.184   5.380  0.9159 -1.0517  0.5550
  256MOL   H14136351   1.866   1.261   5.510 -0.9185 -2.0617 -2.0844
  256MOL   H14236352   1.874   1.399   5.254  0.8630  0.6493 -0.4965
  257MOL     C136353   1.002   7.584   3.445  0.3985 -0.0825  0.3629
  257MOL     C236354   1.099   7.598   3.327  0.4382 -0.2797 -0.6890
  257MOL     O336355   1.064   7.576   3.577  0.5329 -0.4432 -1.0451
  257MOL     H436356   0.952   7.488   3.433  1.9133 -0.7345 -1.0384
  257MOL     H536357   1.157   7.690   3.333 -1.5203  0.9830 -0.6019
  257MOL     H636358   1.057   7.590   3.227 -0.5803 -0.9315 -0.2315
  257MOL     H736359   1.167   7.514   3.341  0.2520 -0.3409 -0.1285
  257MOL     H836360   0.930   7.665   3.442  2.8362  2.2067  1.6426
  257MOL     C936361   0.983   7.561   3.685 -0.0932 -0.3814  0.5714
  257MOL    C1036362   1.013   7.436   3.766  0.3727 -0.1223  0.6248
  257MOL    O1136363   0.998   7.672   3.772  0.0351  0.0861 -0.5658
  257MOL    H1236364   0.880   7.550   3.653  0.3892  0.8337 -1.5135
  257MOL    H1336365   1.038   7.362   3.689 -0.4296  1.0875 -0.8311
  257MOL    H1436366   0.935   7.397   3.831  0.5306 -2.5144 -0.5449
  257MOL    H1536367   1.099   7.457   3.829  0.2041  1.7668  0.2533
  257MOL    C1636368   0.944   7.794   3.718 -0.0304 -0.6064  0.0740
  257MOL    C1736369   0.818   7.820   3.799 -0.5057 -0.4236 -0.1011
  257MOL    O1836370   1.035   7.900   3.754  0.2899 -0.0100  0.5522
  257MOL    H1936371   0.921   7.786   3.612  2.1007 -0.5709 -0.4210
  257MOL    H2036372   0.787   0.009   3.780  0.9129  0.9797  4.5157
  257MOL    H2136373   0.835   7.811   3.906 -0.8482 -2.5231 -0.1953
  257MOL    H2236374   0.750   7.742   3.764 -0.8054 -0.3625  0.3327
  257MOL    C2336375   1.128   7.913   3.651  0.2200  0.0331 -0.7288
  257MOL    C2436376   1.094   0.139   3.589  0.3654 -0.0530 -0.7434
  257MOL    O2536377   1.253   0.016   3.708  0.3737 -0.6316 -0.0754
  257MOL    H2636378   1.138   7.839   3.571  0.4037 -0.2633 -0.4355
  257MOL    H2736379   0.995   0.134   3.545 -0.3622  0.3160  0.7928
  257MOL    H2836380   1.169   0.152   3.512  0.7273 -0.0611 -0.3980
  257MOL    H2936381   1.087   0.217   3.664  0.1443 -0.2343 -0.5724
  257MOL    C3036382   1.323   7.808   3.723 -0.4473  0.6869 -0.6500
  257MOL    C3136383   1.436   7.803   3.615  0.5632  0.2210 -0.0284
  257MOL    O3236384   1.378   7.813   3.847 -0.5569 -0.3786  0.5282
  257MOL    H3336385   1.266   7.714   3.719  2.2020 -0.9487 -1.1456
  257MOL    H3436386   1.496   7.894   3.607 -0.6242  0.9153 -1.4012
  257MOL    H3536387   1.394   7.778   3.518 -1.1168 -0.5882  0.8834
  257MOL    H3636388   1.504   7.723   3.642 -0.2183 -1.5525 -3.0805
  257MOL    C3736389   1.295   7.788   3.955 -0.1478  0.6225  0.8395
  257MOL    C3836390   1.347   7.665   4.029 -0.4506 -0.1062 -0.2743
  257MOL    O3936391   1.310   7.892   4.042 -0.2133 -0.4780 -0.1299
  257MOL    H4036392   1.196   7.758   3.920  0.3146  0.6336 -0.5434
  257MOL    H4136393   1.328   7.579   3.965 -1.6030  0.6453 -0.9583
  257MOL    H4236394   1.294   7.652   4.123  1.1752 -2.5350  0.3552
  257MOL    H4336395   1.455   7.673   4.037 -0.5158 -0.7752  1.4274
  257MOL    C4436396   1.256   0.102   4.014  0.1854  0.2521  0.4389
  257MOL    C4536397   1.150   0.129   4.119 -0.5780 -0.1560  0.0283
  257MOL    O4636398   1.342   0.211   4.018 -0.1121 -0.8104  0.1666
  257MOL    H4736399   1.206   0.113   3.918 -0.8088  0.5080  0.9825
  257MOL    H4836400   1.086   0.207   4.077  1.1226  0.9187 -0.6110
  257MOL    H4936401   1.189   0.183   4.205 -2.1698 -0.8528  1.2183
  257MOL    H5036402   1.104   0.032   4.138  0.2839 -1.1709 -2.8251
  257MOL    C5136403   1.414   0.224   3.897  0.5007 -0.0250 -0.3467
  257MOL    C5236404   1.358   0.344   3.824  0.0424  0.1438 -0.2701
  257MOL    O5336405   1.546   0.246   3.919 -0.3794  0.3019  0.0751
  257MOL    H5436406   1.410   0.132   3.838  0.0397 -0.0540 -0.2678
  257MOL    H5536407   1.256   0.321   3.795  0.3140  1.1267 -2.0224
  257MOL    H5636408   1.411   0.357   3.730  2.2790 -2.3833  0.5837
  257MOL    H5736409   1.384   0.431   3.885  3.5156 -0.1273 -1.2216
  257MOL    C5836410   1.614   0.140   3.981  0.3377  0.7763  0.7807
  257MOL    C5936411   1.725   0.095   3.884  0.0001 -0.1971  0.0287
  257MOL    O6036412   1.672   0.190   4.086  0.0226  0.0078  0.2324
  257MOL    H6136413   1.553   0.055   4.011  1.1719  0.6060  2.0296
  257MOL    H6236414   1.789   0.182   3.871  1.6158 -1.1769  1.2383
  257MOL    H6336415   1.687   0.059   3.789  0.3508 -1.7854  0.4725
  257MOL    H6436416   1.783   0.014   3.928 -2.7003 -1.1849  1.8896
  257MOL    C6536417   1.597   0.180   4.204 -0.2439 -0.3367 -0.3159
  257MOL    C6636418   1.643   0.056   4.285 -0.2659  0.0615 -0.0492
  257MOL    O6736419   1.604   0.296   4.283 -0.2803  0.0111 -0.1383
  257MOL    H6836420   1.491   0.175   4.181 -0.8696  2.3089  1.7716
  257MOL    H6936421   1.601   0.065   4.385 -0.3469  0.2826 -0.1036
  257MOL    H7036422   1.751   0.065   4.300 -0.2517  0.3682 -0.3157
  257MOL    H7136423   1.612   7.877   4.236 -1.3459  0.1823  0.3996
  257MOL    C7236424   1.547   0.407   4.218  0.1028 -0.2585 -0.0615
  257MOL    C7336425   1.427   0.449   4.298  0.6580  0.3280 -0.5574
  257MOL    O7436426   1.645   0.513   4.217 -1.0344  0.2072  0.1445
  257MOL    H7536427   1.508   0.404   4.116 -0.0523  1.0070 -0.0438
  257MOL    H7636428   1.364   0.362   4.312  0.3013  0.4173 -1.5569
  257MOL    H7736429   1.370   0.523   4.242 -2.7164  0.1067  2.4359
  257MOL    H7836430   1.458   0.489   4.395 -1.5206  1.6131 -0.3486
  257MOL    C7936431   1.715   0.516   4.096 -0.9981  0.1281  0.1968
  257MOL    C8036432   1.664   0.635   4.020 -0.0186  0.1469  0.1425
  257MOL    O8136433   1.844   0.547   4.127  0.0487  0.1084  0.2713
  257MOL    H8236434   1.720   0.426   4.034  0.9925  0.5269 -0.2555
  257MOL    H8336435   1.644   0.718   4.087 -0.8294 -0.2813  0.4512
  257MOL    H8436436   1.570   0.605   3.972 -0.4398  0.0162  1.0400
  257MOL    H8536437   1.733   0.661   3.940  0.8379  1.6856  1.3501
  257MOL    C8636438   1.920   0.428   4.167 -0.3027  0.2269  0.3763
  257MOL    C8736439   2.008   0.383   4.051  0.2468  0.5921 -0.4558
  257MOL    O8836440   2.000   0.459   4.277 -0.1419  0.2568  0.5407
  257MOL    H8936441   1.863   0.338   4.192  1.3305 -0.3560  2.0966
  257MOL    H9036442   2.056   0.288   4.075  0.9991  0.3367 -2.8544
  257MOL    H9136443   2.086   0.458   4.044  1.0063  0.3762  4.0497
  257MOL    H9236444   1.942   0.367   3.966 -0.3897 -1.7829  0.4448
  257MOL    C9336445   1.932   0.460   4.408 -0.7225 -0.7846 -0.3625
  257MOL    C9436446   2.000   0.348   4.496 -0.2407 -0.3148  0.6867
  257MOL    O9536447   1.961   0.575   4.475 -0.1271 -0.3927 -0.0454
  257MOL    H9636448   1.824   0.443   4.404 -0.3403 -3.4459 -0.7844
  257MOL    H9736449   1.963   0.347   4.599 -0.3205 -0.6061  0.6543
  257MOL    H9836450   2.107   0.367   4.500  0.1172 -1.4866 -2.1571
  257MOL    H9936451   1.971   0.255   4.448  2.9676 -0.1122 -1.7546
  257MOL   C10036452   1.882   0.678   4.437  0.0526  0.5224 -0.6116
  257MOL   C10136453   1.812   0.727   4.566 -0.6367  0.1964  0.7440
  257MOL   O10236454   1.964   0.787   4.403  0.2402  0.4871 -0.2723
  257MOL   H10336455   1.804   0.669   4.361  0.2600  0.2844 -0.7933
  257MOL   H10436456   1.898   0.748   4.629  1.0011 -0.4963 -1.1853
  257MOL   H10536457   1.750   0.651   4.612  1.0396 -0.7035  1.5568
  257MOL   H10636458   1.764   0.824   4.554 -1.7282 -0.1085  2.4938
  257MOL   C10736459   2.029   0.781   4.279  0.7003 -0.1328  0.2245
  257MOL   C10836460   1.967   0.905   4.207  0.3479 -0.1684  0.0139
  257MOL   O10936461   2.165   0.798   4.281 -0.3373  0.1131 -0.1091
  257MOL   H11036462   2.006   0.691   4.222  4.4202 -2.0625  1.5377
  257MOL   H11136463   2.004   0.930   4.108 -0.7331 -2.0512 -0.8827
  257MOL   H11236464   1.972   0.991   4.274 -0.0460 -0.3373  0.2637
  257MOL   H11336465   1.860   0.890   4.196  0.2239  1.3116 -0.8968
  257MOL   C11436466   2.227   0.678   4.328 -0.2061 -0.1892 -1.2591
  257MOL   C11536467   2.312   0.618   4.211 -0.2500 -0.1754 -0.3387
  257MOL   O11636468   2.319   0.707   4.428 -0.2215 -0.2384 -0.2414
  257MOL   H11736469   2.164   0.597   4.366  0.1312 -0.2025 -0.7228
  257MOL   H11836470   2.396   0.679   4.177  0.3677 -1.1649 -0.6288
  257MOL   H11936471   2.252   0.605   4.121  0.5459  0.0139 -0.9090
  257MOL   H12036472   2.363   0.524   4.235 -0.4101 -0.1829 -0.0355
  257MOL   C12136473   2.273   0.698   4.559  0.4257  0.1189 -0.6848
  257MOL   C12236474   2.340   0.586   4.632 -0.8790 -0.1848 -0.4687
  257MOL   O12336475   2.300   0.816   4.632 -0.0247  0.6209 -1.1600
  257MOL   H12436476   2.165   0.686   4.563  0.3823  0.9359  0.8539
  257MOL   H12536477   2.307   0.570   4.735  1.2520  1.5455  0.5125
  257MOL   H12636478   2.446   0.612   4.635 -0.1518 -2.9043 -0.8458
  257MOL   H12736479   2.357   0.494   4.576  0.9265  0.9988 -1.9124
  257MOL   C12836480   2.208   0.921   4.609  0.5376  0.6350  0.0493
  257MOL   C12936481   2.149   0.949   4.744  0.2770  0.1149 -0.2499
  257MOL   O13036482   2.282   1.038   4.565  0.3547 -0.1078 -0.3637
  257MOL   H13136483   2.129   0.902   4.537 -0.9840  0.6390  1.6927
  257MOL   H13236484   2.067   1.021   4.735 -1.1036 -1.4459 -0.4541
  257MOL   H13336485   2.224   0.998   4.807  1.2393  1.2365 -2.2197
  257MOL   H13436486   2.100   0.863   4.789 -1.2589  1.2443  0.2943
  257MOL   C13536487   2.341   1.023   4.440 -0.9203  0.4323 -0.2979
  257MOL   C13636488   2.364   1.157   4.373 -0.5934 -0.3181 -0.6684
  257MOL   O13736489   2.465   0.967   4.455 -0.0613  0.3742  0.5491
  257MOL   H13836490   2.288   0.950   4.379  0.6404  1.2932 -2.7452
  257MOL   H13936491   2.420   1.226   4.436  0.7999 -1.4977 -0.5790
  257MOL   H14036492   2.271   1.207   4.347 -0.3258 -0.4970 -2.0192
  257MOL   H14136493   2.426   1.143   4.284 -0.3562  0.2778 -0.6024
  257MOL   H14236494   2.444   0.878   4.477 -0.6300  0.5932  0.9005
  258MOL     C136495   1.538   3.278   1.340 -0.1504  0.1083  0.5969
  258MOL     C236496   1.649   3.234   1.432  0.3882 -0.5752 -0.3339
  258MOL     O336497   1.540   3.414   1.296  1.0335 -0.1934  0.1756
  258MOL     H436498   1.444   3.255   1.389 -0.5671 -1.5914 -0.9334
  258MOL     H536499   1.617   3.131   1.448 -2.1130  0.2383  0.2002
  258MOL     H636500   1.649   3.291   1.525 -0.1456 -2.2162  0.6919
  258MOL     H736501   1.745   3.222   1.382  0.2429  4.4229 -2.0902
  258MOL     H836502   1.534   3.207   1.257 -0.4986  1.2648 -0.3870
  258MOL     C936503   1.452   3.453   1.196 -0.6579 -1.0617  0.2033
  258MOL    C1036504   1.308   3.453   1.248 -0.2363  0.0025  0.4492
  258MOL    O1136505   1.476   3.585   1.154  0.5323  0.3713 -0.0760
  258MOL    H1236506   1.467   3.386   1.111 -0.6761 -0.4313 -0.3035
  258MOL    H1336507   1.282   3.351   1.277 -1.3486 -0.5101 -2.1709
  258MOL    H1436508   1.235   3.478   1.171 -0.5469 -0.3980  0.6073
  258MOL    H1536509   1.295   3.508   1.341 -1.3845  0.4116  0.0541
  258MOL    C1636510   1.601   3.604   1.105  0.4291 -0.1557  0.3212
  258MOL    C1736511   1.580   3.617   0.952  0.2190  0.0809  0.8928
  258MOL    O1836512   1.654   3.728   1.149  0.2562 -0.2717 -0.2203
  258MOL    H1936513   1.672   3.529   1.140  1.2055  0.2322 -0.4254
  258MOL    H2036514   1.550   3.520   0.914 -1.4704  0.5501  0.9694
  258MOL    H2136515   1.675   3.641   0.905 -1.3499  2.2107 -1.3397
  258MOL    H2236516   1.502   3.687   0.922 -0.2902 -1.2612 -0.9953
  258MOL    C2336517   1.650   3.739   1.289 -0.2326 -0.2670 -0.2793
  258MOL    C2436518   1.796   3.731   1.336 -0.1622  0.1440  0.3688
  258MOL    O2536519   1.598   3.860   1.334  0.2202 -0.7521 -0.2088
  258MOL    H2636520   1.600   3.655   1.337  1.8172 -0.7883  1.0070
  258MOL    H2736521   1.862   3.787   1.270 -0.3179 -0.9334 -0.7154
  258MOL    H2836522   1.831   3.628   1.329  0.9250  0.5898 -1.1246
  258MOL    H2936523   1.810   3.761   1.440  0.2128 -1.6102  0.8352
  258MOL    C3036524   1.468   3.882   1.304 -0.4313  0.2491 -0.2269
  258MOL    C3136525   1.382   3.847   1.422  0.5637  0.1127 -0.1256
  258MOL    O3236526   1.453   4.019   1.270 -0.3268  0.0369 -1.0569
  258MOL    H3336527   1.423   3.831   1.219  0.8647 -1.1245 -0.1042
  258MOL    H3436528   1.432   3.878   1.514  0.5613 -1.0394  0.2689
  258MOL    H3536529   1.360   3.741   1.426 -0.2165  0.2088 -1.4469
  258MOL    H3636530   1.288   3.901   1.406  1.0237  0.9467 -0.0500
  258MOL    C3736531   1.507   4.047   1.140  0.3566  0.2720  0.2807
  258MOL    C3836532   1.391   4.042   1.042 -0.3206  0.0697  0.0856
  258MOL    O3936533   1.566   4.170   1.130 -0.1381 -0.5743 -0.6727
  258MOL    H4036534   1.579   3.973   1.102  0.3508  0.8867 -0.9469
  258MOL    H4136535   1.343   3.945   1.034 -0.7485  0.3089 -0.2444
  258MOL    H4236536   1.422   4.068   0.940 -1.5545  1.0167 -0.0560
  258MOL    H4336537   1.318   4.115   1.076  0.9550  1.0034  0.8711
  258MOL    C4436538   1.676   4.199   1.214  1.0340 -0.3769 -0.4643
  258MOL    C4536539   1.804   4.129   1.177  0.1431 -0.0108 -0.3863
  258MOL    O4636540   1.705   4.340   1.222 -0.3323 -0.1571  0.1526
  258MOL    H4736541   1.641   4.171   1.314 -1.7028  1.2029 -0.9262
  258MOL    H4836542   1.824   4.176   1.081 -2.6834  2.0879 -0.0205
  258MOL    H4936543   1.782   4.024   1.155 -0.1914  0.4909 -2.5375
  258MOL    H5036544   1.883   4.133   1.252 -0.0486  0.4316 -0.2116
  258MOL    C5136545   1.615   4.419   1.292  0.5742 -0.9580 -0.1689
  258MOL    C5236546   1.685   4.466   1.418 -0.0755 -0.1602 -0.2014
  258MOL    O5336547   1.591   4.542   1.222  0.3280 -0.4908  0.1741
  258MOL    H5436548   1.527   4.358   1.313 -0.9120  0.5423 -1.8751
  258MOL    H5536549   1.770   4.522   1.378  1.4608 -1.5248  1.1206
  258MOL    H5636550   1.724   4.382   1.475  0.8126 -0.8143 -1.7462
  258MOL    H5736551   1.626   4.526   1.487 -0.5168  0.0074 -0.7244
  258MOL    C5836552   1.528   4.540   1.094  0.1937 -0.4971 -0.1351
  258MOL    C5936553   1.387   4.598   1.117 -0.1737 -0.0072 -0.2185
  258MOL    O6036554   1.596   4.623   0.999 -0.0059 -0.0875 -0.2901
  258MOL    H6136555   1.528   4.440   1.052  0.8009 -0.4390 -0.2801
  258MOL    H6236556   1.399   4.701   1.151  0.9411 -0.0757 -0.3846
  258MOL    H6336557   1.329   4.538   1.186  0.2370  1.6784  1.6440
  258MOL    H6436558   1.337   4.616   1.021 -1.4141  0.7288  0.5598
  258MOL    C6536559   1.713   4.556   0.956  0.4760 -0.4698 -0.2843
  258MOL    C6636560   1.695   4.517   0.809 -0.1824  1.2868 -0.0667
  258MOL    O6736561   1.825   4.642   0.960  0.5566 -0.4620 -0.1929
  258MOL    H6836562   1.740   4.465   1.009 -0.2976 -1.3854 -1.4261
  258MOL    H6936563   1.604   4.460   0.791  0.2730  0.5154  0.0433
  258MOL    H7036564   1.790   4.471   0.783 -1.3735 -1.8600  0.9731
  258MOL    H7136565   1.687   4.612   0.754 -2.1246 -0.1484 -2.3461
  258MOL    C7236566   1.873   4.665   1.084  0.3153  0.7718 -0.4638
  258MOL    C7336567   2.021   4.602   1.075  0.4815 -0.2488 -0.8165
  258MOL    O7436568   1.888   4.802   1.097  0.0475  0.2057 -0.4282
  258MOL    H7536569   1.816   4.615   1.163  1.2426  0.6910  0.1636
  258MOL    H7636570   2.071   4.637   1.166 -0.6615  1.6557 -0.8877
  258MOL    H7736571   2.073   4.640   0.987  0.6506 -1.3845 -1.2073
  258MOL    H7836572   2.012   4.494   1.066  0.7089 -0.6391  2.8794
  258MOL    C7936573   1.769   4.872   1.128 -0.6612  0.4798  0.1978
  258MOL    C8036574   1.800   4.918   1.273  0.8764 -0.3678  0.3724
  258MOL    O8136575   1.763   4.981   1.047 -0.4344 -0.3798 -0.2401
  258MOL    H8236576   1.674   4.819   1.120 -0.9736  1.2317 -1.2608
  258MOL    H8336577   1.793   4.832   1.338 -0.2457  1.0422  2.1577
  258MOL    H8436578   1.726   4.993   1.300  1.5456  0.2079  0.6502
  258MOL    H8536579   1.899   4.966   1.269 -0.1080  1.6047 -2.9280
  258MOL    C8636580   1.715   4.960   0.922 -0.3480 -0.2333  0.1499
  258MOL    C8736581   1.580   5.020   0.917  0.0793 -0.0499 -0.2673
  258MOL    O8836582   1.789   5.025   0.826 -0.3146 -0.1831  0.2041
  258MOL    H8936583   1.715   4.856   0.888 -2.1793  0.5381 -2.3815
  258MOL    H9036584   1.577   5.129   0.913 -0.6492 -0.0176  0.8340
  258MOL    H9136585   1.519   4.988   1.002 -1.1766 -0.1289 -1.1856
  258MOL    H9236586   1.533   4.980   0.827 -0.4473 -0.5096  0.2061
  258MOL    C9336587   1.918   4.987   0.815 -0.4199 -0.1252 -0.3188
  258MOL    C9436588   1.934   4.931   0.676 -0.4360  0.0056 -0.0097
  258MOL    O9536589   2.009   5.096   0.827  0.4379 -0.1949 -0.6124
  258MOL    H9636590   1.946   4.910   0.888 -1.0735  1.0182  1.1635
  258MOL    H9736591   1.898   5.017   0.620 -1.1745 -1.4469 -1.8089
  258MOL    H9836592   1.870   4.844   0.658 -3.0990  1.8419  0.3136
  258MOL    H9936593   2.038   4.906   0.652 -1.0784 -0.4761 -2.4382
  258MOL   C10036594   2.024   5.141   0.958 -0.4006 -0.3465 -0.3331
  258MOL   C10136595   2.168   5.113   0.990  0.0104  0.2429 -0.1565
  258MOL   O10236596   2.010   5.277   0.961 -0.3050  0.1540  0.1315
  258MOL   H10336597   1.961   5.096   1.036  0.0632 -0.4245 -0.0000
  258MOL   H10436598   2.232   5.158   0.914 -1.6209  0.3887 -1.4589
  258MOL   H10536599   2.176   5.004   0.991 -2.1259  0.0522  2.9458
  258MOL   H10636600   2.195   5.155   1.087 -0.3144 -0.3739  0.1999
  258MOL   C10736601   1.889   5.319   0.925  0.3846 -0.0717 -0.1102
  258MOL   C10836602   1.813   5.336   1.059  0.2194  0.3574 -0.6971
  258MOL   O10936603   1.888   5.450   0.866  0.0768  0.3482  0.2381
  258MOL   H11036604   1.831   5.256   0.858  0.0855 -0.5846  0.6339
  258MOL   H11136605   1.858   5.404   1.131 -0.0092  1.5210 -1.6444
  258MOL   H11236606   1.802   5.243   1.115 -2.2464  0.4147 -1.0041
  258MOL   H11336607   1.718   5.386   1.039 -0.8405 -0.4261  2.0568
  258MOL   C11436608   1.943   5.442   0.736 -0.0502  0.2602  0.0091
  258MOL   C11536609   1.844   5.520   0.655 -0.7768  0.1458  0.0935
  258MOL   O11636610   2.058   5.517   0.747 -0.1693  0.5678 -0.4904
  258MOL   H11736611   1.959   5.343   0.695 -2.6856 -1.5264  3.0577
  258MOL   H11836612   1.740   5.503   0.683 -0.2587 -1.7968  0.9308
  258MOL   H11936613   1.847   5.491   0.550 -2.6882 -1.1788  0.3857
  258MOL   H12036614   1.870   5.626   0.661  0.2777 -0.0621 -0.6236
  258MOL   C12136615   2.174   5.440   0.717  0.3525  0.0475 -0.2525
  258MOL   C12236616   2.190   5.428   0.569 -0.4242  0.2465 -0.1513
  258MOL   O12336617   2.285   5.515   0.764 -0.3156 -0.2573  0.2752
  258MOL   H12436618   2.160   5.342   0.762 -1.4162 -0.1873 -1.2946
  258MOL   H12536619   2.118   5.359   0.524  2.0017 -2.1170 -0.5266
  258MOL   H12636620   2.284   5.381   0.540 -1.1805 -0.9296 -0.7613
  258MOL   H12736621   2.176   5.525   0.520 -1.3687  0.3731  0.3628
  258MOL   C12836622   2.308   5.503   0.900 -0.8512 -0.1614 -0.5319
  258MOL   C12936623   2.459   5.509   0.925 -0.1935 -0.3761  0.6101
  258MOL   O13036624   2.247   5.613   0.969  0.5115 -0.4243  0.9450
  258MOL   H13136625   2.264   5.409   0.931 -1.5147  0.2227 -0.2980
  258MOL   H13236626   2.482   5.609   0.889 -0.9832 -1.1141 -2.1313
  258MOL   H13336627   2.502   5.424   0.871 -1.3491 -0.8131  0.3561
  258MOL   H13436628   2.473   5.492   1.032  2.3516  2.3713  0.7668
  258MOL   C13536629   2.124   5.586   1.025  0.4824  0.0475 -0.1567
  258MOL   C13636630   2.133   5.617   1.175  0.0082  0.8400  0.4177
  258MOL   O13736631   2.025   5.670   0.974 -0.6540 -0.8176  0.2081
  258MOL   H13836632   2.086   5.484   1.024 -0.8128  0.4749  2.0431
  258MOL   H13936633   2.199   5.547   1.225 -1.5375 -1.3519 -0.5044
  258MOL   H14036634   2.036   5.593   1.219  0.2670 -0.1842  0.4559
  258MOL   H14136635   2.167   5.717   1.200 -1.3635  0.9123  2.0711
  258MOL   H14236636   1.993   5.609   0.909  2.5084 -2.1521 -0.2066
  259MOL     C136637   7.162   4.529   4.158 -0.5700  0.0965 -0.0740
  259MOL     C236638   7.095   4.660   4.179 -0.1497 -0.5327  0.3840
  259MOL     O336639   7.245   4.498   4.272  0.4261 -0.6609 -0.4043
  259MOL     H436640   7.216   4.538   4.064  1.2804 -0.7727  0.8600
  259MOL     H536641   7.164   4.743   4.164  2.4105 -2.7039 -0.2412
  259MOL     H636642   7.057   4.654   4.281  1.3178 -0.9380  0.9198
  259MOL     H736643   7.021   4.673   4.100  1.6265  0.1747 -1.2206
  259MOL     H836644   7.088   4.449   4.166 -1.4532  0.9404  0.2788
  259MOL     C936645   7.316   4.387   4.239 -0.0111  0.5239 -0.6924
  259MOL    C1036646   7.452   4.411   4.303  0.0433  0.4594 -0.4552
  259MOL    O1136647   7.255   4.269   4.285 -0.1646 -0.0163 -0.6154
  259MOL    H1236648   7.333   4.377   4.132  0.3526  0.5846 -0.6398
  259MOL    H1336649   7.456   4.396   4.411  0.4508 -0.1625 -0.5529
  259MOL    H1436650   7.486   4.510   4.273 -0.4650  0.7699 -0.0171
  259MOL    H1536651   7.527   4.342   4.263  0.4781  0.4559  0.3483
  259MOL    C1636652   7.199   4.262   4.413 -1.0315 -0.1438  0.5244
  259MOL    C1736653   7.062   4.328   4.418 -0.1688  0.0592 -0.2152
  259MOL    O1836654   7.164   4.125   4.436  0.0599 -0.5478 -0.4420
  259MOL    H1936655   7.268   4.302   4.487  1.9843 -0.1647 -2.1048
  259MOL    H2036656   6.984   4.269   4.370 -0.0965 -0.2379  0.0333
  259MOL    H2136657   7.053   4.433   4.389  0.9684  0.2155 -0.0269
  259MOL    H2236658   7.026   4.318   4.521 -1.0470 -0.7301 -0.5895
  259MOL    C2336659   7.280   4.057   4.474 -0.3380 -0.2315 -0.7684
  259MOL    C2436660   7.286   4.059   4.631  0.0251  0.1191  0.1870
  259MOL    O2536661   7.270   3.926   4.427 -0.2637  0.0019 -0.4480
  259MOL    H2636662   7.372   4.112   4.454  0.1860 -0.4077  1.0703
  259MOL    H2736663   7.303   4.161   4.665 -1.0913  0.3299  0.1388
  259MOL    H2836664   7.368   3.995   4.664  0.7795  2.5056  3.2185
  259MOL    H2936665   7.187   4.029   4.668  0.4904  0.2275  1.5620
  259MOL    C3036666   7.309   3.912   4.295 -0.8061  0.4457  0.0066
  259MOL    C3136667   7.464   3.909   4.280 -0.2779 -0.2471  0.5211
  259MOL    O3236668   7.263   3.788   4.243  0.5097 -0.2428  0.6493
  259MOL    H3336669   7.273   3.997   4.237 -1.5991  0.3160  0.3087
  259MOL    H3436670   7.496   3.888   4.177 -1.0901  3.4134 -0.5542
  259MOL    H3536671   7.516   3.842   4.348 -2.5053 -1.3756  1.1508
  259MOL    H3636672   7.513   4.005   4.300  2.9735 -1.5890 -0.5932
  259MOL    C3736673   7.121   3.777   4.227 -0.5501 -0.2427  0.8156
  259MOL    C3836674   7.095   3.757   4.079 -0.1685 -0.2995  0.2596
  259MOL    O3936675   7.065   3.664   4.287  0.1111 -0.0616  0.3043
  259MOL    H4036676   7.055   3.859   4.257 -1.5979 -1.0987  0.9055
  259MOL    H4136677   7.163   3.688   4.030  0.8033 -0.5414  1.9014
  259MOL    H4236678   7.104   3.853   4.028 -0.3771 -0.6508 -0.4456
  259MOL    H4336679   6.989   3.731   4.076 -0.2347 -0.0458  0.3779
  259MOL    C4436680   7.039   3.663   4.418 -0.3433 -0.0690  0.3973
  259MOL    C4536681   6.889   3.662   4.437 -0.1456  0.1896 -0.4970
  259MOL    O4636682   7.076   3.542   4.475  0.0346  0.4266  0.6767
  259MOL    H4736683   7.087   3.747   4.466 -1.4182 -0.2006  1.7267
  259MOL    H4836684   6.881   3.691   4.541  1.3707  1.5430 -0.7368
  259MOL    H4936685   6.849   3.563   4.416 -0.7010 -0.4195  3.1999
  259MOL    H5036686   6.837   3.725   4.365  1.7042 -0.1330 -2.1652
  259MOL    C5136687   7.218   3.521   4.479 -0.2047 -0.6831  0.7235
  259MOL    C5236688   7.270   3.499   4.619  0.3755 -0.4979  0.7473
  259MOL    O5336689   7.247   3.409   4.400 -0.0465  0.5135  0.0658
  259MOL    H5436690   7.265   3.600   4.419 -1.0790 -1.8460 -1.5678
  259MOL    H5536691   7.243   3.581   4.685  2.7530  0.1978  0.9066
  259MOL    H5636692   7.378   3.517   4.621  0.2358  0.1762  2.5898
  259MOL    H5736693   7.252   3.394   4.644 -1.9106 -0.7526 -1.8236
  259MOL    C5836694   7.252   3.419   4.264  0.1854 -0.4500 -0.0062
  259MOL    C5936695   7.403   3.414   4.227  0.4496 -0.2125 -0.1684
  259MOL    O6036696   7.181   3.312   4.201  0.3069 -0.2080  0.1781
  259MOL    H6136697   7.212   3.511   4.222  2.2209 -0.1835 -1.3969
  259MOL    H6236698   7.441   3.313   4.244  1.5162  0.3631  1.0147
  259MOL    H6336699   7.451   3.492   4.287 -2.2520  0.9206  0.5731
  259MOL    H6436700   7.419   3.440   4.123 -0.7083 -1.4567 -0.6596
  259MOL    C6536701   7.036   3.319   4.215  0.0491 -0.4161 -0.5202
  259MOL    C6636702   6.982   3.343   4.068 -0.4426  0.4207 -0.4463
  259MOL    O6736703   6.994   3.193   4.252 -0.2434  0.6614 -0.3189
  259MOL    H6836704   7.010   3.390   4.294  0.7350 -0.9577  0.2032
  259MOL    H6936705   7.002   3.446   4.039  0.5888  0.1245 -0.8141
  259MOL    H7036706   6.874   3.330   4.072 -0.4130  0.3159  0.1839
  259MOL    H7136707   7.011   3.260   4.003 -1.5777  0.4705 -1.0159
  259MOL    C7236708   7.025   3.162   4.386  0.1695 -0.0498  0.1403
  259MOL    C7336709   6.891   3.162   4.457  0.5965 -0.0404 -0.0054
  259MOL    O7436710   7.073   3.033   4.397 -0.3616  0.0057 -0.8582
  259MOL    H7536711   7.089   3.238   4.430  1.5827 -0.1914 -1.6100
  259MOL    H7636712   6.860   3.264   4.478  0.2599 -0.4802  1.6775
  259MOL    H7736713   6.904   3.115   4.555 -0.7025 -0.7269 -0.1519
  259MOL    H7836714   6.817   3.117   4.392 -1.1448  0.6003  1.4809
  259MOL    C7936715   7.206   3.029   4.364 -0.0298  0.6226  0.2726
  259MOL    C8036716   7.279   3.001   4.495 -0.2739  0.0203 -0.3367
  259MOL    O8136717   7.236   2.917   4.277  0.3389 -0.0089  0.1178
  259MOL    H8236718   7.247   3.122   4.323  0.0238  0.3284 -0.3326
  259MOL    H8336719   7.244   2.907   4.538 -0.0387 -0.2589 -0.7574
  259MOL    H8436720   7.243   3.070   4.572  0.7941 -0.3437  0.4951
  259MOL    H8536721   7.387   2.992   4.498 -0.2460  0.5928  0.9547
  259MOL    C8636722   7.216   2.954   4.147  0.4061  0.2812 -0.4629
  259MOL    C8736723   7.363   2.976   4.106 -0.5863  0.2280  0.2403
  259MOL    O8836724   7.165   2.841   4.073 -0.0276  0.4870  0.2032
  259MOL    H8936725   7.153   3.040   4.128  0.4216  0.9698  2.4201
  259MOL    H9036726   7.368   3.006   4.001  0.1012 -0.0613  0.1831
  259MOL    H9136727   7.418   2.883   4.122  1.5350  1.3729 -0.1632
  259MOL    H9236728   7.417   3.055   4.159 -0.8913 -0.4726  1.6009
  259MOL    C9336729   7.037   2.793   4.111  0.5108 -0.7738  0.5546
  259MOL    C9436730   6.937   2.827   3.997  0.1286  0.6607  0.4553
  259MOL    O9536731   7.042   2.659   4.117  0.6987  0.3816 -0.1355
  259MOL    H9636732   7.004   2.841   4.203  2.2803  1.4755  0.0930
  259MOL    H9736733   6.966   2.762   3.916 -0.4392  1.7789 -0.6638
  259MOL    H9836734   6.940   2.932   3.967  0.7603 -0.0914 -2.1562
  259MOL    H9936735   6.840   2.813   4.045 -0.8115  1.7505 -1.0940
  259MOL   C10036736   7.064   2.615   4.251 -0.5567  0.0474 -0.2451
  259MOL   C10136737   6.937   2.555   4.309  0.0596  0.1222  0.1870
  259MOL   O10236738   7.166   2.519   4.262  0.0099  0.1183 -0.8170
  259MOL   H10336739   7.089   2.699   4.316  2.4616  0.3673 -1.7300
  259MOL   H10436740   6.918   2.464   4.252  0.4495  0.3936 -0.3906
  259MOL   H10536741   6.849   2.619   4.298 -0.0516 -0.0311  0.1906
  259MOL   H10636742   6.946   2.528   4.414 -0.9805  0.7783  0.4516
  259MOL   C10736743   7.295   2.568   4.268  0.2199  0.5330  0.7383
  259MOL   C10836744   7.332   2.612   4.409  0.1440  0.4155  0.4017
  259MOL   O10936745   7.381   2.458   4.253  0.0758  0.3377  0.0812
  259MOL   H11036746   7.312   2.652   4.201 -0.5055  2.7533  3.2554
  259MOL   H11136747   7.441   2.611   4.418  0.1865 -0.3664 -0.1421
  259MOL   H11236748   7.282   2.542   4.477  3.5753 -1.3320  1.2334
  259MOL   H11336749   7.299   2.709   4.445 -1.2281 -0.2439  0.9569
  259MOL   C11436750   7.384   2.413   4.121 -0.3115 -0.7350 -0.2084
  259MOL   C11536751   7.485   2.497   4.037  0.5894  0.5717 -0.4417
  259MOL   O11636752   7.433   2.289   4.118 -0.1439  0.5354  0.3013
  259MOL   H11736753   7.284   2.423   4.079  0.2421  0.5953 -1.2485
  259MOL   H11836754   7.481   2.457   3.935 -0.1581  0.8291 -0.5191
  259MOL   H11936755   7.582   2.490   4.086  0.7920  1.8952 -0.6310
  259MOL   H12036756   7.464   2.604   4.038 -0.1720  0.4219  0.7584
  259MOL   C12136757   7.342   2.199   4.167  0.0761  0.5922 -0.2251
  259MOL   C12236758   7.280   2.130   4.052 -0.5682  0.0403 -0.5038
  259MOL   O12336759   7.409   2.109   4.247  0.2265  0.6511 -0.4071
  259MOL   H12436760   7.261   2.238   4.229 -1.5077 -1.4119 -0.9885
  259MOL   H12536761   7.212   2.054   4.092 -2.6708  1.5880 -1.0649
  259MOL   H12636762   7.369   2.080   4.015  1.6466  1.8132  2.2450
  259MOL   H12736763   7.233   2.188   3.973 -2.0957 -0.3173  0.1195
  259MOL   C12836764   7.469   2.161   4.363  1.0282  0.6745  0.3125
  259MOL   C12936765   7.398   2.122   4.488  1.2978 -0.2891 -1.3852
  259MOL   O13036766   7.599   2.109   4.372  0.0054  0.1118 -0.1855
  259MOL   H13136767   7.470   2.269   4.353  0.6599  0.8019  1.6449
  259MOL   H13236768   7.296   2.162   4.493  1.4010 -0.1001 -0.7830
  259MOL   H13336769   7.447   2.157   4.579 -3.3396  0.7309  0.8994
  259MOL   H13436770   7.392   2.016   4.513  2.1260  0.0691  0.4204
  259MOL   C13536771   7.697   2.179   4.299 -0.3711 -0.4777  0.4328
  259MOL   C13636772   7.731   2.316   4.359 -0.2987 -0.1118 -0.3038
  259MOL   O13736773   7.812   2.102   4.297 -0.4862  0.0343 -0.7646
  259MOL   H13836774   7.662   2.200   4.198 -1.8918  1.0995  1.2570
  259MOL   H13936775   7.640   2.368   4.389 -0.4451 -0.8856  0.6091
  259MOL   H14036776   7.790   2.377   4.291  0.7647 -0.0802  0.6444
  259MOL   H14136777   7.784   2.295   4.451 -0.3373 -2.0383 -0.6915
  259MOL   H14236778   7.786   2.012   4.282 -0.5310 -0.1430  0.2949
  260MOL     C136779   3.283   5.856   4.593 -0.4536 -0.1234  0.1933
  260MOL     C236780   3.147   5.789   4.554 -0.0687  0.0470 -0.0443
  260MOL     O336781   3.266   5.950   4.691 -0.2610  0.2375 -0.3229
  260MOL     H436782   3.321   5.908   4.505  0.4433  0.0831  0.6900
  260MOL     H536783   3.105   5.742   4.643  1.4020  0.7820  1.0624
  260MOL     H636784   3.164   5.709   4.482 -0.9202 -0.8185  0.7024
  260MOL     H736785   3.072   5.851   4.506  1.6984  0.8759 -1.8406
  260MOL     H836786   3.357   5.783   4.625  1.1082  2.4821  2.7857
  260MOL     C936787   3.386   6.020   4.718  0.3446  1.1951  0.7009
  260MOL    C1036788   3.362   6.127   4.824  0.0327  0.2620  0.6489
  260MOL    O1136789   3.483   5.933   4.772 -0.6458  0.0092 -0.2118
  260MOL    H1236790   3.419   6.072   4.629 -0.7723 -0.2639 -0.5945
  260MOL    H1336791   3.307   6.211   4.780 -1.4472 -0.8080  0.4164
  260MOL    H1436792   3.456   6.155   4.871 -0.0934  0.7705  0.6027
  260MOL    H1536793   3.294   6.091   4.902 -0.3672  1.8086  1.0406
  260MOL    C1636794   3.609   5.951   4.719  0.7313 -0.7623 -0.7979
  260MOL    C1736795   3.699   5.881   4.826  0.1946 -0.4221  0.3745
  260MOL    O1836796   3.624   5.872   4.599 -0.7383 -0.1926 -0.1366
  260MOL    H1936797   3.642   6.055   4.708 -1.2248 -0.3650 -3.2173
  260MOL    H2036798   3.675   5.775   4.824 -0.6926 -0.2674  1.7495
  260MOL    H2136799   3.684   5.916   4.929  1.5629  0.4860  0.2734
  260MOL    H2236800   3.805   5.895   4.806  0.4751 -1.3049  1.1880
  260MOL    C2336801   3.664   5.951   4.486  0.0642  0.0769 -0.3292
  260MOL    C2436802   3.722   5.846   4.391 -0.1924  0.2262  0.2481
  260MOL    O2536803   3.553   6.001   4.416  0.4627 -0.2064  0.9157
  260MOL    H2636804   3.741   6.019   4.523 -0.5385  0.7319 -0.2865
  260MOL    H2736805   3.746   5.887   4.293 -1.3625 -2.6578 -1.3140
  260MOL    H2836806   3.646   5.769   4.375 -0.6615  1.0320 -1.5982
  260MOL    H2936807   3.796   5.798   4.455 -0.7530  0.3618  0.9992
  260MOL    C3036808   3.579   6.131   4.377 -0.5549  0.4473  0.1399
  260MOL    C3136809   3.504   6.158   4.249 -0.8409  0.2740 -0.0713
  260MOL    O3236810   3.539   6.216   4.479 -0.6141 -0.3349  0.9785
  260MOL    H3336811   3.683   6.143   4.347 -0.7647  2.0213  0.0074
  260MOL    H3436812   3.400   6.126   4.264 -0.0278 -3.4041 -1.6644
  260MOL    H3536813   3.553   6.095   4.175 -0.1700 -0.5171  1.0138
  260MOL    H3636814   3.514   6.264   4.229  0.1165  0.4819  1.4109
  260MOL    C3736815   3.640   6.306   4.519 -0.5519  0.1286 -0.6603
  260MOL    C3836816   3.579   6.413   4.603 -0.4679 -0.7703  0.0401
  260MOL    O3936817   3.733   6.239   4.608  0.3749  0.3633  0.2487
  260MOL    H4036818   3.679   6.357   4.431  1.0088  1.1132  0.5875
  260MOL    H4136819   3.490   6.452   4.553  0.9254  0.5786 -1.4325
  260MOL    H4236820   3.660   6.485   4.616 -1.1972 -0.0253  0.5518
  260MOL    H4336821   3.559   6.359   4.696  0.0508  0.2456  0.7665
  260MOL    C4436822   3.863   6.292   4.593  0.2434 -0.7149 -0.8270
  260MOL    C4536823   3.950   6.218   4.693  0.1816  0.2790 -1.0242
  260MOL    O4636824   3.917   6.259   4.467  0.7184  0.0988 -0.2267
  260MOL    H4736825   3.870   6.396   4.625 -2.6260 -1.0662  1.1813
  260MOL    H4836826   4.028   6.289   4.724  0.3123  0.0399 -0.8056
  260MOL    H4936827   3.988   6.123   4.656 -0.4227 -1.0756  1.7660
  260MOL    H5036828   3.876   6.199   4.770 -1.3602  0.7667 -2.3692
  260MOL    C5136829   3.981   6.363   4.412  0.8312 -1.1313 -0.0761
  260MOL    C5236830   4.041   6.315   4.283 -0.0952  0.2467 -0.5662
  260MOL    O5336831   3.888   6.462   4.378  0.0659  0.5904 -0.3266
  260MOL    H5436832   4.061   6.404   4.473  0.0162 -1.6363  1.3664
  260MOL    H5536833   3.964   6.290   4.210 -2.0465  2.1301  0.8123
  260MOL    H5636834   4.099   6.225   4.304  0.3552  0.6603 -0.0382
  260MOL    H5736835   4.103   6.398   4.250 -1.5364  1.3285 -0.5899
  260MOL    C5836836   3.938   6.590   4.373  0.7153 -0.1239 -0.0202
  260MOL    C5936837   3.824   6.671   4.321 -0.4816  0.1679  0.0196
  260MOL    O6036838   3.946   6.626   4.511 -0.5679 -0.1021 -0.4354
  260MOL    H6136839   4.030   6.593   4.315  0.8806  0.1402  0.2526
  260MOL    H6236840   3.729   6.658   4.373  0.0812 -1.9027  0.5735
  260MOL    H6336841   3.805   6.652   4.215 -0.9330  1.1716 -0.0842
  260MOL    H6436842   3.852   6.775   4.336  1.8055 -0.5928  1.2221
  260MOL    C6536843   4.052   6.715   4.535  0.8806  0.7651  0.3403
  260MOL    C6636844   4.036   6.782   4.676  0.0480 -0.3193 -0.0669
  260MOL    O6736845   4.174   6.642   4.542 -0.0444  0.1894  0.4625
  260MOL    H6836846   4.054   6.789   4.455  0.4168 -0.6710 -1.0302
  260MOL    H6936847   4.135   6.821   4.703  0.4296 -0.6198 -0.9982
  260MOL    H7036848   4.011   6.709   4.753  1.5566 -0.8197 -0.0280
  260MOL    H7136849   3.955   6.853   4.662 -1.3705 -1.9594 -0.2581
  260MOL    C7236850   4.284   6.709   4.481 -0.3265  0.3552 -0.2634
  260MOL    C7336851   4.398   6.655   4.561 -0.0164 -0.1275 -0.5363
  260MOL    O7436852   4.300   6.666   4.348  0.4172  1.0068  0.3068
  260MOL    H7536853   4.284   6.816   4.504 -2.5702  0.3547 -0.1137
  260MOL    H7636854   4.419   6.551   4.538  0.4208 -0.2476  0.3672
  260MOL    H7736855   4.397   6.662   4.670  0.4123 -2.9836 -0.2993
  260MOL    H7836856   4.486   6.718   4.546  0.2632  0.3479  2.6425
  260MOL    C7936857   4.295   6.774   4.265  0.0127  0.0874  0.4667
  260MOL    C8036858   4.297   6.713   4.122 -0.1323  0.2395  0.2930
  260MOL    O8136859   4.169   6.835   4.270 -0.2485 -0.2946 -0.1052
  260MOL    H8236860   4.383   6.839   4.276 -0.2684  0.4662  0.5028
  260MOL    H8336861   4.274   6.786   4.045  2.6014  1.0967  0.2398
  260MOL    H8436862   4.225   6.631   4.123  1.2863 -1.1246 -2.9739
  260MOL    H8536863   4.390   6.661   4.098  0.2319 -0.4598  3.0395
  260MOL    C8636864   4.180   6.972   4.276  0.1017  0.3456 -0.1140
  260MOL    C8736865   4.038   7.016   4.233  0.2881 -0.1459 -0.2318
  260MOL    O8836866   4.203   7.015   4.407  0.1847  0.2260 -0.3749
  260MOL    H8936867   4.251   7.009   4.202 -0.5485  1.0501 -0.3936
  260MOL    H9036868   3.962   6.950   4.274 -0.2805  0.5715 -0.1219
  260MOL    H9136869   4.028   7.003   4.125 -2.1098 -1.9058  0.1629
  260MOL    H9236870   4.013   7.121   4.249  1.0671  0.0244 -0.1182
  260MOL    C9336871   4.306   7.106   4.420 -0.2724 -0.0318  0.4882
  260MOL    C9436872   4.290   7.165   4.562 -0.1071 -0.2473  0.3040
  260MOL    O9536873   4.427   7.034   4.404  0.4082 -0.2760 -0.4046
  260MOL    H9636874   4.290   7.188   4.350 -0.2589 -2.1844 -2.1097
  260MOL    H9736875   4.339   7.097   4.631 -0.3264  0.3116  1.0152
  260MOL    H9836876   4.186   7.168   4.595 -0.1498  1.8955  0.0319
  260MOL    H9936877   4.334   7.264   4.570 -2.5996  0.9087  0.1075
  260MOL   C10036878   4.532   7.094   4.336 -0.0841 -1.0230 -0.0350
  260MOL   C10136879   4.664   7.047   4.397 -0.1301  0.2772 -0.3075
  260MOL   O10236880   4.534   7.050   4.208  0.0298  0.5266  0.6115
  260MOL   H10336881   4.525   7.200   4.360  2.2817 -0.5783 -1.1791
  260MOL   H10436882   4.662   6.938   4.393  0.7005  0.2651 -0.6146
  260MOL   H10536883   4.664   7.088   4.498 -1.0473  0.7149 -0.4756
  260MOL   H10636884   4.748   7.080   4.337  0.2316 -0.0381  0.0192
  260MOL   C10736885   4.509   7.147   4.115 -0.2332  0.0024 -0.4773
  260MOL   C10836886   4.518   7.076   3.977 -0.3964 -0.1219  0.1438
  260MOL   O10936887   4.382   7.194   4.116 -0.3607 -1.1899 -0.0196
  260MOL   H11036888   4.590   7.220   4.116 -0.7985  0.6655  2.3652
  260MOL   H11136889   4.493   7.140   3.893  0.8022 -0.5339 -0.5452
  260MOL   H11236890   4.456   6.987   3.967 -0.1464 -0.3051  0.1951
  260MOL   H11336891   4.623   7.047   3.974  0.0542  1.6543 -5.3664
  260MOL   C11436892   4.371   7.330   4.123  0.2042 -0.4316 -0.2616
  260MOL   C11536893   4.225   7.357   4.091 -0.9588  0.5460  0.0634
  260MOL   O11636894   4.399   7.384   4.247  0.5182  0.3006 -0.6969
  260MOL   H11736895   4.422   7.388   4.046 -0.1837  0.2366 -0.0189
  260MOL   H11836896   4.189   7.457   4.113  1.0521  1.6695 -1.6493
  260MOL   H11936897   4.173   7.288   4.158 -0.8753 -0.3652 -0.7950
  260MOL   H12036898   4.200   7.327   3.989  2.8189 -0.2870 -0.7079
  260MOL   C12136899   4.507   7.478   4.253  0.7592 -0.2385 -0.0108
  260MOL   C12236900   4.473   7.575   4.368 -0.2049 -0.0544 -0.0792
  260MOL   O12336901   4.629   7.415   4.279 -0.0866 -0.5436 -0.2417
  260MOL   H12436902   4.502   7.535   4.161 -0.7744 -0.2573  0.0496
  260MOL   H12536903   4.540   7.661   4.379 -1.5776  1.1178 -0.6627
  260MOL   H12636904   4.474   7.527   4.465 -1.2601  1.2926  0.6220
  260MOL   H12736905   4.374   7.620   4.354 -1.0247 -1.5088  0.8893
  260MOL   C12836906   4.737   7.461   4.205 -0.4976 -0.2019 -0.0012
  260MOL   C12936907   4.867   7.430   4.279 -0.0185  1.1249 -0.2275
  260MOL   O13036908   4.742   7.398   4.082  0.8297  0.1606 -0.3151
  260MOL   H13136909   4.726   7.569   4.193 -0.3264  0.0681  1.9723
  260MOL   H13236910   4.886   7.323   4.288  1.3328  1.5124  2.0382
  260MOL   H13336911   4.841   7.457   4.382 -5.7670 -0.5099 -1.1150
  260MOL   H13436912   4.960   7.477   4.246  0.6741 -0.0898 -0.0167
  260MOL   C13536913   4.818   7.462   3.985 -0.0856  1.0256  0.1294
  260MOL   C13636914   4.828   7.369   3.862  0.5730 -0.2061  0.6846
  260MOL   O13736915   4.754   7.576   3.945  0.1447  0.3065  0.0781
  260MOL   H13836916   4.918   7.488   4.018 -0.0385 -0.9724  1.6743
  260MOL   H13936917   4.906   7.409   3.796  0.6552 -0.4498  0.6338
  260MOL   H14036918   4.730   7.351   3.818  0.9793  1.4218 -0.9584
  260MOL   H14136919   4.858   7.272   3.901  1.5067 -0.4192 -0.5234
  260MOL   H14236920   4.685   7.552   3.884 -0.4818  1.1828  0.4367
  261MOL     C136921   2.093   4.673   5.130  0.4354 -0.6038 -0.5959
  261MOL     C236922   2.015   4.649   5.002  0.2778 -0.0208 -0.0525
  261MOL     O336923   2.011   4.747   5.222 -0.1556 -0.1488 -0.0549
  261MOL     H436924   2.194   4.710   5.113  0.2635 -0.3745 -1.1046
  261MOL     H536925   2.000   4.741   4.945 -0.4391 -2.0601 -3.3196
  261MOL     H636926   1.919   4.606   5.029  0.5361 -1.4150 -1.2938
  261MOL     H736927   2.067   4.577   4.939 -0.7461 -0.7497 -0.0734
  261MOL     H836928   2.116   4.574   5.170  1.3958 -0.5697 -1.0550
  261MOL     C936929   2.074   4.765   5.344 -0.2927  0.0928 -0.5882
  261MOL    C1036930   1.995   4.862   5.435 -0.3617 -0.2530 -0.0615
  261MOL    O1136931   2.073   4.641   5.408 -0.3319  0.2855  0.2476
  261MOL    H1236932   2.172   4.807   5.323 -0.5068  1.0774  0.3341
  261MOL    H1336933   1.905   4.813   5.473 -0.2400 -1.6472 -1.5144
  261MOL    H1436934   1.969   4.957   5.389 -1.2931  0.7771  2.5128
  261MOL    H1536935   2.056   4.896   5.519 -1.6276 -1.4694  1.3919
  261MOL    C1636936   2.175   4.631   5.504  0.5575  0.1657  0.5338
  261MOL    C1736937   2.125   4.510   5.576 -0.3403 -0.0961 -0.1853
  261MOL    O1836938   2.302   4.618   5.444 -0.1022  0.0905 -0.0351
  261MOL    H1936939   2.183   4.723   5.562  3.7758 -0.0538  0.4996
  261MOL    H2036940   2.177   4.494   5.671  2.5652 -0.9201 -1.8756
  261MOL    H2136941   2.126   4.415   5.522  0.6996  0.5299 -1.2739
  261MOL    H2236942   2.019   4.519   5.602 -0.3287  0.3443 -0.2971
  261MOL    C2336943   2.412   4.638   5.533  1.0923 -0.0174 -0.5421
  261MOL    C2436944   2.542   4.616   5.453 -0.0318  0.3119  0.1941
  261MOL    O2536945   2.405   4.769   5.590  0.2552 -0.2810  0.4613
  261MOL    H2636946   2.393   4.564   5.611 -1.6693  0.5405 -0.6524
  261MOL    H2736947   2.549   4.690   5.373 -1.6934  0.1796 -0.0901
  261MOL    H2836948   2.553   4.522   5.400  2.1676 -0.7494  2.4055
  261MOL    H2936949   2.627   4.617   5.522 -1.4969 -3.0052  2.1742
  261MOL    C3036950   2.458   4.773   5.719 -0.2472 -0.2582  0.2166
  261MOL    C3136951   2.479   4.923   5.745 -0.6652 -0.1821 -0.0188
  261MOL    O3236952   2.378   4.719   5.820  0.7780  0.2583 -0.3092
  261MOL    H3336953   2.554   4.722   5.725 -0.3026 -0.4761 -0.6635
  261MOL    H3436954   2.536   4.970   5.665  0.4911  0.2249  1.0335
  261MOL    H3536955   2.529   4.929   5.842  0.5831  0.8652 -0.7091
  261MOL    H3636956   2.385   4.978   5.745  1.9402  4.5979 -0.4706
  261MOL    C3736957   2.434   4.620   5.905 -0.0893  0.3152 -0.9951
  261MOL    C3836958   2.341   4.597   6.025  0.0875  0.0486 -0.0487
  261MOL    O3936959   2.433   4.497   5.835 -0.1823  0.2992 -0.3711
  261MOL    H4036960   2.535   4.644   5.937 -0.4673  0.3067  0.2325
  261MOL    H4136961   2.356   4.679   6.095 -0.9750 -1.4173  1.9623
  261MOL    H4236962   2.365   4.504   6.078 -1.5350 -0.1069  0.4501
  261MOL    H4336963   2.237   4.594   5.992 -0.2951  0.5836  1.0466
  261MOL    C4436964   2.557   4.432   5.827 -0.1335  0.0460  0.7297
  261MOL    C4536965   2.533   4.314   5.725 -0.0404  0.2818  0.4236
  261MOL    O4636966   2.652   4.509   5.761  0.0003 -0.6016 -0.3356
  261MOL    H4736967   2.586   4.389   5.923 -2.3464 -1.5331  0.7260
  261MOL    H4836968   2.500   4.346   5.626  0.9608 -1.4440 -0.4763
  261MOL    H4936969   2.460   4.240   5.759 -0.9107  0.5208 -0.8717
  261MOL    H5036970   2.627   4.259   5.718 -1.8864 -3.1597  1.3064
  261MOL    C5136971   2.778   4.499   5.819 -0.1186 -0.4286  0.2153
  261MOL    C5236972   2.872   4.594   5.726 -0.1803 -0.0776 -0.5630
  261MOL    O5336973   2.789   4.554   5.948 -0.4841 -0.3155  0.2521
  261MOL    H5436974   2.808   4.394   5.812 -3.1313 -1.3618  0.4665
  261MOL    H5536975   2.964   4.604   5.783  1.8519  0.4960 -3.8320
  261MOL    H5636976   2.820   4.688   5.706 -1.8759 -0.2096  2.8253
  261MOL    H5736977   2.900   4.549   5.631  0.0992 -0.6112 -0.2305
  261MOL    C5836978   2.847   4.470   6.040  0.8969  0.0658 -0.3807
  261MOL    C5936979   2.883   4.565   6.156 -0.1690 -0.1540  0.6327
  261MOL    O6036980   2.771   4.362   6.091  0.0109  0.1574 -0.4147
  261MOL    H6136981   2.940   4.430   6.000  0.3510 -0.2348 -1.3910
  261MOL    H6236982   2.786   4.605   6.186 -0.0848 -0.3981  1.2367
  261MOL    H6336983   2.950   4.643   6.120 -0.2197 -1.0409 -1.4922
  261MOL    H6436984   2.932   4.505   6.233 -1.5399  0.0066  1.6511
  261MOL    C6536985   2.824   4.238   6.059 -0.2723 -0.1499 -0.2120
  261MOL    C6636986   2.750   4.140   6.147  0.6194 -0.6423 -0.2515
  261MOL    O6736987   2.808   4.204   5.931  0.4241  0.6691 -0.4234
  261MOL    H6836988   2.930   4.236   6.086 -0.2593  0.0516 -0.2486
  261MOL    H6936989   2.800   4.044   6.149  2.4537  0.2982  3.6671
  261MOL    H7036990   2.646   4.128   6.116  0.5588  0.1787 -0.3784
  261MOL    H7136991   2.757   4.177   6.250 -0.5858  1.2643 -0.8233
  261MOL    C7236992   2.916   4.143   5.878 -0.0751 -0.4830 -0.2000
  261MOL    C7336993   2.882   4.083   5.736  0.2930 -0.2498 -0.3360
  261MOL    O7436994   3.018   4.242   5.861  0.1152  0.5543 -0.6708
  261MOL    H7536995   2.935   4.062   5.949  0.4978  1.3721  1.8371
  261MOL    H7636996   2.809   4.004   5.751  0.2553 -0.1959 -0.2320
  261MOL    H7736997   2.972   4.038   5.693  0.7099  0.2116  0.0388
  261MOL    H7836998   2.844   4.161   5.669 -3.0642 -1.2782  0.3116
  261MOL    C7936999   3.146   4.189   5.861  0.7164  0.1619  0.4775
  261MOL    C8037000   3.247   4.307   5.856  0.7804 -0.2354 -0.2150
  261MOL    O8137001   3.169   4.126   5.982  0.0144  0.6538 -0.4264
  261MOL    H8237002   3.155   4.123   5.774  5.0978 -2.1585  2.5380
  261MOL    H8337003   3.223   4.384   5.782  1.3915  1.7180  1.5750
  261MOL    H8437004   3.339   4.257   5.828 -0.3748 -1.6501 -1.6021
  261MOL    H8537005   3.259   4.352   5.954  0.1872 -2.3368  0.8387
  261MOL    C8637006   3.244   4.012   5.966 -0.5667  0.4051  0.0646
  261MOL    C8737007   3.260   3.955   6.112 -0.2119  0.1927  0.0934
  261MOL    O8837008   3.169   3.919   5.894  0.0884 -0.3275 -0.5568
  261MOL    H8937009   3.347   4.038   5.940 -0.3722  3.4898  3.5684
  261MOL    H9037010   3.316   3.861   6.114 -1.6034 -0.7274 -1.9624
  261MOL    H9137011   3.160   3.944   6.154 -1.5883 -0.7880 -3.3048
  261MOL    H9237012   3.320   4.018   6.178  0.0819 -1.7006  1.6642
  261MOL    C9337013   3.252   3.832   5.828 -0.0809  0.0566  0.4388
  261MOL    C9437014   3.164   3.709   5.807 -0.0420  0.4164  0.0390
  261MOL    O9537015   3.270   3.878   5.696 -0.0120  0.2135  0.1914
  261MOL    H9637016   3.339   3.801   5.884  1.2810  0.7354 -1.2579
  261MOL    H9737017   3.139   3.660   5.901  1.9220  0.7549  0.7797
  261MOL    H9837018   3.213   3.641   5.738 -0.6947  0.1692 -0.1784
  261MOL    H9937019   3.076   3.737   5.750 -0.0977 -1.0007 -0.5868
  261MOL   C10037020   3.402   3.900   5.660  0.8949  0.3782 -0.0314
  261MOL   C10137021   3.410   3.922   5.508  0.5430 -0.2977  0.0386
  261MOL   O10237022   3.449   4.018   5.729 -0.2392 -0.1880 -0.4023
  261MOL   H10337023   3.465   3.819   5.698  1.1317 -0.4078 -2.0231
  261MOL   H10437024   3.514   3.904   5.479  1.0160  1.3793  0.6456
  261MOL   H10537025   3.386   4.023   5.475 -2.1970 -1.2463 -1.0076
  261MOL   H10637026   3.348   3.849   5.457  0.6793 -1.3622  1.3967
  261MOL   C10737027   3.583   4.025   5.745  0.4464 -0.1195 -1.0759
  261MOL   C10837028   3.614   4.170   5.771  0.3350 -0.7193 -0.5762
  261MOL   O10937029   3.628   3.951   5.854 -0.2565  0.0297  0.0809
  261MOL   H11037030   3.619   4.004   5.644  0.9400  0.3045 -0.9875
  261MOL   H11137031   3.574   4.200   5.869  0.6804  0.3514 -0.7518
  261MOL   H11237032   3.576   4.241   5.697 -1.1248 -2.7622 -1.8098
  261MOL   H11337033   3.722   4.165   5.774  0.5194  1.6777 -1.7384
  261MOL   C11437034   3.735   3.862   5.835  0.1649 -0.4468 -0.1808
  261MOL   C11537035   3.753   3.788   5.963 -0.3239 -0.0939  0.1743
  261MOL   O11637036   3.706   3.770   5.733 -0.0584 -0.1880  1.1483
  261MOL   H11737037   3.821   3.923   5.808 -0.2744  0.8208  1.2631
  261MOL   H11837038   3.837   3.718   5.958  1.8831  2.6166 -1.7195
  261MOL   H11937039   3.656   3.746   5.989 -0.1535 -0.3446  0.4191
  261MOL   H12037040   3.770   3.860   6.043 -0.6206 -1.8159  1.8456
  261MOL   C12137041   3.820   3.750   5.647 -0.1339 -0.3115 -0.5522
  261MOL   C12237042   3.776   3.656   5.543 -0.4308  0.2384  0.1424
  261MOL   O12337043   3.862   3.862   5.580  0.0499  0.6664  0.1603
  261MOL   H12437044   3.901   3.698   5.698 -0.3043 -1.8210 -1.7826
  261MOL   H12537045   3.749   3.560   5.587 -2.0138 -1.6179 -4.5822
  261MOL   H12637046   3.852   3.641   5.467  0.6966 -0.3880  1.3595
  261MOL   H12737047   3.689   3.702   5.496  0.4816 -1.1836 -3.0353
  261MOL   C12837048   3.999   3.870   5.588  0.3519  0.0377 -0.1079
  261MOL   C12937049   4.040   3.975   5.488  0.2907 -0.2461 -0.0363
  261MOL   O13037050   4.042   3.909   5.713  0.5727 -0.3148  0.6071
  261MOL   H13137051   4.043   3.776   5.554 -1.4280 -0.4177 -1.2053
  261MOL   H13237052   4.006   4.072   5.524  2.4732  0.3564  0.5059
  261MOL   H13337053   3.992   3.948   5.394  1.1798 -0.9761 -0.2857
  261MOL   H13437054   4.149   3.987   5.489  0.3907 -0.9915 -1.4067
  261MOL   C13537055   4.154   3.847   5.761 -0.4050  0.2217 -0.9512
  261MOL   C13637056   4.190   3.929   5.888 -0.9821 -0.0005 -0.2883
  261MOL   O13737057   4.113   3.718   5.801 -0.1288 -0.0991 -0.1576
  261MOL   H13837058   4.234   3.851   5.687  0.9485 -3.0973  0.2433
  261MOL   H13937059   4.264   3.877   5.949 -0.5951 -0.6426 -1.2868
  261MOL   H14037060   4.106   3.944   5.955 -0.6616  1.5945 -0.2323
  261MOL   H14137061   4.226   4.028   5.859  1.2234 -1.1618 -1.6814
  261MOL   H14237062   4.177   3.684   5.863 -1.6781 -0.4967  1.2527
  262MOL     C137063   2.925   2.273   7.039  0.6538  0.5682 -0.4138
  262MOL     C237064   2.818   2.384   7.055 -0.6858  0.6667  0.3309
  262MOL     O337065   2.988   2.251   7.171  0.3332  0.1930  0.4192
  262MOL     H437066   3.001   2.304   6.967  0.2262  1.5723 -0.4419
  262MOL     H537067   2.717   2.355   7.084 -1.3379  0.8922 -1.6401
  262MOL     H637068   2.810   2.422   6.953  0.6165 -1.9825 -0.7900
  262MOL     H737069   2.848   2.464   7.124 -0.6929 -0.1025  1.2372
  262MOL     H837070   2.874   2.184   7.003 -0.6174 -0.2130  3.1219
  262MOL     C937071   3.075   2.153   7.172  0.4012  0.3626 -0.4125
  262MOL    C1037072   3.219   2.211   7.190  0.5111  0.1743 -0.1195
  262MOL    O1137073   3.051   2.062   7.277  0.0521  0.2491 -0.3183
  262MOL    H1237074   3.083   2.090   7.083  1.0095  0.0538 -0.1432
  262MOL    H1337075   3.249   2.250   7.092  1.5128 -0.9247 -0.2613
  262MOL    H1437076   3.288   2.134   7.222  0.5213  0.7617  1.2984
  262MOL    H1537077   3.223   2.294   7.260  0.1752  0.2629 -0.2038
  262MOL    C1637078   2.927   2.000   7.275  0.0527  0.0236  0.1638
  262MOL    C1737079   2.959   1.862   7.239  0.4140  0.0884 -0.2090
  262MOL    O1837080   2.873   2.009   7.399  0.7748  0.0282  0.4018
  262MOL    H1937081   2.854   2.037   7.203  1.1519  0.0626 -0.9586
  262MOL    H2037082   2.878   1.793   7.265 -0.0982  0.4951 -0.7102
  262MOL    H2137083   3.045   1.821   7.293 -2.0464 -2.7230  1.7279
  262MOL    H2237084   2.978   1.852   7.132  1.7471  0.0517  0.0284
  262MOL    C2337085   2.791   2.118   7.420 -0.7838  0.3554  0.0621
  262MOL    C2437086   2.646   2.069   7.446  0.7399 -0.1662 -0.8601
  262MOL    O2537087   2.824   2.193   7.533  0.0460  0.6220  0.0014
  262MOL    H2637088   2.790   2.181   7.332 -0.1948 -1.4375 -1.2733
  262MOL    H2737089   2.626   2.003   7.362 -1.1116 -2.1493  1.0846
  262MOL    H2837090   2.577   2.153   7.455  1.1317  0.2613 -1.8221
  262MOL    H2937091   2.636   2.004   7.533  0.8738  1.1156  0.1463
  262MOL    C3037092   2.951   2.251   7.525  0.3965  0.1878 -0.3519
  262MOL    C3137093   2.930   2.400   7.544  0.5451 -0.4027 -0.1339
  262MOL    O3237094   3.037   2.220   7.634 -0.7114  0.2289  0.0148
  262MOL    H3337095   3.007   2.246   7.432  1.5694 -0.8784  0.3935
  262MOL    H3437096   2.859   2.426   7.466  0.1102 -2.7999 -0.5514
  262MOL    H3537097   3.019   2.463   7.539  0.1092  0.1332 -1.4664
  262MOL    H3637098   2.871   2.415   7.634  0.2884 -0.2784 -0.3236
  262MOL    C3737099   3.112   2.108   7.624  0.8099  0.7763  0.1074
  262MOL    C3837100   3.249   2.146   7.591  0.4122  0.5666 -0.1815
  262MOL    O3937101   3.119   2.034   7.740  0.1798 -0.3194 -0.7065
  262MOL    H4037102   3.072   2.039   7.550  1.4282  1.3302 -0.7557
  262MOL    H4137103   3.277   2.219   7.667  0.2522  1.9574 -1.4285
  262MOL    H4237104   3.256   2.200   7.497  1.2058  2.2687  0.8360
  262MOL    H4337105   3.312   2.056   7.594  1.9408  1.6276  0.4543
  262MOL    C4437106   3.005   1.961   7.771 -0.5252  1.1577 -0.0976
  262MOL    C4537107   3.045   1.813   7.768 -0.4744  0.1779 -0.1281
  262MOL    O4637108   2.956   1.988   7.897  0.3589  0.3397 -0.3779
  262MOL    H4737109   2.922   1.983   7.704 -2.0649 -0.0944  1.3429
  262MOL    H4837110   3.116   1.794   7.849 -0.8155 -0.1795  0.0915
  262MOL    H4937111   3.098   1.792   7.675  1.9464  0.7453  1.0939
  262MOL    H5037112   2.956   1.752   7.784  0.9897 -1.8655  0.6518
  262MOL    C5137113   2.942   2.125   0.009  0.4007  0.2250 -0.3972
  262MOL    C5237114   2.791   2.153   0.026 -0.0812 -0.1864  0.4086
  262MOL    O5337115   3.012   2.153   0.134 -0.3730 -0.0834 -0.0975
  262MOL    H5437116   2.987   2.196   7.854 -0.7903  0.7122 -0.6773
  262MOL    H5537117   2.789   2.262   0.034  0.8546  0.0996 -2.5348
  262MOL    H5637118   2.753   2.103   0.115 -0.0947 -0.1094  0.4464
  262MOL    H5737119   2.742   2.114   7.851 -1.4250  0.6009  0.7908
  262MOL    C5837120   3.145   2.112   0.136  0.2172 -0.1880 -0.5863
  262MOL    C5937121   3.231   2.225   0.072 -0.4055  0.2024  0.2580
  262MOL    O6037122   3.196   2.097   0.266  0.1552  0.2628  0.9856
  262MOL    H6137123   3.159   2.014   0.088 -2.6286 -0.6520 -0.5471
  262MOL    H6237124   3.218   2.320   0.125  0.8144 -0.3739  1.6384
  262MOL    H6337125   3.198   2.232   7.882 -0.2788  2.1989  0.3286
  262MOL    H6437126   3.338   2.207   0.060 -0.2552 -0.0201  1.8570
  262MOL    C6537127   3.143   1.982   0.327  0.2020  0.0527 -0.8775
  262MOL    C6637128   3.255   1.885   0.348 -0.0528 -0.4787  0.0150
  262MOL    O6737129   3.101   2.019   0.456 -0.0181 -0.3347  0.6463
  262MOL    H6837130   3.057   1.932   0.282 -0.5813 -0.5304  1.1988
  262MOL    H6937131   3.349   1.926   0.386 -0.9616  2.5535 -0.8753
  262MOL    H7037132   3.276   1.846   0.249  1.1231 -0.2450  0.1650
  262MOL    H7137133   3.228   1.799   0.409  1.7825  0.2328  1.9233
  262MOL    C7237134   2.970   2.073   0.462 -0.0765  0.1098  0.5994
  262MOL    C7337135   2.892   1.975   0.553  0.2807  0.1018 -0.2426
  262MOL    O7437136   2.974   2.186   0.535  0.0796 -0.1847  0.5270
  262MOL    H7537137   2.910   2.074   0.371  0.0477  1.1834  0.5154
  262MOL    H7637138   2.891   1.877   0.506 -1.6958 -0.3196  0.6283
  262MOL    H7737139   2.791   2.009   0.573 -0.0171  1.5165 -3.8864
  262MOL    H7837140   2.944   1.952   0.646  1.2279  0.1789 -0.7419
  262MOL    C7937141   3.033   2.293   0.462 -0.7054  0.4156 -0.6305
  262MOL    C8037142   2.919   2.374   0.396  0.1384  0.4398  0.3295
  262MOL    O8137143   3.102   2.383   0.549 -0.3534  0.4022 -0.2649
  262MOL    H8237144   3.095   2.248   0.385 -0.9735  0.9512 -1.1703
  262MOL    H8337145   2.865   2.312   0.325 -1.0367 -0.7460  2.2005
  262MOL    H8437146   2.955   2.457   0.336 -2.4281  1.2233 -0.2152
  262MOL    H8537147   2.842   2.406   0.467  0.1358 -2.5529  1.7546
  262MOL    C8637148   3.234   2.345   0.585 -0.1838 -0.3365 -0.1555
  262MOL    C8737149   3.343   2.373   0.484 -0.2583  0.2797  0.2285
  262MOL    O8837150   3.270   2.409   0.702 -0.5151  0.1707 -0.3781
  262MOL    H8937151   3.220   2.238   0.599  0.2040 -0.4035 -0.2775
  262MOL    H9037152   3.313   2.328   0.390  2.9558 -1.3713 -0.0926
  262MOL    H9137153   3.433   2.345   0.539 -0.8842  0.7950  1.5429
  262MOL    H9237154   3.353   2.481   0.475  4.3763 -0.1178 -0.9334
  262MOL    C9337155   3.234   2.340   0.816 -0.3422 -0.3711 -0.1566
  262MOL    C9437156   3.362   2.260   0.856  0.5661 -0.0229  0.3033
  262MOL    O9537157   3.210   2.423   0.923  0.2956  0.6914 -0.2251
  262MOL    H9637158   3.144   2.278   0.810 -1.1399  0.8911 -1.3801
  262MOL    H9737159   3.395   2.206   0.768  4.2735  0.1315  1.4980
  262MOL    H9837160   3.333   2.197   0.941 -0.6527 -1.7753 -1.3681
  262MOL    H9937161   3.441   2.331   0.881  0.4376 -0.2174  1.2854
  262MOL   C10037162   3.110   2.521   0.899 -0.2603 -0.5223  0.5897
  262MOL   C10137163   2.977   2.466   0.950 -0.0274  0.4858 -0.0376
  262MOL   O10237164   3.140   2.634   0.973  0.0962 -0.1244 -0.2943
  262MOL   H10337165   3.094   2.550   0.795 -0.8286  2.6624  1.5241
  262MOL   H10437166   2.897   2.538   0.930  0.2733  1.4339  1.9762
  262MOL   H10537167   2.979   2.446   1.057 -0.7915  0.7571  0.0306
  262MOL   H10637168   2.959   2.365   0.914 -0.3955 -0.2948  2.2349
  262MOL   C10737169   3.254   2.701   0.920 -0.1470 -0.7851 -0.0821
  262MOL   C10837170   3.209   2.815   0.826  0.1305 -0.4561 -0.0187
  262MOL   O10937171   3.320   2.754   1.031 -0.7531  0.0910  0.0786
  262MOL   H11037172   3.328   2.633   0.876 -1.3552 -1.6273 -0.8310
  262MOL   H11137173   3.153   2.762   0.749  0.9864  0.7342 -1.4774
  262MOL   H11237174   3.285   2.872   0.773 -2.3031  0.6070 -2.4513
  262MOL   H11337175   3.141   2.885   0.875  1.0149  0.9736 -0.8165
  262MOL   C11437176   3.394   2.658   1.104  0.6447 -0.4212  0.2300
  262MOL   C11537177   3.536   2.670   1.064 -0.1736 -0.5247  0.0945
  262MOL   O11637178   3.393   2.685   1.239  0.0883  0.2707  0.0050
  262MOL   H11737179   3.373   2.553   1.083  0.7966 -0.6067  0.9866
  262MOL   H11837180   3.547   2.678   0.956 -1.6177 -1.3425 -0.1333
  262MOL   H11937181   3.593   2.579   1.083 -1.8381 -2.2298 -2.7405
  262MOL   H12037182   3.588   2.752   1.113  0.6757 -1.3705  0.6311
  262MOL   C12137183   3.271   2.644   1.296 -0.1276  0.4558  0.0016
  262MOL   C12237184   3.288   2.503   1.365 -0.0915  0.0266  0.1937
  262MOL   O12337185   3.226   2.726   1.403 -0.8477  0.2436 -0.3392
  262MOL   H12437186   3.190   2.639   1.223 -0.2780  0.5632  0.1623
  262MOL   H12537187   3.372   2.499   1.434 -0.3462 -1.5084  0.4287
  262MOL   H12637188   3.297   2.429   1.286  2.5788  0.1230  0.3592
  262MOL   H12737189   3.200   2.474   1.423 -1.1541  0.2254 -1.2912
  262MOL   C12837190   3.185   2.851   1.354 -0.0529 -0.4950  0.4150
  262MOL   C12937191   3.033   2.861   1.377 -0.5314  0.7578  0.4440
  262MOL   O13037192   3.245   2.958   1.424 -0.0172  0.0129 -0.0383
  262MOL   H13137193   3.202   2.861   1.246  1.0421 -0.3761  0.5935
  262MOL   H13237194   3.016   2.969   1.367  0.3930  0.7478 -1.2385
  262MOL   H13337195   3.015   2.836   1.482  1.7248  2.4127  1.2731
  262MOL   H13437196   2.972   2.798   1.313 -1.1108  0.9290  0.8140
  262MOL   C13537197   3.380   2.976   1.402  0.0853  0.4388  0.0550
  262MOL   C13637198   3.394   3.059   1.280  1.0303 -0.1961  0.4053
  262MOL   O13737199   3.430   3.038   1.516  0.4512 -0.7977  0.1052
  262MOL   H13837200   3.434   2.881   1.399 -0.0045  0.4142 -0.8528
  262MOL   H13937201   3.325   3.144   1.285  0.4004 -0.6242 -0.7500
  262MOL   H14037202   3.384   2.998   1.190  1.0972  0.1095  0.1861
  262MOL   H14137203   3.497   3.088   1.262  1.3460 -1.7135 -0.3046
  262MOL   H14237204   3.426   2.975   1.587 -0.9407  0.9659  1.6573
  263MOL     C137205   3.621   1.385   7.488 -0.0735  0.7400 -0.2600
  263MOL     C237206   3.608   1.251   7.557  0.0769 -0.4499  0.2214
  263MOL     O337207   3.527   1.382   7.380  0.9926 -0.2661  0.1875
  263MOL     H437208   3.723   1.405   7.455 -0.0901 -1.2337 -1.5179
  263MOL     H537209   3.514   1.250   7.612  0.6580 -1.1526  1.2256
  263MOL     H637210   3.686   1.235   7.632  0.1110 -1.4488 -0.0204
  263MOL     H737211   3.595   1.159   7.500 -0.0701 -0.7070  0.6699
  263MOL     H837212   3.592   1.468   7.553  1.5727  2.1048 -1.2114
  263MOL     C937213   3.512   1.511   7.318  0.1197 -0.3955  0.3337
  263MOL    C1037214   3.518   1.485   7.168 -0.8419 -0.2735  0.6249
  263MOL    O1137215   3.391   1.569   7.339  0.5342  0.2847  0.4018
  263MOL    H1237216   3.597   1.572   7.350  0.4736 -0.6807 -0.0524
  263MOL    H1337217   3.506   1.583   7.121  1.2218 -0.0978  0.3907
  263MOL    H1437218   3.441   1.414   7.140 -0.1992  0.0532 -2.1661
  263MOL    H1537219   3.614   1.440   7.142 -0.3419  1.6815 -1.0830
  263MOL    C1637220   3.375   1.640   7.461 -0.6241  0.3112 -0.5566
  263MOL    C1737221   3.344   1.776   7.421  0.5108 -0.6208  0.0059
  263MOL    O1837222   3.266   1.590   7.537  0.5349  0.1424  0.4430
  263MOL    H1937223   3.466   1.647   7.520 -1.6524 -1.6267  1.2863
  263MOL    H2037224   3.247   1.778   7.370  0.5916  1.1175 -0.0876
  263MOL    H2137225   3.418   1.827   7.361  0.4277 -2.0725 -1.3737
  263MOL    H2237226   3.339   1.840   7.509  0.7422 -1.6968  0.8175
  263MOL    C2337227   3.288   1.470   7.599  0.2646 -0.0658  0.6165
  263MOL    C2437228   3.290   1.505   7.746  0.3459  0.0138 -0.2334
  263MOL    O2537229   3.184   1.379   7.578 -0.4713  0.0564  0.3990
  263MOL    H2637230   3.376   1.413   7.572  0.7338  1.5860 -1.4546
  263MOL    H2737231   3.352   1.594   7.750 -2.3955  2.0182 -0.9574
  263MOL    H2837232   3.330   1.428   7.811 -4.6004 -1.4435  1.3214
  263MOL    H2937233   3.190   1.530   7.781  0.0780 -1.2197 -0.0751
  263MOL    C3037234   3.179   1.334   7.442 -0.0974 -0.4261 -0.8117
  263MOL    C3137235   3.218   1.187   7.439 -0.2832  0.2320 -0.3709
  263MOL    O3237236   3.053   1.341   7.391  0.3295  0.2170 -0.2524
  263MOL    H3337237   3.252   1.382   7.376  0.8049  0.9188  1.1254
  263MOL    H3437238   3.216   1.149   7.337 -0.4987 -1.5538  0.2776
  263MOL    H3537239   3.139   1.134   7.491  0.2862 -0.5539 -0.2930
  263MOL    H3637240   3.319   1.161   7.470 -0.7425  0.6565  1.5600
  263MOL    C3737241   3.015   1.471   7.344 -0.5195  0.0124  0.1971
  263MOL    C3837242   3.027   1.471   7.195 -0.6651  0.0684  0.6435
  263MOL    O3937243   2.883   1.506   7.372 -0.8307  0.3900  0.3996
  263MOL    H4037244   3.082   1.550   7.379  0.3058 -1.1576  1.3187
  263MOL    H4137245   2.994   1.385   7.136  0.9496 -0.2555  0.1558
  263MOL    H4237246   3.131   1.462   7.161 -0.8516 -2.4373  0.6389
  263MOL    H4337247   2.992   1.564   7.152 -0.4529  0.5849  1.5901
  263MOL    C4437248   2.878   1.552   7.510  0.4969  0.8718  0.0379
  263MOL    C4537249   2.822   1.696   7.507 -0.7552 -0.4983 -0.8527
  263MOL    O4637250   2.773   1.477   7.579 -0.2474 -0.6574  0.3957
  263MOL    H4737251   2.972   1.541   7.564  0.2865 -1.9710 -0.0862
  263MOL    H4837252   2.900   1.767   7.479  1.0022 -1.6206  1.0855
  263MOL    H4937253   2.797   1.734   7.606 -0.0764 -0.0666 -0.8374
  263MOL    H5037254   2.741   1.710   7.436  2.3823 -0.9265 -4.6549
  263MOL    C5137255   2.821   1.360   7.639 -0.9672 -0.3529 -1.1698
  263MOL    C5237256   2.837   1.387   7.788 -0.3600 -0.0005 -0.7387
  263MOL    O5337257   2.725   1.262   7.622 -0.3808  0.8029 -0.3067
  263MOL    H5437258   2.916   1.327   7.597 -0.6249 -0.4836 -0.3155
  263MOL    H5537259   2.739   1.386   7.834 -0.2179  1.2154 -0.3964
  263MOL    H5637260   2.886   1.482   7.809  0.5131 -0.9271  1.6541
  263MOL    H5737261   2.891   1.302   7.831  2.0701  1.8018 -0.0896
  263MOL    C5837262   2.702   1.238   7.485  0.6206 -0.0338 -0.0176
  263MOL    C5937263   2.771   1.105   7.459 -0.0506  0.1354 -0.3062
  263MOL    O6037264   2.567   1.222   7.468  0.4765  0.2240 -0.4680
  263MOL    H6137265   2.746   1.304   7.411 -0.1836 -0.6913 -1.0818
  263MOL    H6237266   2.730   1.036   7.532 -0.2289  1.3569  0.7521
  263MOL    H6337267   2.875   1.128   7.478  0.0828  0.4936 -1.4098
  263MOL    H6437268   2.751   1.073   7.356  1.7812  0.4135 -0.7661
  263MOL    C6537269   2.517   1.345   7.419  0.2206 -0.1396 -0.0220
  263MOL    C6637270   2.492   1.337   7.267 -0.3390  0.6474 -0.0272
  263MOL    O6737271   2.386   1.368   7.476 -0.4120  0.0753 -0.3060
  263MOL    H6837272   2.580   1.430   7.446  0.1713  0.9296 -3.0664
  263MOL    H6937273   2.421   1.417   7.245 -2.3733 -0.9947  0.3845
  263MOL    H7037274   2.441   1.244   7.241 -1.3056  1.5531 -1.4600
  263MOL    H7137275   2.585   1.348   7.210  1.1583 -2.8333  1.5689
  263MOL    C7237276   2.373   1.360   7.612  0.1303 -0.5371 -0.2277
  263MOL    C7337277   2.323   1.486   7.662 -0.0128 -0.3348  0.6183
  263MOL    O7437278   2.268   1.274   7.651 -0.0509  0.4788 -0.3295
  263MOL    H7537279   2.460   1.318   7.662 -0.7070  1.9501  3.5205
  263MOL    H7637280   2.239   1.529   7.607 -1.7648 -0.9796  2.7295
  263MOL    H7737281   2.401   1.560   7.684 -0.7289  0.6840 -0.2046
  263MOL    H7837282   2.278   1.468   7.760  0.7472 -4.7696  0.2224
  263MOL    C7937283   2.295   1.139   7.643 -0.0802  0.4765 -0.0407
  263MOL    C8037284   2.277   1.078   7.784  0.6990  0.4807  0.0651
  263MOL    O8137285   2.193   1.065   7.574 -0.1361 -0.3518 -0.0709
  263MOL    H8237286   2.392   1.104   7.607 -0.4098 -0.7269  0.1982
  263MOL    H8337287   2.339   1.141   7.848 -0.2412 -0.0790  1.5395
  263MOL    H8437288   2.320   0.978   7.782 -1.6066 -0.5231 -2.3286
  263MOL    H8537289   2.174   1.082   7.820  0.7952 -0.0458  0.4052
  263MOL    C8637290   2.177   1.094   7.438  0.9193  0.7137 -0.2620
  263MOL    C8737291   2.196   0.962   7.369 -0.3411  0.1353 -0.8982
  263MOL    O8837292   2.050   1.138   7.401  0.4657 -0.4602 -0.3542
  263MOL    H8937293   2.246   1.170   7.402  1.0785  0.4510 -0.5136
  263MOL    H9037294   2.123   0.895   7.413 -3.2803  2.0207 -2.7048
  263MOL    H9137295   2.297   0.924   7.386 -0.4456 -1.0257 -2.7629
  263MOL    H9237296   2.180   0.976   7.262  0.9983 -0.5289 -1.2025
  263MOL    C9337297   2.008   1.267   7.445  0.0185  0.6142 -0.5815
  263MOL    C9437298   2.000   1.353   7.320  0.9255  0.2679 -0.2787
  263MOL    O9537299   1.883   1.252   7.497  0.1840 -0.4048  0.2438
  263MOL    H9637300   2.073   1.318   7.515 -1.5156  0.2810  1.1130
  263MOL    H9737301   1.959   1.447   7.355  2.1676  0.7966 -0.2318
  263MOL    H9837302   1.935   1.304   7.247  0.4634  0.5773 -0.0725
  263MOL    H9937303   2.097   1.373   7.273  0.9190  1.4824  0.2250
  263MOL   C10037304   1.884   1.204   7.631 -0.8185 -0.4316 -0.2598
  263MOL   C10137305   1.833   1.316   7.720 -0.8449  0.2517  0.4163
  263MOL   O10237306   1.789   1.098   7.656 -0.0198  0.2629  0.4055
  263MOL   H10337307   1.982   1.165   7.661 -2.2879 -2.8114  1.6463
  263MOL   H10437308   1.803   1.269   7.814  0.2104 -1.3524 -0.0204
  263MOL   H10537309   1.743   1.353   7.670 -0.7150  0.8956  0.6665
  263MOL   H10637310   1.918   1.384   7.719 -0.5057 -0.1274  2.0519
  263MOL   C10737311   1.819   0.987   7.576 -0.6055  0.9835  0.0709
  263MOL   C10837312   1.884   0.894   7.677  0.0128  0.3759  0.0333
  263MOL   O10937313   1.697   0.930   7.530  0.1339  0.0308 -0.0495
  263MOL   H11037314   1.890   0.993   7.493 -1.0986 -0.6085 -0.4822
  263MOL   H11137315   1.817   0.846   7.748  0.5519  0.2423  0.4538
  263MOL   H11237316   1.953   0.951   7.739  2.0805 -0.2332 -1.6374
  263MOL   H11337317   1.941   0.816   7.627  0.0349  2.0413 -2.6228
  263MOL   C11437318   1.653   0.987   7.408  0.5749  0.1641  0.4504
  263MOL   C11537319   1.705   0.898   7.305 -0.2831 -0.6086 -0.2151
  263MOL   O11637320   1.516   0.983   7.405  0.0916  0.0732 -1.2768
  263MOL   H11737321   1.693   1.088   7.396 -0.9121  0.5949 -1.1235
  263MOL   H11837322   1.663   0.800   7.329 -0.1010 -0.6637 -0.1219
  263MOL   H11937323   1.813   0.888   7.301 -0.1998  0.2187  0.0427
  263MOL   H12037324   1.689   0.940   7.205  2.4062 -0.1582 -0.4822
  263MOL   C12137325   1.453   1.098   7.467 -0.5897  0.6566 -0.5801
  263MOL   C12237326   1.417   1.198   7.347  0.8807 -0.0532 -0.4087
  263MOL   O12337327   1.339   1.055   7.529 -0.0235  0.6986  0.2354
  263MOL   H12437328   1.526   1.144   7.534 -0.5557  2.9639 -2.1427
  263MOL   H12537329   1.326   1.156   7.303 -1.9187  2.4166  2.7718
  263MOL   H12637330   1.491   1.200   7.267  1.8255  0.6478  0.4855
  263MOL   H12737331   1.389   1.298   7.380  1.2850  0.5364 -1.7884
  263MOL   C12837332   1.370   0.988   7.650  0.6159  0.0082  0.8577
  263MOL   C12937333   1.314   1.085   7.753  0.3948 -0.5139 -0.3362
  263MOL   O13037334   1.293   0.868   7.669 -0.0438 -0.0941 -0.0905
  263MOL   H13137335   1.477   0.971   7.663  1.0350 -0.3912 -2.5691
  263MOL   H13237336   1.349   1.067   7.855 -0.2139 -0.3752 -0.0989
  263MOL   H13337337   1.207   1.078   7.736  0.0325 -1.6740  2.1171
  263MOL   H13437338   1.341   1.188   7.732  1.1631 -0.5848  0.2669
  263MOL   C13537339   1.341   0.765   7.597  0.0138  0.0485 -0.1906
  263MOL   C13637340   1.274   0.639   7.661 -0.4988  0.0819 -0.1913
  263MOL   O13737341   1.300   0.773   7.462 -0.2089  0.1403  0.5763
  263MOL   H13837342   1.449   0.750   7.600 -0.1449 -0.8618  1.7573
  263MOL   H13937343   1.320   0.625   7.759 -0.5101 -0.4740 -0.2630
  263MOL   H14037344   1.291   0.550   7.600  0.1598 -0.2368  0.4514
  263MOL   H14137345   1.166   0.644   7.670 -0.6705  0.8588 -2.3447
  263MOL   H14237346   1.338   0.852   7.429  1.3330 -0.8925 -0.1520
  264MOL     C137347   0.712   7.685   5.681  0.2082 -0.2191 -0.5945
  264MOL     C237348   0.674   7.548   5.737 -0.0062  0.3473 -0.6583
  264MOL     O337349   0.773   7.761   5.792 -0.1619  0.1332  0.1616
  264MOL     H437350   0.625   7.731   5.635 -0.5608 -1.4316 -0.3527
  264MOL     H537351   0.761   7.490   5.768 -0.7358  0.2809  1.3608
  264MOL     H637352   0.611   7.500   5.661 -0.3045  2.6109 -1.8649
  264MOL     H737353   0.599   7.561   5.816 -0.3991 -2.5985 -0.4829
  264MOL     H837354   0.787   7.663   5.604  0.7677  1.2403 -0.4971
  264MOL     C937355   0.817   7.892   5.772  0.2370 -0.2499  0.0616
  264MOL    C1037356   0.729   0.065   5.857 -0.2024 -1.0180  0.4773
  264MOL    O1137357   0.948   7.910   5.813 -0.2288  0.2525 -0.1984
  264MOL    H1237358   0.795   7.907   5.666 -3.0751  1.7437  0.9291
  264MOL    H1337359   0.777   0.162   5.850 -0.6313 -0.6945  1.8935
  264MOL    H1437360   0.734   0.031   5.961  0.2351  1.3421  1.2436
  264MOL    H1537361   0.628   0.068   5.816  0.0305  1.7100  0.0196
  264MOL    C1637362   1.036   7.842   5.735  0.1728  0.6343 -0.1747
  264MOL    C1737363   1.112   0.046   5.667 -0.4380  0.0580 -0.2752
  264MOL    O1837364   1.124   7.768   5.807 -0.1055  0.2551 -1.0097
  264MOL    H1937365   0.980   7.789   5.659  1.7758 -1.3633  0.0044
  264MOL    H2037366   1.194   0.012   5.605 -1.5961 -0.8648 -1.3332
  264MOL    H2137367   1.146   0.111   5.747 -2.4855 -0.3875  0.9965
  264MOL    H2237368   1.041   0.110   5.613  1.2683  3.2516  1.1429
  264MOL    C2337369   1.070   7.642   5.850  0.8070  0.2468  0.4789
  264MOL    C2437370   1.127   7.533   5.761  0.2778  0.3453 -0.4547
  264MOL    O2537371   1.112   7.612   5.976 -0.0009  0.0647  0.0453
  264MOL    H2637372   0.961   7.651   5.847  0.9085  1.2458 -0.7120
  264MOL    H2737373   1.232   7.544   5.738 -0.1223  1.7787 -1.6812
  264MOL    H2837374   1.072   7.543   5.667  0.1509 -0.2086 -0.4412
  264MOL    H2937375   1.127   7.431   5.798 -0.9443  0.6300  0.3951
  264MOL    C3037376   1.063   7.697   6.078 -0.2001 -0.2923  0.4694
  264MOL    C3137377   0.921   7.650   6.127 -0.5421  0.0450 -0.1502
  264MOL    O3237378   1.146   7.701   6.187  0.1214 -0.2042 -0.0415
  264MOL    H3337379   1.039   7.794   6.033 -1.6914 -1.0819 -0.5035
  264MOL    H3437380   0.933   7.558   6.184 -0.6571  0.2141  0.1463
  264MOL    H3537381   0.857   7.636   6.040 -2.8313 -1.6820  1.7215
  264MOL    H3637382   0.868   7.733   6.174 -2.9828 -1.6713  0.2662
  264MOL    C3737383   1.266   7.769   6.165 -0.7813  0.1957  0.2144
  264MOL    C3837384   1.258   7.912   6.230 -0.8343 -0.3442  0.0468
  264MOL    O3937385   1.369   7.699   6.227  0.2298 -0.7498 -0.4949
  264MOL    H4037386   1.288   7.782   6.060  2.5116  1.0023  0.9364
  264MOL    H4137387   1.242   7.906   6.338  0.1873  1.5058  0.3344
  264MOL    H4237388   1.162   0.035   6.192 -1.3133 -0.9858  0.6064
  264MOL    H4337389   1.342   0.063   6.206  0.5819 -1.7761  1.1035
  264MOL    C4437390   1.390   7.560   6.183  0.0805  0.0380 -0.1355
  264MOL    C4537391   1.538   7.566   6.146 -0.1727 -0.4190 -0.1615
  264MOL    O4637392   1.389   7.478   6.288 -0.3471 -0.1232  0.0131
  264MOL    H4737393   1.319   7.523   6.109  0.0168 -1.7026  0.7669
  264MOL    H4837394   1.575   7.471   6.108  1.1211 -0.1619  0.4303
  264MOL    H4937395   1.591   7.595   6.236 -0.6072 -1.4222  0.4259
  264MOL    H5037396   1.556   7.647   6.076 -2.4765 -1.0543 -1.5471
  264MOL    C5137397   1.259   7.443   6.338 -0.0166  0.1678  0.2041
  264MOL    C5237398   1.240   7.299   6.303  0.4244 -0.7931 -0.3227
  264MOL    O5337399   1.243   7.454   6.477 -0.6846 -0.6514 -0.1284
  264MOL    H5437400   1.182   7.505   6.292  0.8619  0.2922 -1.1007
  264MOL    H5537401   1.252   7.285   6.196 -0.1032 -0.9810 -0.3546
  264MOL    H5637402   1.135   7.275   6.316  0.7629 -1.6801  0.8873
  264MOL    H5737403   1.307   7.244   6.370  0.0150  1.6026  2.1459
  264MOL    C5837404   1.232   7.585   6.520  0.1906 -0.1178  0.1604
  264MOL    C5937405   1.086   7.604   6.572 -0.3514  0.2066 -0.4279
  264MOL    O6037406   1.329   7.619   6.616  0.3926 -0.0278  0.4991
  264MOL    H6137407   1.232   7.657   6.438 -1.5007 -2.2870 -1.8150
  264MOL    H6237408   1.010   7.614   6.495 -0.4823  1.1639 -0.1722
  264MOL    H6337409   1.083   7.680   6.650 -1.2025 -1.9952  1.7584
  264MOL    H6437410   1.054   7.515   6.628  0.0898  1.1436  1.3596
  264MOL    C6537411   1.447   7.665   6.567  0.3451  0.1667 -0.0804
  264MOL    C6637412   1.434   7.809   6.599  0.4961 -1.1182  0.4363
  264MOL    O6737413   1.550   7.608   6.648  0.0277  0.2522 -0.5907
  264MOL    H6837414   1.473   7.659   6.462  1.0736 -0.7215  0.1430
  264MOL    H6937415   1.342   7.839   6.549  0.8254  0.7284  0.9001
  264MOL    H7037416   1.514   7.868   6.555  1.0630 -2.8897 -1.0306
  264MOL    H7137417   1.420   7.824   6.705  0.3018 -1.5149  0.4684
  264MOL    C7237418   1.549   7.467   6.642 -0.4626  0.7355 -0.2746
  264MOL    C7337419   1.626   7.412   6.519  0.8586 -0.8255  0.4680
  264MOL    O7437420   1.612   7.422   6.758  0.3049  0.1205 -0.0446
  264MOL    H7537421   1.449   7.425   6.631  0.8157 -1.6249 -3.8062
  264MOL    H7637422   1.731   7.436   6.538  0.7584  0.1436 -0.1774
  264MOL    H7737423   1.594   7.462   6.428 -0.8005 -0.3507  1.3034
  264MOL    H7837424   1.626   7.304   6.503 -2.6749 -1.0053  1.3750
  264MOL    C7937425   1.537   7.424   6.870  0.0881 -0.3783 -0.2967
  264MOL    C8037426   1.511   7.275   6.908 -0.6421 -0.4877  0.2492
  264MOL    O8137427   1.604   7.472   6.986  0.0643 -1.0614  0.2440
  264MOL    H8237428   1.444   7.480   6.862 -0.1472 -0.8507 -0.8742
  264MOL    H8337429   1.416   7.269   6.963 -0.6742  1.0431  0.3723
  264MOL    H8437430   1.591   7.241   6.974  1.9323 -0.1395 -2.6127
  264MOL    H8537431   1.492   7.211   6.822  0.4531 -0.4639 -0.0065
  264MOL    C8637432   1.657   7.600   6.982 -0.0050 -0.7193  0.6897
  264MOL    C8737433   1.543   7.694   7.015  0.1341 -0.3636  0.0428
  264MOL    O8837434   1.760   7.621   7.076  0.0224  0.2573 -0.9895
  264MOL    H8937435   1.690   7.613   6.879 -0.2233  1.1057  0.8283
  264MOL    H9037436   1.471   7.643   7.079  0.9134 -2.1159 -0.4530
  264MOL    H9137437   1.486   7.714   6.924  0.1361  1.0268  0.3415
  264MOL    H9237438   1.582   7.784   7.061 -0.7884  0.1843 -0.2207
  264MOL    C9337439   1.869   7.535   7.076  0.2855  0.3555  0.0305
  264MOL    C9437440   1.995   7.613   7.043  0.7537  0.3827 -0.4603
  264MOL    O9537441   1.885   7.471   7.200  0.2581 -0.2446  0.0567
  264MOL    H9637442   1.849   7.463   6.997 -0.1433  0.7992 -0.2725
  264MOL    H9737443   2.082   7.548   7.038  0.2429 -0.2631 -0.8537
  264MOL    H9837444   2.022   7.692   7.114 -0.6196 -0.6963  1.3073
  264MOL    H9937445   1.988   7.667   6.949 -2.0429  1.8115  0.4743
  264MOL   C10037446   1.807   7.355   7.216 -0.1934 -0.0080 -0.4093
  264MOL   C10137447   1.900   7.235   7.223 -0.7793  0.0596 -0.2002
  264MOL   O10237448   1.748   7.353   7.341 -0.3500 -0.2202 -0.2728
  264MOL   H10337449   1.733   7.340   7.138 -0.8070 -3.2884  0.7397
  264MOL   H10437450   1.957   7.233   7.315 -0.3271  0.0787 -0.4821
  264MOL   H10537451   1.961   7.232   7.133  2.4194 -0.1473  1.9240
  264MOL   H10637452   1.837   7.146   7.221 -0.7669  0.0603 -0.8243
  264MOL   C10737453   1.637   7.437   7.361 -0.1899 -0.7245  0.0322
  264MOL   C10837454   1.514   7.354   7.392  0.0388 -0.1061  1.0705
  264MOL   O10937455   1.657   7.521   7.468  1.0229  0.2496 -0.6272
  264MOL   H11037456   1.623   7.491   7.268 -2.8342  0.0017  0.8029
  264MOL   H11137457   1.501   7.288   7.307  2.9437 -1.0924  1.3551
  264MOL   H11237458   1.426   7.419   7.401  1.2783  1.9532 -0.9984
  264MOL   H11337459   1.533   7.293   7.480 -0.3374 -1.7105  0.0600
  264MOL   C11437460   1.714   7.644   7.446  0.2238  0.0450 -0.4408
  264MOL   C11537461   1.614   7.761   7.459 -0.5669  0.2085  0.4239
  264MOL   O11637462   1.814   7.667   7.540 -1.0748 -0.0950 -0.7255
  264MOL   H11737463   1.754   7.652   7.345 -0.3151  1.4290 -0.5556
  264MOL   H11837464   1.540   7.740   7.382 -0.3646 -0.7523  0.4740
  264MOL   H11937465   1.658   7.859   7.442 -1.1500  0.4739  0.4328
  264MOL   H12037466   1.555   7.740   7.549 -0.8027 -2.8729 -0.3896
  264MOL   C12137467   1.925   7.587   7.514  0.3435 -0.6162 -0.0876
  264MOL   C12237468   2.041   7.672   7.468 -0.1048  0.4706  0.0377
  264MOL   O12337469   1.975   7.515   7.623 -0.2790 -0.7447  0.1449
  264MOL   H12437470   1.911   7.506   7.442 -2.2246 -0.4356  0.1725
  264MOL   H12537471   2.079   7.732   7.551  0.5563  1.1338 -0.7236
  264MOL   H12637472   2.013   7.739   7.387  1.4775  2.5645  1.1625
  264MOL   H12737473   2.121   7.605   7.435  0.0008  1.2121 -1.2412
  264MOL   C12837474   1.891   7.426   7.685 -0.2927  0.3726  0.3099
  264MOL   C12937475   1.972   7.295   7.703  0.2110 -0.4631 -0.0678
  264MOL   O13037476   1.843   7.457   7.814  0.0956 -0.2368  0.2752
  264MOL   H13137477   1.799   7.404   7.631 -2.2550  1.2128  3.1374
  264MOL   H13237478   2.041   7.279   7.620 -0.0354 -2.0033  0.0089
  264MOL   H13337479   1.911   7.206   7.717 -0.3159 -0.1321 -0.2372
  264MOL   H13437480   2.047   7.307   7.781  1.6381  1.2325 -1.6590
  264MOL   C13537481   1.727   7.542   7.817 -0.3414 -0.0328 -0.2780
  264MOL   C13637482   1.671   7.522   0.041 -0.4067 -0.0649  0.1721
  264MOL   O13737483   1.774   7.673   7.811  0.2581 -0.1078  0.3621
  264MOL   H13837484   1.657   7.520   7.736 -1.6578  2.2612  0.1939
  264MOL   H13937485   1.741   7.558   0.116 -1.8683  4.3070 -0.4010
  264MOL   H14037486   1.640   7.421   0.066  0.1417  0.2228  2.0874
  264MOL   H14137487   1.580   7.581   0.052  0.5714  1.4903  0.0605
  264MOL   H14237488   1.786   7.692   7.719  1.8724  0.6878  0.6996
  265MOL     C137489   5.450   1.878   7.385  0.2979  0.0427  0.0520
  265MOL     C237490   5.391   1.917   7.523  0.6108 -0.1747  0.6028
  265MOL     O337491   5.579   1.815   7.394  0.3246 -0.2893 -0.1015
  265MOL     H437492   5.454   1.969   7.325  1.1107  0.8510  1.2983
  265MOL     H537493   5.289   1.954   7.526  1.0146  1.2024 -1.7769
  265MOL     H637494   5.453   1.989   7.576  0.8259  0.5433 -0.6029
  265MOL     H737495   5.381   1.822   7.576  3.3360 -0.5501  0.5369
  265MOL     H837496   5.383   1.825   7.318 -1.2778  2.3281 -0.2389
  265MOL     C937497   5.645   1.818   7.268  0.3159  0.0569  0.3522
  265MOL    C1037498   5.759   1.719   7.271  0.1440  0.2541 -0.3457
  265MOL    O1137499   5.554   1.790   7.163 -0.1063  0.3220 -0.2123
  265MOL    H1237500   5.679   1.922   7.259 -1.3820  0.7878  2.0820
  265MOL    H1337501   5.813   1.727   7.366 -0.3738 -1.5746  0.1187
  265MOL    H1437502   5.828   1.743   7.190  0.3652 -1.4712 -0.6859
  265MOL    H1537503   5.724   1.616   7.269  2.3629 -0.5175 -1.2240
  265MOL    C1637504   5.574   1.869   7.050  0.0015 -0.1761 -0.0613
  265MOL    C1737505   5.474   1.817   6.939  0.5034  0.5030 -0.0265
  265MOL    O1837506   5.529   1.999   7.076 -0.4812  0.2049 -0.2320
  265MOL    H1937507   5.676   1.862   7.013 -0.7147 -2.4794 -1.7078
  265MOL    H2037508   5.367   1.831   6.956  0.4602 -0.4796  0.5002
  265MOL    H2137509   5.494   1.712   6.921  1.1025  0.6387 -0.1601
  265MOL    H2237510   5.486   1.860   6.840 -1.2244  1.0917 -0.0071
  265MOL    C2337511   5.614   2.093   7.015 -0.0475  0.5741  0.1893
  265MOL    C2437512   5.547   2.226   7.055 -0.0092 -0.2899 -0.6566
  265MOL    O2537513   5.734   2.083   7.077 -0.5287 -0.2609 -0.4752
  265MOL    H2637514   5.620   2.075   6.908 -0.6185 -1.6038  0.5054
  265MOL    H2737515   5.594   2.317   7.016 -1.0236  0.5196  0.0066
  265MOL    H2837516   5.550   2.240   7.163  0.8780  0.1537 -0.7259
  265MOL    H2937517   5.440   2.222   7.038 -0.4414 -0.9972  1.9773
  265MOL    C3037518   5.846   2.103   6.994  0.2434  0.4677  0.4032
  265MOL    C3137519   5.961   2.138   7.091 -0.1816 -0.0419  0.4674
  265MOL    O3237520   5.874   1.984   6.914 -0.0182  0.1221  0.8029
  265MOL    H3337521   5.826   2.193   6.935 -0.0833  0.0433 -0.1451
  265MOL    H3437522   6.048   2.164   7.030 -0.3875 -1.3075 -0.3709
  265MOL    H3537523   5.986   2.048   7.147  0.8013 -0.9607 -1.4136
  265MOL    H3637524   5.939   2.230   7.147 -1.6534 -1.2601  1.9442
  265MOL    C3737525   5.942   2.022   6.791  0.0688  0.6372 -0.0892
  265MOL    C3837526   6.020   1.908   6.730 -0.2608 -0.0372 -0.1858
  265MOL    O3937527   5.848   2.062   6.690  0.0275  0.6077 -0.0002
  265MOL    H4037528   6.016   2.099   6.815 -0.0553  0.4393  0.9334
  265MOL    H4137529   6.090   1.921   6.647  0.0620 -0.9824 -0.0695
  265MOL    H4237530   5.950   1.838   6.685  1.6415 -0.3619 -2.7816
  265MOL    H4337531   6.071   1.856   6.811  0.1449  1.2476  0.4085
  265MOL    C4437532   5.885   2.188   6.639  0.1791  0.4166  0.3407
  265MOL    C4537533   5.834   2.178   6.497 -0.4631 -0.5927  0.2794
  265MOL    O4637534   5.832   2.290   6.715  0.6280  0.3688 -0.4088
  265MOL    H4737535   5.991   2.207   6.624 -0.0181  1.3439  0.1229
  265MOL    H4837536   5.726   2.169   6.510 -0.3190 -1.0534  1.2948
  265MOL    H4937537   5.880   2.093   6.446  1.2485 -0.7376  1.9922
  265MOL    H5037538   5.858   2.269   6.443 -1.8505 -0.3972 -0.0148
  265MOL    C5137539   5.909   2.394   6.744 -0.6468 -0.0347 -0.2389
  265MOL    C5237540   5.824   2.503   6.803 -0.5503  0.5895  0.0265
  265MOL    O5337541   5.997   2.357   6.853  0.0146  0.5953 -0.3433
  265MOL    H5437542   5.973   2.428   6.663 -0.2173  1.7138  0.8001
  265MOL    H5537543   5.892   2.586   6.821  1.6387 -1.3122  0.6792
  265MOL    H5637544   5.770   2.469   6.891 -0.7388  1.3448  0.2084
  265MOL    H5737545   5.760   2.545   6.725  0.5593  0.6453 -0.8752
  265MOL    C5837546   6.133   2.395   6.825  0.8182  0.0067  0.1253
  265MOL    C5937547   6.203   2.415   6.961 -0.1138  0.0371  0.4628
  265MOL    O6037548   6.193   2.296   6.756 -0.4801 -0.3760  0.5959
  265MOL    H6137549   6.131   2.487   6.767 -1.5213  0.5755  1.0356
  265MOL    H6237550   6.215   2.318   7.009  0.1212  0.0059  0.3430
  265MOL    H6337551   6.146   2.475   7.032 -1.7825 -0.8520 -0.1092
  265MOL    H6437552   6.307   2.449   6.953 -0.1511  0.0885  0.1869
  265MOL    C6537553   6.266   2.328   6.641  0.3033  0.2180 -0.8219
  265MOL    C6637554   6.362   2.221   6.591 -0.0267  0.6152 -0.3360
  265MOL    O6737555   6.173   2.353   6.545 -0.1022  0.0711  0.1484
  265MOL    H6837556   6.330   2.413   6.665  0.9701  0.0358 -1.9298
  265MOL    H6937557   6.426   2.263   6.513  1.4687  1.0521  1.0906
  265MOL    H7037558   6.307   2.143   6.539 -0.2859 -1.2371  2.6279
  265MOL    H7137559   6.428   2.172   6.663  0.1653  1.3638  0.0026
  265MOL    C7237560   6.194   2.472   6.468  0.2789  0.9990 -0.7975
  265MOL    C7337561   6.123   2.450   6.332  0.4022  0.6793  0.0107
  265MOL    O7437562   6.136   2.577   6.537 -0.1144  0.0806 -0.2284
  265MOL    H7537563   6.300   2.476   6.445  0.3211  2.3900 -0.4037
  265MOL    H7637564   6.021   2.423   6.358  0.3170 -0.1790 -1.1958
  265MOL    H7737565   6.174   2.369   6.280 -0.5869  0.8273 -1.2231
  265MOL    H7837566   6.132   2.532   6.260 -0.0600  0.8503  0.1444
  265MOL    C7937567   6.210   2.690   6.564  0.8269 -0.1690 -0.0411
  265MOL    C8037568   6.121   2.793   6.631  0.3777  0.5350 -0.4649
  265MOL    O8137569   6.309   2.662   6.658  0.0327 -0.0771 -0.0971
  265MOL    H8237570   6.250   2.728   6.470  0.3396  2.9819  0.9763
  265MOL    H8337571   6.178   2.882   6.658 -1.8456  1.7557  0.3218
  265MOL    H8437572   6.091   2.743   6.723 -0.6861  1.0743 -0.5155
  265MOL    H8537573   6.033   2.828   6.577 -1.9616  0.6129  3.2664
  265MOL    C8637574   6.438   2.693   6.616 -0.8502 -0.3953 -0.0700
  265MOL    C8737575   6.532   2.687   6.740 -0.5466 -0.0167  0.9886
  265MOL    O8837576   6.488   2.595   6.529 -0.3166  0.2043  0.0979
  265MOL    H8937577   6.433   2.798   6.588 -0.6558 -0.4538 -0.3265
  265MOL    H9037578   6.637   2.700   6.713 -0.6478  0.7348  0.9339
  265MOL    H9137579   6.513   2.597   6.798 -0.7267 -0.4415  0.2673
  265MOL    H9237580   6.513   2.775   6.803 -2.2301  0.9016 -0.7683
  265MOL    C9337581   6.531   2.648   6.408  0.7021 -0.5943  0.6842
  265MOL    C9437582   6.637   2.552   6.356  0.2743  0.0816  0.0466
  265MOL    O9537583   6.431   2.657   6.309  0.0871 -0.9529 -0.3280
  265MOL    H9637584   6.584   2.742   6.421 -0.4728 -0.0406  1.5631
  265MOL    H9737585   6.703   2.529   6.440 -1.1409 -0.2873  1.0726
  265MOL    H9837586   6.696   2.583   6.270 -1.0569 -0.3437 -1.0394
  265MOL    H9937587   6.581   2.459   6.343  0.2345 -0.1924  2.0146
  265MOL   C10037588   6.435   2.771   6.228 -0.1823  0.6154 -0.3942
  265MOL   C10137589   6.335   2.749   6.118  0.2262 -0.5706 -0.5584
  265MOL   O10237590   6.389   2.878   6.310 -0.8634 -0.6438  0.4038
  265MOL   H10337591   6.536   2.790   6.192 -0.4899 -0.8141 -2.0921
  265MOL   H10437592   6.234   2.748   6.159 -0.3613 -0.0673 -1.9550
  265MOL   H10537593   6.351   2.655   6.065  0.0096 -0.4119 -0.9131
  265MOL   H10637594   6.347   2.833   6.049  2.4030  0.6614  1.2273
  265MOL   C10737595   6.478   2.990   6.311 -0.1263 -0.3552  0.1147
  265MOL   C10837596   6.407   3.116   6.326  0.8972 -0.5688  0.0677
  265MOL   O10937597   6.580   2.982   6.411 -0.3866  0.2373  1.0174
  265MOL   H11037598   6.521   2.996   6.211 -1.2619 -1.8196 -0.4821
  265MOL   H11137599   6.358   3.118   6.423  1.3400 -3.4577  0.3896
  265MOL   H11237600   6.331   3.128   6.248  1.3219 -3.4557 -0.8494
  265MOL   H11337601   6.487   3.190   6.322  0.3953 -0.0968 -1.9451
  265MOL   C11437602   6.708   3.001   6.367  0.3710 -0.4887 -0.7167
  265MOL   C11537603   6.794   2.985   6.488 -0.6344 -0.1035  0.1684
  265MOL   O11637604   6.740   2.901   6.278  0.5223  0.2019  0.0512
  265MOL   H11737605   6.710   3.103   6.329 -0.0578 -0.2706 -0.1707
  265MOL   H11837606   6.771   2.887   6.530  1.2387  0.6538  3.1012
  265MOL   H11937607   6.772   3.060   6.563 -0.4586  0.8660 -0.7423
  265MOL   H12037608   6.901   3.000   6.472 -0.6249 -1.5342 -1.2878
  265MOL   C12137609   6.827   2.945   6.178 -0.0400 -0.1592  0.2617
  265MOL   C12237610   6.915   2.829   6.136  0.0397  1.0750 -0.4546
  265MOL   O12337611   6.751   2.977   6.058  0.1106  0.3841  0.2531
  265MOL   H12437612   6.894   3.023   6.215  0.2346  0.3022 -1.1618
  265MOL   H12537613   6.855   2.749   6.092 -1.3767  2.6481 -1.4602
  265MOL   H12637614   6.968   2.789   6.223  0.5089  0.4367 -1.0297
  265MOL   H12737615   6.995   2.864   6.072  1.3175 -0.3006  0.3659
  265MOL   C12837616   6.765   3.104   6.010 -0.1228 -0.6401 -0.5390
  265MOL   C12937617   6.699   3.108   5.875  0.0722 -0.4251 -0.3051
  265MOL   O13037618   6.706   3.194   6.092  1.3714 -0.4510 -0.0316
  265MOL   H13137619   6.874   3.109   6.007 -0.1207  0.1407  0.4748
  265MOL   H13237620   6.745   3.045   5.798  0.6304 -2.5525  1.7142
  265MOL   H13337621   6.702   3.209   5.835 -2.7912 -0.4917 -0.7869
  265MOL   H13437622   6.591   3.096   5.879  0.1234 -1.2533 -1.1431
  265MOL   C13537623   6.775   3.312   6.107  1.0113 -0.6919  0.5642
  265MOL   C13637624   6.672   3.412   6.164  0.7915  0.2234  0.3917
  265MOL   O13737625   6.872   3.300   6.206 -0.0757 -0.0337  0.0308
  265MOL   H13837626   6.825   3.344   6.016 -0.1824  2.4057  0.9084
  265MOL   H13937627   6.704   3.514   6.188 -1.2204  1.6821 -2.7672
  265MOL   H14037628   6.616   3.369   6.247 -0.2189  0.0285 -0.3696
  265MOL   H14137629   6.585   3.427   6.100 -1.1808 -0.7088  2.8019
  265MOL   H14237630   6.953   3.322   6.162  1.1537 -3.2589  0.5613
  266MOL     C137631   1.567   5.596   1.291 -0.3475 -0.7229 -0.6238
  266MOL     C237632   1.689   5.672   1.228 -0.5168 -0.2416 -0.5062
  266MOL     O337633   1.440   5.669   1.259  0.5866 -0.1052  0.5008
  266MOL     H437634   1.588   5.589   1.397  0.8002 -1.5194 -0.8907
  266MOL     H537635   1.779   5.611   1.238 -0.2064 -0.0142 -1.7859
  266MOL     H637636   1.712   5.748   1.303  1.6942 -0.1794 -1.1957
  266MOL     H737637   1.685   5.702   1.123  0.6848 -2.1165 -1.1047
  266MOL     H837638   1.564   5.495   1.249 -0.7627 -0.1679 -1.9682
  266MOL     C937639   1.328   5.621   1.327  0.5981 -0.2646  0.1251
  266MOL    C1037640   1.214   5.722   1.309  0.4135 -0.0797  0.4726
  266MOL    O1137641   1.290   5.497   1.270 -0.6510  0.0578  0.0767
  266MOL    H1237642   1.339   5.607   1.434 -1.8082 -0.3808  0.3739
  266MOL    H1337643   1.213   5.763   1.208  0.0583  0.3327  0.6398
  266MOL    H1437644   1.236   5.803   1.379 -0.1564  0.4413  0.0435
  266MOL    H1537645   1.119   5.688   1.348  0.2775  0.2093  0.3951
  266MOL    C1637646   1.296   5.387   1.354  0.4436 -0.1305  0.3471
  266MOL    C1737647   1.182   5.390   1.455 -0.5053 -0.1197 -0.6633
  266MOL    O1837648   1.268   5.274   1.270 -0.1206  0.4261  0.3870
  266MOL    H1937649   1.397   5.384   1.395  0.9044  0.6315 -0.7077
  266MOL    H2037650   1.208   5.314   1.528 -1.4865 -0.2619 -0.4434
  266MOL    H2137651   1.095   5.370   1.391 -0.3067 -0.1822 -0.9136
  266MOL    H2237652   1.169   5.487   1.504 -3.1432 -1.6407  1.8465
  266MOL    C2337653   1.372   5.237   1.177  0.3488 -0.4439  0.6566
  266MOL    C2437654   1.430   5.105   1.228 -0.0085  1.0709  0.3824
  266MOL    O2537655   1.310   5.200   1.059 -0.2092  0.1353 -0.0416
  266MOL    H2637656   1.447   5.315   1.163  0.1538 -0.2199  0.8354
  266MOL    H2737657   1.390   5.016   1.180 -3.3469  2.1229  1.0266
  266MOL    H2837658   1.404   5.100   1.334  0.6389  0.2314  0.5043
  266MOL    H2937659   1.537   5.113   1.213  0.0639 -0.3468  0.0477
  266MOL    C3037660   1.255   5.305   0.989 -0.3149 -0.1824 -0.1185
  266MOL    C3137661   1.346   5.321   0.866 -0.3317  0.7173 -0.3648
  266MOL    O3237662   1.124   5.284   0.945 -0.2816 -0.4810 -0.4549
  266MOL    H3337663   1.259   5.397   1.048  0.6897 -0.6028  0.4779
  266MOL    H3437664   1.443   5.361   0.896  0.1485 -1.0285  0.4698
  266MOL    H3537665   1.291   5.371   0.785 -2.1857 -1.9654 -0.8199
  266MOL    H3637666   1.366   5.224   0.821  0.3801  0.2263  0.9929
  266MOL    C3737667   1.033   5.288   1.049  0.9191 -1.0904 -0.0409
  266MOL    C3837668   0.948   5.421   1.029  0.0188 -0.2943 -0.2991
  266MOL    O3937669   0.944   5.179   1.048 -0.4860 -0.1278 -0.9003
  266MOL    H4037670   1.064   5.289   1.153 -0.6421  1.9979  0.4389
  266MOL    H4137671   0.910   5.431   0.927 -2.5815  0.1167  0.6697
  266MOL    H4237672   1.007   5.509   1.053 -0.9113  0.2107  0.1594
  266MOL    H4337673   0.874   5.406   1.108  1.2973 -1.7607  0.6652
  266MOL    C4437674   1.007   5.057   1.086 -0.1563  0.2769 -0.4104
  266MOL    C4537675   0.934   5.006   1.211 -0.0224  0.5643 -0.1022
  266MOL    O4637676   1.006   4.961   0.984 -0.5632  0.0951 -0.1989
  266MOL    H4737677   1.108   5.074   1.124  0.9189 -1.1516 -2.4798
  266MOL    H4837678   0.982   4.923   1.263 -0.2700  0.3432 -0.2224
  266MOL    H4937679   0.838   4.969   1.173 -0.1245  0.0967  0.5976
  266MOL    H5037680   0.922   5.093   1.275 -0.9316 -0.1212  0.6813
  266MOL    C5137681   1.122   4.961   0.898 -0.1172 -0.1404 -0.6774
  266MOL    C5237682   1.218   4.860   0.943 -0.1517  0.1741 -0.6312
  266MOL    O5337683   1.081   4.929   0.770  0.0683  0.3136 -0.6085
  266MOL    H5437684   1.172   5.058   0.901  0.0465 -0.2634  2.0245
  266MOL    H5537685   1.157   4.770   0.946  1.7206 -1.1518 -1.4186
  266MOL    H5637686   1.261   4.872   1.042 -0.7986 -2.5061  0.0105
  266MOL    H5737687   1.298   4.837   0.871 -0.8692  0.4694 -1.5361
  266MOL    C5837688   1.017   5.035   0.707  0.2173 -0.0962  0.0736
  266MOL    C5937689   1.111   5.059   0.588 -0.3593 -0.5051  0.0757
  266MOL    O6037690   0.890   5.006   0.666 -0.4820 -0.1777  0.2626
  266MOL    H6137691   1.002   5.123   0.770  1.0662  0.3747 -0.3721
  266MOL    H6237692   1.212   5.076   0.625  0.0244 -2.1643 -0.1808
  266MOL    H6337693   1.067   5.141   0.532 -1.0622  0.7071  2.3590
  266MOL    H6437694   1.106   4.976   0.517 -0.0527 -1.4990  1.1955
  266MOL    C6537695   0.787   5.006   0.763  0.8913  0.6864 -0.7808
  266MOL    C6637696   0.692   5.112   0.723  0.3058  0.1037  0.1623
  266MOL    O6737697   0.704   4.889   0.763 -0.2180  0.4944 -0.3701
  266MOL    H6837698   0.808   5.017   0.869  0.7331 -0.2827 -0.6490
  266MOL    H6937699   0.649   5.087   0.626 -0.1814 -1.2525  0.7054
  266MOL    H7037700   0.744   5.207   0.714  1.6711 -0.8250 -1.9274
  266MOL    H7137701   0.614   5.120   0.799  2.8011 -2.1729  3.1034
  266MOL    C7237702   0.763   4.780   0.831  0.1095 -0.1086 -0.3801
  266MOL    C7337703   0.657   4.744   0.941 -0.4210 -0.3014 -0.2481
  266MOL    O7437704   0.772   4.663   0.760 -0.1182 -0.0080 -0.0900
  266MOL    H7537705   0.862   4.803   0.873 -0.2860 -0.1784  0.6025
  266MOL    H7637706   0.693   4.660   1.000  0.1789  2.0243  2.8582
  266MOL    H7737707   0.559   4.728   0.895 -0.8643  1.4548  0.0325
  266MOL    H7837708   0.641   4.817   1.021  0.6775  0.7284 -0.9491
  266MOL    C7937709   0.877   4.662   0.664  0.2468  0.4573 -0.4882
  266MOL    C8037710   0.983   4.564   0.726 -0.1606  0.2948  0.4044
  266MOL    O8137711   0.831   4.610   0.545  0.3056  0.0291 -0.5919
  266MOL    H8237712   0.919   4.763   0.656  2.5479 -0.3859  0.3833
  266MOL    H8337713   0.948   4.463   0.744  1.7482 -0.1303  1.9352
  266MOL    H8437714   1.017   4.614   0.817 -2.8429  0.8370  1.1477
  266MOL    H8537715   1.065   4.565   0.654  1.4179  2.6142  2.1609
  266MOL    C8637716   0.755   4.703   0.471  0.4378  0.8027  0.1469
  266MOL    C8737717   0.851   4.764   0.374  0.0482  0.5048  0.6525
  266MOL    O8837718   0.658   4.643   0.391 -0.4109  0.1343 -0.3792
  266MOL    H8937719   0.691   4.771   0.528  1.5925  0.6437  1.6958
  266MOL    H9037720   0.810   4.842   0.310  0.4946 -0.3139 -0.6485
  266MOL    H9137721   0.871   4.681   0.306 -0.0958  1.1502 -0.1925
  266MOL    H9237722   0.942   4.798   0.424  0.1010 -0.3059  1.1069
  266MOL    C9337723   0.578   4.549   0.454 -0.0768  0.4316  0.2817
  266MOL    C9437724   0.433   4.587   0.445 -0.8730 -0.5708 -0.5583
  266MOL    O9537725   0.588   4.438   0.375  0.2044 -0.1094 -0.0696
  266MOL    H9637726   0.606   4.518   0.554  1.1680 -2.0126 -0.7811
  266MOL    H9737727   0.422   4.670   0.515 -1.2099  0.3418 -1.6977
  266MOL    H9837728   0.369   4.507   0.484  1.6619 -2.2530  0.3278
  266MOL    H9937729   0.401   4.603   0.343 -2.6088 -0.4023 -0.0064
  266MOL   C10037730   0.707   4.373   0.375 -0.3042  0.3434  0.2892
  266MOL   C10137731   0.707   4.268   0.485  0.1919 -0.0048  0.5395
  266MOL   O10237732   0.706   4.304   0.249  0.5012  0.0010 -0.1707
  266MOL   H10337733   0.804   4.420   0.392 -0.0743 -0.0135 -0.0076
  266MOL   H10437734   0.719   4.310   0.585  0.0011  1.8010 -0.1714
  266MOL   H10537735   0.789   4.198   0.471  1.1610  1.6264 -2.5378
  266MOL   H10637736   0.612   4.215   0.485 -1.8767  3.5298 -0.0397
  266MOL   C10737737   0.716   4.395   0.137  0.6227 -0.0105 -0.0400
  266MOL   C10837738   0.865   4.387   0.083  0.5756  0.0220 -0.2827
  266MOL   O10937739   0.633   4.350   0.042  0.6382  0.2722 -0.5351
  266MOL   H11037740   0.701   4.496   0.174  2.1929  0.3166 -0.2495
  266MOL   H11137741   0.906   4.288   0.103  1.1810  0.2613 -0.3488
  266MOL   H11237742   0.927   4.462   0.132 -0.9387  1.2949 -0.2546
  266MOL   H11337743   0.857   4.393   7.888 -0.9581 -1.6483 -0.2955
  266MOL   C11437744   0.504   4.394   0.049 -0.7079  0.2184 -0.5907
  266MOL   C11537745   0.481   4.510   7.860 -0.1748  0.1313 -0.0781
  266MOL   O11637746   0.407   4.292   0.038 -0.1460 -0.4738 -0.8161
  266MOL   H11737747   0.487   4.439   0.146 -1.6938 -2.3537  0.4859
  266MOL   H11837748   0.391   4.564   7.891 -0.5366 -1.2348  1.3401
  266MOL   H11937749   0.455   4.480   7.758 -3.4162 -2.1526  1.3236
  266MOL   H12037750   0.567   4.575   7.847  0.1730 -0.2820  0.1460
  266MOL   C12137751   0.404   4.218   0.164  0.3275  0.3482  0.2254
  266MOL   C12237752   0.278   4.262   0.233  0.3250 -0.6052 -0.0743
  266MOL   O12337753   0.394   4.076   0.140  0.0113 -0.0571  0.5304
  266MOL   H12437754   0.488   4.238   0.230  0.2953 -0.7411  0.5976
  266MOL   H12537755   0.197   4.256   0.159  0.1957 -0.9892  0.0980
  266MOL   H12637756   0.288   4.367   0.259  0.6821 -0.6964  0.1467
  266MOL   H12737757   0.253   4.193   0.314 -2.2304  0.5979  0.2038
  266MOL   C12837758   0.499   4.022   0.059 -0.4064 -0.2646 -0.4300
  266MOL   C12937759   0.555   3.907   0.139 -0.2589 -1.0241  0.3049
  266MOL   O13037760   0.456   3.965   7.853 -0.4118 -0.8675 -0.0674
  266MOL   H13137761   0.573   4.099   0.035 -0.8370  0.2222 -0.1957
  266MOL   H13237762   0.627   3.853   0.076  0.7602  0.3266  0.3080
  266MOL   H13337763   0.480   3.831   0.163 -1.6281  0.7837  1.8712
  266MOL   H13437764   0.603   3.948   0.227  1.9984 -0.4109 -1.1752
  266MOL   C13537765   0.412   4.060   7.760  0.6546  0.4128 -0.2648
  266MOL   C13637766   0.423   3.987   7.625 -0.2515 -0.5408  0.3832
  266MOL   O13737767   0.281   4.096   7.788 -0.0734 -0.1019  0.3250
  266MOL   H13837768   0.472   4.151   7.759  2.0645 -0.4730  1.0246
  266MOL   H13937769   0.526   3.957   7.604 -0.1046  0.5441 -0.4507
  266MOL   H14037770   0.392   4.055   7.546  1.0878 -0.6164 -0.2155
  266MOL   H14137771   0.361   3.897   7.622 -1.2402  0.1967 -1.5177
  266MOL   H14237772   0.288   4.168   7.849 -0.6087  0.2850 -0.0635
  267MOL     C137773   5.616   4.791   5.433  0.5332  0.3364 -0.1991
  267MOL     C237774   5.458   4.799   5.434  0.2148 -0.0687 -0.1322
  267MOL     O337775   5.664   4.748   5.304  0.1021 -0.0067  0.0081
  267MOL     H437776   5.667   4.728   5.506  0.9251 -2.8784 -3.1250
  267MOL     H537777   5.427   4.717   5.499  1.4937  0.6312  1.3817
  267MOL     H637778   5.417   4.789   5.334  0.7324 -3.3864 -0.0818
  267MOL     H737779   5.425   4.886   5.491 -1.8792 -0.8062 -0.1801
  267MOL     H837780   5.659   4.888   5.455 -1.8744  1.6979 -1.3542
  267MOL     C937781   5.659   4.605   5.289 -0.0928 -0.3247  0.7687
  267MOL    C1037782   5.647   4.582   5.134  0.1527 -0.4846  0.0400
  267MOL    O1137783   5.780   4.541   5.336 -0.4744  0.2030  0.2021
  267MOL    H1237784   5.573   4.562   5.340 -0.3545 -0.0867  0.5247
  267MOL    H1337785   5.559   4.635   5.096 -0.2864 -0.9863  0.3420
  267MOL    H1437786   5.651   4.477   5.106 -0.2353  0.0903 -2.2665
  267MOL    H1537787   5.737   4.631   5.099 -0.8719  0.1562 -1.7429
  267MOL    C1637788   5.755   4.435   5.427 -0.0108  0.1606  0.5794
  267MOL    C1737789   5.882   4.351   5.432  0.6730 -0.4476  0.4221
  267MOL    O1837790   5.735   4.494   5.548  0.0797 -0.1469  0.2181
  267MOL    H1937791   5.669   4.378   5.392 -0.5743  0.7525  0.9783
  267MOL    H2037792   5.901   4.315   5.331  2.7927 -1.0682  1.0066
  267MOL    H2137793   5.875   4.258   5.487  0.6808 -1.3184 -1.0190
  267MOL    H2237794   5.969   4.415   5.451  0.5063  0.1267 -0.6654
  267MOL    C2337795   5.628   4.442   5.622 -0.3162  0.2813 -0.0335
  267MOL    C2437796   5.641   4.502   5.763 -0.4130 -0.4208  0.1352
  267MOL    O2537797   5.500   4.474   5.569 -0.4495  0.7325 -0.1880
  267MOL    H2637798   5.651   4.335   5.628  0.0602  0.3056 -1.0014
  267MOL    H2737799   5.729   4.484   5.824 -1.5234 -0.3191  1.8064
  267MOL    H2837800   5.564   4.463   5.829 -1.0502 -0.3385 -0.5538
  267MOL    H2937801   5.634   4.611   5.760 -2.1803 -0.5476 -0.8616
  267MOL    C3037802   5.427   4.357   5.537  0.6134 -0.0712 -0.0979
  267MOL    C3137803   5.273   4.380   5.565 -0.1975 -0.2231  0.8952
  267MOL    O3237804   5.439   4.306   5.409 -0.6243 -0.1096 -0.6873
  267MOL    H3337805   5.459   4.284   5.611  1.3931 -0.0462 -0.4032
  267MOL    H3437806   5.245   4.345   5.665 -0.8925  0.5917  0.9946
  267MOL    H3537807   5.215   4.316   5.499 -1.4860 -0.4210  2.1719
  267MOL    H3637808   5.243   4.484   5.567 -1.7577 -0.6613  1.1233
  267MOL    C3737809   5.474   4.168   5.405  0.5270  0.3051 -1.1771
  267MOL    C3837810   5.456   4.142   5.258 -0.5640 -0.1226  0.3731
  267MOL    O3937811   5.602   4.133   5.453  0.5536  0.4822  0.1544
  267MOL    H4037812   5.396   4.107   5.452  0.5355 -0.1346 -1.7356
  267MOL    H4137813   5.482   4.040   5.227  2.0479  0.6526 -0.1448
  267MOL    H4237814   5.524   4.205   5.201 -0.8726  0.0222  0.1644
  267MOL    H4337815   5.358   4.167   5.217  0.5082 -0.7537 -2.7651
  267MOL    C4437816   5.603   4.032   5.553 -0.9974 -0.1136  0.9523
  267MOL    C4537817   5.744   3.979   5.558 -0.1340  0.0024 -0.4013
  267MOL    O4637818   5.579   4.089   5.681  0.4139 -0.0534 -0.0800
  267MOL    H4737819   5.527   3.959   5.527 -0.6323 -0.8075  1.8147
  267MOL    H4837820   5.819   4.058   5.554 -0.3444  0.1382 -1.7059
  267MOL    H4937821   5.765   3.923   5.467 -0.8851  2.5864 -2.1980
  267MOL    H5037822   5.768   3.921   5.648 -1.1256 -0.2362 -0.2838
  267MOL    C5137823   5.475   4.032   5.759  0.1841  0.4531  0.3958
  267MOL    C5237824   5.492   4.043   5.903  0.3062 -0.3220  0.3099
  267MOL    O5337825   5.350   4.075   5.723 -0.1474 -1.0636 -0.0299
  267MOL    H5437826   5.480   3.926   5.735  1.5270  0.8741 -1.2751
  267MOL    H5537827   5.416   3.979   5.949 -2.5398  0.9744 -2.4261
  267MOL    H5637828   5.472   4.144   5.939 -2.9786 -1.3004  1.3952
  267MOL    H5737829   5.596   4.029   5.934 -0.0861  0.1123  1.8705
  267MOL    C5837830   5.256   3.973   5.705 -0.1785  0.2286  0.0681
  267MOL    C5937831   5.116   4.042   5.686 -0.0519 -0.9915 -0.1087
  267MOL    O6037832   5.280   3.908   5.587  0.4043 -0.2441 -0.5334
  267MOL    H6137833   5.243   3.908   5.792  0.3812  1.1808  0.8753
  267MOL    H6237834   5.128   4.102   5.596  0.1888 -0.9546 -0.0529
  267MOL    H6337835   5.094   4.099   5.776 -0.4814 -1.4922  0.1035
  267MOL    H6437836   5.032   3.975   5.668  0.2127 -0.5879 -3.2149
  267MOL    C6537837   5.251   3.764   5.593 -0.0554 -0.7818  1.1276
  267MOL    C6637838   5.170   3.731   5.473 -0.2223  0.1806 -0.2098
  267MOL    O6737839   5.368   3.684   5.602  0.2398  0.1466  0.5752
  267MOL    H6837840   5.186   3.748   5.679 -0.7854 -0.2444  0.6854
  267MOL    H6937841   5.082   3.795   5.476 -0.8760 -0.7164  0.1017
  267MOL    H7037842   5.145   3.625   5.476  2.4795 -0.5341 -1.2950
  267MOL    H7137843   5.226   3.750   5.381  0.5468 -2.9961 -0.4617
  267MOL    C7237844   5.379   3.609   5.720  0.7822 -0.2374 -0.2773
  267MOL    C7337845   5.502   3.524   5.720 -0.1887  0.4526  0.0098
  267MOL    O7437846   5.398   3.692   5.832  0.2198 -0.8013  0.0161
  267MOL    H7537847   5.291   3.544   5.722  0.8446 -0.5338 -3.7211
  267MOL    H7637848   5.594   3.582   5.715  0.8762 -1.0119  2.1150
  267MOL    H7737849   5.498   3.466   5.627 -0.0034 -0.7595  0.7440
  267MOL    H7837850   5.507   3.456   5.805  3.3352 -1.8706 -1.8873
  267MOL    C7937851   5.345   3.650   5.954  0.2413  0.6348  0.0582
  267MOL    C8037852   5.444   3.677   6.064  0.0581 -0.6230  0.5603
  267MOL    O8137853   5.229   3.713   5.988  0.5012 -0.4603  0.4240
  267MOL    H8237854   5.333   3.542   5.955  0.0061  0.6608  0.2509
  267MOL    H8337855   5.545   3.640   6.047 -0.4751 -2.4652  1.2783
  267MOL    H8437856   5.410   3.638   6.160  2.2356 -0.8808  1.2696
  267MOL    H8537857   5.443   3.786   6.076 -0.1623 -0.4557 -0.8951
  267MOL    C8637858   5.112   3.634   5.978  0.9341  0.5193  0.8286
  267MOL    C8737859   5.012   3.691   6.082  0.1377  0.3786 -0.9721
  267MOL    O8837860   5.060   3.648   5.849 -0.0112  0.1893 -0.6921
  267MOL    H8937861   5.139   3.531   6.002  0.7067  0.8862  2.7339
  267MOL    H9037862   5.074   3.698   6.172 -1.7568  1.4637  0.2964
  267MOL    H9137863   4.936   3.617   6.107  1.2532 -0.0165  1.4528
  267MOL    H9237864   4.983   3.794   6.058  1.7049  1.4899  1.6497
  267MOL    C9337865   4.979   3.546   5.797  0.3346  0.4434  0.0881
  267MOL    C9437866   4.879   3.623   5.710  0.2071 -0.0457  0.4958
  267MOL    O9537867   5.054   3.465   5.711  0.0122  0.6567  0.1970
  267MOL    H9637868   4.936   3.481   5.874  1.5800  1.9753  2.1510
  267MOL    H9737869   4.813   3.548   5.667  1.7189 -0.2405 -1.6154
  267MOL    H9837870   4.923   3.671   5.622 -2.1389 -2.5919 -2.2045
  267MOL    H9937871   4.823   3.695   5.769 -0.2312 -0.7009  0.8762
  267MOL   C10037872   5.068   3.330   5.746 -0.2502 -0.5905 -0.7213
  267MOL   C10137873   5.122   3.263   5.620  0.0178  0.0591  0.4706
  267MOL   O10237874   5.170   3.317   5.839  0.0092 -0.0681 -0.0661
  267MOL   H10337875   4.975   3.279   5.773  0.4622 -1.1722  0.6585
  267MOL   H10437876   5.162   3.164   5.642  0.3467  0.3475  1.1853
  267MOL   H10537877   5.207   3.322   5.586 -0.2961 -0.6291 -1.5882
  267MOL   H10637878   5.042   3.259   5.547 -1.1879 -0.9265  1.8341
  267MOL   C10737879   5.145   3.234   5.948  0.6688 -0.5581 -0.2613
  267MOL   C10837880   5.276   3.237   6.029 -0.2321  0.3126 -0.1676
  267MOL   O10937881   5.044   3.288   6.031  0.4559 -0.5566  0.2382
  267MOL   H11037882   5.115   3.132   5.924 -0.5548  0.0660 -1.4415
  267MOL   H11137883   5.356   3.170   5.996  0.1945  0.7621 -0.0620
  267MOL   H11237884   5.259   3.203   6.131 -0.5248  2.0391  0.3725
  267MOL   H11337885   5.333   3.328   6.010 -0.5769  0.5759  0.0674
  267MOL   C11437886   4.932   3.199   6.063 -0.5492  0.5315  0.1589
  267MOL   C11537887   4.854   3.248   6.186 -0.7697 -0.4304 -0.0975
  267MOL   O11637888   4.839   3.207   5.962  0.0883 -0.2240 -0.2962
  267MOL   H11737889   4.986   3.110   6.093 -1.5914  0.1604  0.9950
  267MOL   H11837890   4.809   3.342   6.154 -0.8515 -0.8623 -1.2892
  267MOL   H11937891   4.912   3.267   6.276 -0.0066  1.5397 -0.9888
  267MOL   H12037892   4.779   3.172   6.210  1.9703 -2.9415  0.9209
  267MOL   C12137893   4.811   3.087   5.906  0.1570 -0.0512  0.5186
  267MOL   C12237894   4.695   3.106   5.804  0.0835  0.7499 -0.2493
  267MOL   O12337895   4.918   3.033   5.839  0.7366  0.1178  0.0830
  267MOL   H12437896   4.769   3.023   5.984  0.6609 -0.1368  0.7159
  267MOL   H12537897   4.722   3.182   5.730  0.9044 -1.3451 -2.1517
  267MOL   H12637898   4.613   3.138   5.868  0.9207  3.3666 -0.4270
  267MOL   H12737899   4.675   3.016   5.746 -1.3877  1.5836 -1.0562
  267MOL   C12837900   4.947   2.902   5.873 -0.5357  0.8934  0.7116
  267MOL   C12937901   5.050   2.840   5.769 -0.4786 -0.5034  0.1714
  267MOL   O13037902   5.000   2.891   5.997 -0.1229 -0.1931 -0.1506
  267MOL   H13137903   4.860   2.837   5.865  0.3463 -0.0574 -1.9872
  267MOL   H13237904   5.068   2.734   5.786 -1.8855 -0.5943  1.1800
  267MOL   H13337905   5.137   2.906   5.776 -1.0316  0.2228  0.2326
  267MOL   H13437906   5.006   2.841   5.669 -0.2013  1.6725  0.0307
  267MOL   C13537907   4.930   2.831   6.103 -0.5663  0.6135 -0.4791
  267MOL   C13637908   5.034   2.779   6.209  0.4497 -0.3484 -0.2536
  267MOL   O13737909   4.848   2.920   6.176  0.4932 -0.0666 -0.1401
  267MOL   H13837910   4.865   2.747   6.075 -0.9262  1.0544 -0.9681
  267MOL   H13937911   5.083   2.871   6.240 -0.4804  0.6875 -1.7726
  267MOL   H14037912   5.107   2.710   6.166 -0.8634 -1.5806 -0.5643
  267MOL   H14137913   4.992   2.732   6.299  2.2413 -2.0268 -0.2533
  267MOL   H14237914   4.779   2.871   6.218  2.3788 -1.3369  1.5762
  268MOL     C137915   1.871   2.784   3.094 -0.2252 -0.1057 -0.0742
  268MOL     C237916   1.913   2.642   3.069 -0.4002 -0.3164 -0.1684
  268MOL     O337917   1.917   2.829   3.221 -0.1661  0.1193  0.1938
  268MOL     H437918   1.762   2.784   3.088 -0.1594  0.4027 -1.4152
  268MOL     H537919   1.880   2.595   2.976 -0.8405 -1.1166  0.3904
  268MOL     H637920   1.882   2.576   3.150 -0.7072 -0.1339 -0.1391
  268MOL     H737921   2.021   2.631   3.060  0.0288  3.6029 -0.9333
  268MOL     H837922   1.909   2.840   3.009 -2.1857 -0.1678 -1.0268
  268MOL     C937923   1.910   2.966   3.246  0.2853 -0.3403 -0.2975
  268MOL    C1037924   1.787   2.985   3.333  0.0223 -0.1397  0.5760
  268MOL    O1137925   2.021   3.016   3.319 -0.2430  0.0535  0.0069
  268MOL    H1237926   1.903   3.011   3.147  1.7956 -2.5874 -1.4713
  268MOL    H1337927   1.747   3.086   3.325 -1.2658 -0.6477  0.3646
  268MOL    H1437928   1.813   2.958   3.435  0.5776  0.4079  0.5791
  268MOL    H1537929   1.712   2.915   3.294 -1.4360  1.6638  0.0908
  268MOL    C1637930   2.143   3.002   3.249 -0.7013  0.5366 -0.0165
  268MOL    C1737931   2.151   3.075   3.114 -0.0222 -0.6793  0.0394
  268MOL    O1837932   2.245   3.064   3.329  0.2142 -0.1345 -0.2528
  268MOL    H1937933   2.178   2.901   3.231  4.1122  2.2455 -1.1973
  268MOL    H2037934   2.083   3.161   3.120  1.0323  0.2021 -0.5130
  268MOL    H2137935   2.100   3.021   3.034 -1.4855  0.6162  0.0729
  268MOL    H2237936   2.251   3.105   3.085 -0.0655  0.7512  1.3521
  268MOL    C2337937   2.277   2.995   3.446  0.1965  0.4070  0.7522
  268MOL    C2437938   2.421   2.936   3.434  0.4114 -0.1897  0.2991
  268MOL    O2537939   2.289   3.079   3.556  0.2136  0.1953  0.1936
  268MOL    H2637940   2.200   2.917   3.454  0.7614 -0.2123  0.1670
  268MOL    H2737941   2.494   3.016   3.426 -0.0779  0.2162 -0.1464
  268MOL    H2837942   2.409   2.872   3.346 -0.0923 -0.4966  0.5844
  268MOL    H2937943   2.446   2.867   3.516  0.4231 -0.4475  0.0783
  268MOL    C3037944   2.175   3.140   3.598  0.2768 -0.0320 -0.4478
  268MOL    C3137945   2.122   3.068   3.718  0.0719 -0.0414 -0.0496
  268MOL    O3237946   2.201   3.269   3.637  0.3254 -0.2236  0.0907
  268MOL    H3337947   2.100   3.131   3.519  0.6842  1.5465 -1.0235
  268MOL    H3437948   2.206   3.056   3.787  1.5488  1.3776 -1.5546
  268MOL    H3537949   2.091   2.970   3.684 -1.9372 -0.0639  1.7562
  268MOL    H3637950   2.046   3.130   3.766 -0.8358 -0.5958 -0.7717
  268MOL    C3737951   2.225   3.351   3.529 -0.0968 -0.5432  0.4524
  268MOL    C3837952   2.100   3.429   3.494  0.7893  0.5017 -0.5282
  268MOL    O3937953   2.327   3.447   3.541 -0.4854  0.1338  0.6649
  268MOL    H4037954   2.254   3.292   3.441 -0.4937 -0.0039 -0.0474
  268MOL    H4137955   2.018   3.362   3.465  0.8140 -0.5087  1.6185
  268MOL    H4237956   2.113   3.478   3.398 -1.2819 -0.0767 -1.1231
  268MOL    H4337957   2.069   3.497   3.573  0.6300 -0.8808  0.6344
  268MOL    C4437958   2.450   3.399   3.582 -0.8163 -0.3325 -0.3562
  268MOL    C4537959   2.562   3.449   3.485  0.0389  0.0220 -0.6100
  268MOL    O4637960   2.488   3.442   3.708  0.1004  0.1305 -0.2141
  268MOL    H4737961   2.444   3.291   3.572 -3.1439 -0.0997 -1.6985
  268MOL    H4837962   2.648   3.488   3.538 -1.3047  0.3474  1.3743
  268MOL    H4937963   2.514   3.514   3.411 -0.3807  4.2459  3.1856
  268MOL    H5037964   2.603   3.370   3.423 -0.4120 -1.7729  1.3200
  268MOL    C5137965   2.435   3.381   3.823 -0.1383 -0.9758  0.1743
  268MOL    C5237966   2.547   3.323   3.896 -0.3806  0.5256  0.2792
  268MOL    O5337967   2.381   3.481   3.902  0.6533  0.0077  0.0357
  268MOL    H5437968   2.368   3.298   3.801 -0.8828 -0.6637  1.2255
  268MOL    H5537969   2.618   3.400   3.929  1.0238 -1.1067  1.1870
  268MOL    H5637970   2.602   3.252   3.834  0.5508  0.0381  1.6277
  268MOL    H5737971   2.524   3.269   3.988  2.4706  0.4854  1.0284
  268MOL    C5837972   2.261   3.521   3.847  0.4116 -0.3193  0.6082
  268MOL    C5937973   2.150   3.461   3.926  0.4200  0.2493 -0.0203
  268MOL    O6037974   2.256   3.663   3.853  0.1422 -0.4305  0.5246
  268MOL    H6137975   2.249   3.493   3.743  1.1538 -0.1551  0.4760
  268MOL    H6237976   2.154   3.352   3.932 -0.1735  0.1830 -0.8032
  268MOL    H6337977   2.053   3.486   3.883  0.4387 -0.0428 -0.2377
  268MOL    H6437978   2.149   3.499   4.029  3.0027  0.8026 -0.1692
  268MOL    C6537979   2.307   3.726   3.736 -0.2688  0.3120 -0.0104
  268MOL    C6637980   2.198   3.773   3.649 -0.3988  0.3390 -0.1165
  268MOL    O6737981   2.398   3.834   3.756  0.0245  0.1814  0.3549
  268MOL    H6837982   2.377   3.655   3.691 -0.7248 -0.6002  0.7161
  268MOL    H6937983   2.139   3.690   3.612  1.6314 -0.8715 -0.7413
  268MOL    H7037984   2.234   3.828   3.562  2.5172  0.1061  0.8811
  268MOL    H7137985   2.118   3.823   3.704  0.0826  1.4449 -0.3986
  268MOL    C7237986   2.514   3.790   3.835 -0.8921 -0.1920 -0.3943
  268MOL    C7337987   2.638   3.813   3.750  0.9161  0.0962  0.2924
  268MOL    O7437988   2.529   3.869   3.953 -0.8946  0.2857 -0.3641
  268MOL    H7537989   2.525   3.684   3.854  2.3636  0.0878 -0.4776
  268MOL    H7637990   2.726   3.778   3.805 -0.8068 -2.3010  1.5892
  268MOL    H7737991   2.663   3.916   3.722  1.3493 -0.7462 -2.5707
  268MOL    H7837992   2.627   3.754   3.659  3.3627 -3.1082  1.9540
  268MOL    C7937993   2.489   3.805   4.067 -0.4136  0.5635 -0.1343
  268MOL    C8037994   2.610   3.759   4.143  0.8195 -0.4151  0.0803
  268MOL    O8137995   2.413   3.893   4.146 -0.5207  0.0151 -0.3649
  268MOL    H8237996   2.434   3.712   4.049 -0.2465  0.1017  1.7228
  268MOL    H8337997   2.667   3.702   4.069 -0.2715 -0.1416 -0.9870
  268MOL    H8437998   2.573   3.708   4.232 -2.9702  1.0844 -0.5423
  268MOL    H8537999   2.674   3.836   4.185  0.5640  0.6693 -1.4954
  268MOL    C8638000   2.282   3.903   4.108 -0.2645  0.6854 -0.6666
  268MOL    C8738001   2.195   3.810   4.194 -0.7940 -0.3907 -0.3671
  268MOL    O8838002   2.235   4.038   4.133 -0.4084  0.2406  0.6177
  268MOL    H8938003   2.275   3.889   4.000  1.6989 -0.3186 -0.6916
  268MOL    H9038004   2.201   3.838   4.299 -1.6241  1.3763 -0.7806
  268MOL    H9138005   2.220   3.704   4.193  1.7898  0.1766  0.5263
  268MOL    H9238006   2.089   3.822   4.168 -1.2186 -1.3821  0.8453
  268MOL    C9338007   2.296   4.131   4.043 -0.9378  0.3694 -0.1280
  268MOL    C9438008   2.185   4.178   3.947  0.0714 -0.6165 -0.4629
  268MOL    O9538009   2.347   4.241   4.105  0.8533  0.4670 -0.1763
  268MOL    H9638010   2.376   4.086   3.985 -0.6298  0.6119  0.1067
  268MOL    H9738011   2.227   4.246   3.873  1.4461 -1.2576 -0.2918
  268MOL    H9838012   2.104   4.209   4.012  1.9193  2.8665  0.3116
  268MOL    H9938013   2.143   4.091   3.896 -1.5565 -1.2807  1.9798
  268MOL   C10038014   2.478   4.224   4.149  0.0400 -0.5974 -0.0000
  268MOL   C10138015   2.564   4.323   4.061  0.0873 -0.0892 -0.3270
  268MOL   O10238016   2.486   4.258   4.286 -0.2842 -0.0635 -0.4502
  268MOL   H10338017   2.524   4.127   4.135  0.8515 -0.3166  0.6608
  268MOL   H10438018   2.560   4.308   3.953 -0.0040  0.7367 -0.4413
  268MOL   H10538019   2.664   4.319   4.104  0.4324  1.7917 -0.9114
  268MOL   H10638020   2.527   4.426   4.067  2.9968  1.0314 -0.9872
  268MOL   C10738021   2.434   4.155   4.367 -0.7690  0.3016 -0.1108
  268MOL   C10838022   2.550   4.057   4.399 -0.0557  0.4814 -0.1933
  268MOL   O10938023   2.385   4.213   4.485  0.4389 -0.1426 -0.2510
  268MOL   H11038024   2.359   4.091   4.322  0.1983  0.2230 -1.6377
  268MOL   H11138025   2.577   3.992   4.316  3.7095  4.3486 -2.1788
  268MOL   H11238026   2.522   3.998   4.487 -2.5570  0.2555 -1.0968
  268MOL   H11338027   2.635   4.120   4.425 -0.7479  1.1295  0.5503
  268MOL   C11438028   2.259   4.272   4.472 -0.3691 -0.3757 -0.3375
  268MOL   C11538029   2.157   4.200   4.565  1.0301  0.1859 -0.1570
  268MOL   O11638030   2.261   4.408   4.521 -0.4083  0.0433  0.6679
  268MOL   H11738031   2.224   4.279   4.369 -0.9826  0.0749 -0.1046
  268MOL   H11838032   2.056   4.234   4.542  0.9235 -0.1519 -0.2010
  268MOL   H11938033   2.172   4.203   4.673 -2.3756  1.1901  0.3383
  268MOL   H12038034   2.166   4.094   4.542  1.8027 -0.2085  1.8145
  268MOL   C12138035   2.315   4.496   4.429  0.9593  0.3351 -0.5529
  268MOL   C12238036   2.201   4.597   4.390  0.4017  0.0674 -0.2240
  268MOL   O12338037   2.416   4.568   4.488  0.6195 -0.3529  0.1070
  268MOL   H12438038   2.340   4.447   4.335  1.3499 -0.5677  0.0113
  268MOL   H12538039   2.168   4.657   4.475 -0.7918  0.2164 -0.7918
  268MOL   H12638040   2.121   4.537   4.348 -1.1060  0.0854  2.5334
  268MOL   H12738041   2.242   4.666   4.316  1.2651  2.2413  2.1923
  268MOL   C12838042   2.546   4.515   4.466  0.7691 -0.1980 -0.1765
  268MOL   C12938043   2.608   4.579   4.340 -0.2210  0.0878 -0.1863
  268MOL   O13038044   2.626   4.542   4.583 -0.3302  0.6860 -0.1360
  268MOL   H13138045   2.544   4.407   4.460  3.0016 -0.2569 -0.2161
  268MOL   H13238046   2.655   4.675   4.359  0.5552 -0.3965  0.3387
  268MOL   H13338047   2.535   4.587   4.259 -0.8232 -0.9047  0.2540
  268MOL   H13438048   2.683   4.507   4.305 -0.8315  0.4595 -2.3357
  268MOL   C13538049   2.621   4.446   4.686  0.0959 -0.4528  0.3213
  268MOL   C13638050   2.730   4.476   4.785 -0.3116  0.0985  0.2426
  268MOL   O13738051   2.492   4.441   4.745 -0.3294 -0.5127  0.1548
  268MOL   H13838052   2.631   4.349   4.639  0.2245 -0.3119  0.0586
  268MOL   H13938053   2.713   4.569   4.838  1.5044 -0.9492  2.7857
  268MOL   H14038054   2.825   4.473   4.732 -0.1403 -1.6866  0.5889
  268MOL   H14138055   2.727   4.393   4.856  0.0257 -1.1384 -1.1541
  268MOL   H14238056   2.428   4.463   4.680 -0.5410 -1.1532  0.1460
  269MOL     C138057   1.456   6.269   7.224 -0.6047 -0.0373  0.1371
  269MOL     C238058   1.461   6.383   7.315 -0.2710  0.2832  0.0890
  269MOL     O338059   1.330   6.245   7.165 -0.1211 -0.1912  0.5702
  269MOL     H438060   1.498   6.183   7.276  0.8034 -0.2088 -1.2300
  269MOL     H538061   1.396   6.457   7.268  1.1627  1.8509  0.5375
  269MOL     H638062   1.560   6.426   7.333  0.7197 -0.7948 -2.5705
  269MOL     H738063   1.416   6.349   7.409 -1.5746 -3.0133 -1.6361
  269MOL     H838064   1.525   6.294   7.143  1.5556  1.9854  2.5163
  269MOL     C938065   1.322   6.189   7.042  1.1058 -0.1724 -0.4039
  269MOL    C1038066   1.273   6.041   7.051 -0.2875  0.7357 -0.1861
  269MOL    O1138067   1.217   6.244   6.970  0.2702 -0.8573 -0.2701
  269MOL    H1238068   1.419   6.192   6.991  2.7644  0.3025  2.6492
  269MOL    H1338069   1.257   5.994   6.954 -2.5775  1.9698 -0.4284
  269MOL    H1438070   1.177   6.034   7.102  0.3774  1.2349  1.1618
  269MOL    H1538071   1.346   5.976   7.100 -0.5300  0.4496 -0.2038
  269MOL    C1638072   1.245   6.370   6.913 -0.5092  0.1732 -0.4258
  269MOL    C1738073   1.269   6.350   6.766  0.4350 -0.3278  0.7675
  269MOL    O1838074   1.142   6.463   6.923  0.4538  0.0409 -0.2260
  269MOL    H1938075   1.334   6.416   6.955 -1.4976  0.7775  1.0625
  269MOL    H2038076   1.359   6.289   6.754  0.4272 -0.1798 -0.0160
  269MOL    H2138077   1.282   6.441   6.709 -2.1204 -1.1414 -1.1787
  269MOL    H2238078   1.187   6.286   6.732 -0.8506  0.6630  1.9450
  269MOL    C2338079   1.136   6.522   7.052  0.2141  0.0067  0.4855
  269MOL    C2438080   1.173   6.670   7.041 -0.2164 -0.3332 -0.4999
  269MOL    O2538081   1.003   6.516   7.090  0.7278 -0.4028 -0.2289
  269MOL    H2638082   1.191   6.474   7.133  0.2546  0.3594  0.6686
  269MOL    H2738083   1.106   6.731   6.980 -0.8314  1.6315  2.0707
  269MOL    H2838084   1.273   6.674   6.997  0.5391 -1.6605  1.0355
  269MOL    H2938085   1.174   6.709   7.143  0.1300 -1.1941 -0.1658
  269MOL    C3038086   0.965   6.391   7.140 -0.3519  0.4366  0.3294
  269MOL    C3138087   0.966   6.399   7.292 -0.5571  0.4952  0.3197
  269MOL    O3238088   0.838   6.354   7.098 -0.0379  0.6488 -0.5618
  269MOL    H3338089   1.032   6.314   7.101  1.4877  1.1867  1.8829
  269MOL    H3438090   0.904   6.478   7.336 -0.2553  1.8773 -1.6440
  269MOL    H3538091   1.064   6.429   7.330  1.3182 -3.4652 -1.1581
  269MOL    H3638092   0.939   6.302   7.331 -0.7859  0.2433 -0.4597
  269MOL    C3738093   0.815   6.347   6.961 -0.7080 -0.2540 -0.3195
  269MOL    C3838094   0.831   6.203   6.901  0.1427  0.3330  0.0500
  269MOL    O3938095   0.689   6.398   6.927 -0.1376 -0.2860 -0.0228
  269MOL    H4038096   0.883   6.413   6.909 -0.1307 -0.1868  0.5235
  269MOL    H4138097   0.930   6.158   6.912  0.2903  1.1516  2.2195
  269MOL    H4238098   0.794   6.199   6.798  1.5415  0.6802 -0.4827
  269MOL    H4338099   0.776   6.142   6.972  0.3565  0.6998  0.5343
  269MOL    C4438100   0.679   6.538   6.946 -0.0691  0.3399 -0.0312
  269MOL    C4538101   0.697   6.605   6.815  0.6000  0.0057 -0.7489
  269MOL    O4638102   0.546   6.575   6.983  0.6863 -0.1997  0.0655
  269MOL    H4738103   0.750   6.562   7.025  0.0814  0.4278 -0.1953
  269MOL    H4838104   0.673   6.711   6.822 -0.9905 -0.3622 -0.5948
  269MOL    H4938105   0.637   6.562   6.735  3.2847 -2.2250 -1.6841
  269MOL    H5038106   0.802   6.594   6.788  0.8780  1.5259 -0.3218
  269MOL    C5138107   0.497   6.511   7.098 -0.2058 -0.4419 -0.0067
  269MOL    C5238108   0.488   6.613   7.211 -0.0891  0.0278 -0.0585
  269MOL    O5338109   0.368   6.465   7.073 -0.0797  0.1666 -0.0775
  269MOL    H5438110   0.552   6.422   7.128 -1.3103 -1.0136  0.3427
  269MOL    H5538111   0.592   6.644   7.222 -0.5474  1.7968 -0.5073
  269MOL    H5638112   0.453   6.568   7.304  1.3401  1.2717  1.1110
  269MOL    H5738113   0.422   6.697   7.191 -0.6735 -0.7008 -1.2817
  269MOL    C5838114   0.363   6.357   6.979  0.2819 -0.1596 -0.0913
  269MOL    C5938115   0.351   6.227   7.050 -0.8416  0.6249  0.3250
  269MOL    O6038116   0.240   6.368   6.915 -0.1015 -0.4795  0.4817
  269MOL    H6138117   0.447   6.362   6.910 -0.6550  1.0101 -1.1670
  269MOL    H6238118   0.444   6.209   7.103 -0.9306 -2.3112 -0.4417
  269MOL    H6338119   0.323   6.145   6.983 -0.1518  1.4688 -1.0028
  269MOL    H6438120   0.272   6.228   7.125 -1.3743 -0.0432 -0.2167
  269MOL    C6538121   0.242   6.477   6.821  0.3641  0.2518  0.5379
  269MOL    C6638122   0.208   6.418   6.691 -0.3138 -0.0846  0.3994
  269MOL    O6738123   0.130   6.564   6.847  0.7330 -0.1607 -0.2378
  269MOL    H6838124   0.340   6.523   6.812  0.4180  0.1919  0.7920
  269MOL    H6938125   0.197   6.495   6.614 -2.7232  1.0364  1.8115
  269MOL    H7038126   0.112   6.368   6.707 -0.7151  0.9699  1.2763
  269MOL    H7138127   0.284   6.349   6.652  1.4084  2.2823 -0.5484
  269MOL    C7238128   0.141   6.675   6.938  0.3076  0.7100 -0.0170
  269MOL    C7338129   0.140   6.801   6.855  0.1866  0.0266 -0.1207
  269MOL    O7438130   0.039   6.690   7.033 -0.4345  0.4338  0.0318
  269MOL    H7538131   0.234   6.675   6.996  1.1548  1.5390 -1.3653
  269MOL    H7638132   0.054   6.795   6.787 -1.4074 -0.9162  1.9529
  269MOL    H7738133   0.235   6.808   6.801 -0.2111 -1.6075 -1.0682
  269MOL    H7838134   0.125   6.889   6.918  2.2369  0.7086 -0.5512
  269MOL    C7938135   0.030   6.587   7.121 -0.0359  0.2775 -0.1275
  269MOL    C8038136   0.056   6.655   7.256  0.2523  0.3771 -0.2224
  269MOL    O8138137   7.810   6.551   7.131  0.5823 -0.3573 -0.3076
  269MOL    H8238138   0.095   6.504   7.091  0.6391  0.8890 -0.3631
  269MOL    H8338139   0.152   6.706   7.252 -0.7546  2.4989  1.6665
  269MOL    H8438140   0.082   6.580   7.331  2.2320  1.9348  0.6871
  269MOL    H8538141   7.890   6.722   7.287  0.9042 -0.0258  2.4899
  269MOL    C8638142   7.775   6.449   7.041  0.2288 -0.0406 -0.3566
  269MOL    C8738143   7.740   6.331   7.129  0.5778 -1.1643 -0.4866
  269MOL    O8838144   7.663   6.482   6.964  0.4647  0.9054  0.6367
  269MOL    H8938145   7.853   6.406   6.977  0.4911  0.2670 -0.2475
  269MOL    H9038146   7.821   6.294   7.192  1.1843  0.1768 -0.4556
  269MOL    H9138147   7.716   6.247   7.063 -2.4083 -0.8999  0.2019
  269MOL    H9238148   7.643   6.340   7.177  1.3852 -2.0047  1.3326
  269MOL    C9338149   7.700   6.573   6.868 -0.0048  0.3796  1.0217
  269MOL    C9438150   7.708   6.490   6.738 -0.3304 -0.5836  0.2094
  269MOL    O9538151   7.597   6.673   6.859  0.4054  0.2817  0.5544
  269MOL    H9638152   7.801   6.613   6.873  0.0034  0.5687 -0.6842
  269MOL    H9738153   7.719   6.545   6.645 -0.2472 -1.7023 -0.4575
  269MOL    H9838154   7.611   6.440   6.740 -0.5518 -0.1677 -0.1530
  269MOL    H9938155   7.792   6.420   6.746  2.7278  2.9430  0.1470
  269MOL   C10038156   7.631   6.787   6.925  0.4401  0.7220 -0.4927
  269MOL   C10138157   7.651   6.889   6.810  0.3014 -0.1202  0.3449
  269MOL   O10238158   7.531   6.819   7.007 -0.2747 -0.8846  0.0705
  269MOL   H10338159   7.731   6.789   6.966  0.1986  0.7403  0.0966
  269MOL   H10438160   7.734   6.850   6.751  0.9115 -1.2302  1.9105
  269MOL   H10538161   7.685   6.987   6.845  0.1714  0.4923 -1.1867
  269MOL   H10638162   7.563   6.898   6.746  1.1714 -2.4964 -1.2386
  269MOL   C10738163   7.533   6.751   7.123 -0.8659  0.7040  0.1064
  269MOL   C10838164   7.611   6.830   7.229  0.5328 -0.4826 -0.4539
  269MOL   O10938165   7.404   6.719   7.173  0.2337  0.2242  0.4617
  269MOL   H11038166   7.589   6.657   7.111 -2.2189 -0.1721  0.5663
  269MOL   H11138167   7.711   6.853   7.193  1.5013  0.2959  2.5904
  269MOL   H11238168   7.622   6.774   7.322  0.9545 -0.0759 -0.2625
  269MOL   H11338169   7.557   6.922   7.252  0.2589 -0.2365 -2.0507
  269MOL   C11438170   7.339   6.615   7.101 -0.0289  0.2982 -0.3569
  269MOL   C11538171   7.282   6.511   7.208 -0.2386 -0.3889 -0.0897
  269MOL   O11638172   7.227   6.656   7.033  0.5661  0.4198  0.5804
  269MOL   H11738173   7.407   6.558   7.037 -0.3882 -2.6670  1.8054
  269MOL   H11838174   7.216   6.446   7.151  0.6056 -1.8841  0.6060
  269MOL   H11938175   7.233   6.564   7.289  0.3061  1.8802 -1.1920
  269MOL   H12038176   7.364   6.452   7.251 -0.3528  0.4903  1.3539
  269MOL   C12138177   7.251   6.720   6.909  0.4369  0.4685 -0.3408
  269MOL   C12238178   7.221   6.620   6.800  0.1721  0.6646 -0.9969
  269MOL   O12338179   7.164   6.834   6.895 -0.1545 -0.0337 -0.0322
  269MOL   H12438180   7.347   6.771   6.902  0.6184  0.6289  2.4896
  269MOL   H12538181   7.278   6.530   6.819 -0.4039  0.1952 -1.4613
  269MOL   H12638182   7.248   6.656   6.700  0.2251  0.6275 -0.9958
  269MOL   H12738183   7.114   6.600   6.801  0.4588 -0.8903 -0.0692
  269MOL   C12838184   7.193   6.949   6.974  0.4324  0.1461 -0.2508
  269MOL   C12938185   7.239   7.060   6.887  0.0535 -0.1892  0.1161
  269MOL   O13038186   7.080   6.984   7.053  0.0842 -0.8368 -0.0278
  269MOL   H13138187   7.274   6.916   7.040  0.3849 -1.0924 -0.8028
  269MOL   H13238188   7.224   7.147   6.951 -0.3369  0.0857 -0.3407
  269MOL   H13338189   7.176   7.086   6.802  0.3144 -2.3579 -0.7758
  269MOL   H13438190   7.337   7.050   6.841  1.2075  0.7488  2.2840
  269MOL   C13538191   7.047   6.899   7.167 -0.5693  0.0491  0.4219
  269MOL   C13638192   6.942   6.964   7.264 -0.1759 -0.1177 -0.1385
  269MOL   O13738193   7.000   6.773   7.138  0.1440 -0.3380  0.3815
  269MOL   H13838194   7.140   6.894   7.225  0.8382 -1.5418 -1.9142
  269MOL   H13938195   6.910   6.891   7.338  0.0708  0.0316  0.1190
  269MOL   H14038196   6.845   6.982   7.219  0.2914  0.9194 -0.7519
  269MOL   H14138197   6.978   7.060   7.301  0.2806  0.0264 -0.9628
  269MOL   H14238198   7.068   6.740   7.082 -1.7095  0.6263 -2.5875
  270MOL     C138199   1.347   6.232   5.685  0.1314  0.4825 -0.0608
  270MOL     C238200   1.210   6.157   5.635 -0.0132 -0.6030 -0.0986
  270MOL     O338201   1.307   6.363   5.722  0.3714 -0.5289  0.5994
  270MOL     H438202   1.424   6.228   5.608  1.2663 -1.9962  1.1503
  270MOL     H538203   1.156   6.204   5.552 -1.0159 -0.2434  0.7506
  270MOL     H638204   1.142   6.167   5.719  0.7172  0.5222  0.3848
  270MOL     H738205   1.229   6.052   5.611  0.8486 -0.6748  0.8522
  270MOL     H838206   1.369   6.173   5.774  0.0137  0.4868 -0.0293
  270MOL     C938207   1.397   6.434   5.793  0.8600  0.6338  0.1189
  270MOL    C1038208   1.507   6.495   5.706 -0.1353  0.2032  0.0928
  270MOL    O1138209   1.335   6.542   5.846 -0.3028  1.0340  0.2480
  270MOL    H1238210   1.443   6.372   5.871  2.0992 -1.8099 -2.4658
  270MOL    H1338211   1.588   6.534   5.768  0.4954  0.1462 -0.6872
  270MOL    H1438212   1.470   6.577   5.645 -0.0099  0.2317  0.0540
  270MOL    H1538213   1.541   6.416   5.639 -1.4164  0.1974 -0.5644
  270MOL    C1638214   1.253   6.507   5.946  0.4200  0.6938  0.3775
  270MOL    C1738215   1.334   6.535   6.073 -0.3997  0.1974  0.8973
  270MOL    O1838216   1.138   6.587   5.954  0.3361 -0.3015 -0.1894
  270MOL    H1938217   1.199   6.412   5.952  1.6249  0.1074  2.2612
  270MOL    H2038218   1.269   6.532   6.160 -0.1194  0.3025  1.1071
  270MOL    H2138219   1.382   6.633   6.070 -1.6385  0.8156 -4.0050
  270MOL    H2238220   1.408   6.457   6.087 -0.1699  0.2386 -0.0624
  270MOL    C2338221   1.053   6.574   5.847  0.0645  0.6481  0.7173
  270MOL    C2438222   0.928   6.486   5.886 -0.1377  0.5571  0.4998
  270MOL    O2538223   0.999   6.698   5.813  0.0037 -0.7150  0.7406
  270MOL    H2638224   1.110   6.525   5.767  0.6013  1.9762  0.2598
  270MOL    H2738225   0.960   6.384   5.865  2.9499  1.7886 -1.1126
  270MOL    H2838226   0.842   6.504   5.823  0.8780  2.6687 -0.3313
  270MOL    H2938227   0.901   6.481   5.992 -1.7239 -2.3672  0.0021
  270MOL    C3038228   1.090   6.795   5.772  0.1762 -0.4628  0.1201
  270MOL    C3138229   1.142   6.762   5.625 -0.9581  0.4489 -0.1176
  270MOL    O3238230   1.025   6.917   5.763 -0.0068 -0.0320 -0.1335
  270MOL    H3338231   1.176   6.799   5.839  2.0924 -0.3679 -2.2754
  270MOL    H3438232   1.203   6.672   5.633 -0.0812  1.1497  1.2290
  270MOL    H3538233   1.212   6.837   5.589 -0.1299 -0.2833 -0.0657
  270MOL    H3638234   1.056   6.743   5.561 -0.9367 -2.1849  0.5479
  270MOL    C3738235   1.024   6.992   5.878  0.6259  0.8042 -0.1568
  270MOL    C3838236   1.133   7.089   5.868  0.0315 -0.4663  0.2634
  270MOL    O3938237   0.899   7.053   5.891  0.5535 -0.3857 -0.0321
  270MOL    H4038238   1.037   6.931   5.968  0.3830 -1.4657 -1.6310
  270MOL    H4138239   1.122   7.153   5.956 -1.4105 -0.8504  0.3656
  270MOL    H4238240   1.120   7.154   5.782  1.7113  1.5335  1.4614
  270MOL    H4338241   1.238   7.059   5.872 -0.1737 -0.9831  2.4329
  270MOL    C4438242   0.803   6.960   5.941 -0.0165 -0.5564  0.7286
  270MOL    C4538243   0.785   6.991   6.094 -0.1610 -0.2698  0.2913
  270MOL    O4638244   0.678   6.991   5.892  0.3141 -0.4215 -0.4486
  270MOL    H4738245   0.825   6.853   5.940  1.1214 -0.3447 -1.8072
  270MOL    H4838246   0.714   6.920   6.135  0.0798 -1.0180 -0.5804
  270MOL    H4938247   0.742   7.091   6.095  1.2839  0.4275 -2.2133
  270MOL    H5038248   0.877   6.974   6.150 -0.0076  0.2822  0.2117
  270MOL    C5138249   0.660   6.955   5.762  0.3019 -0.0656 -0.3735
  270MOL    C5238250   0.595   6.812   5.774 -0.4958 -0.7909  0.5818
  270MOL    O5338251   0.563   7.030   5.693  0.6191 -0.2221  0.4772
  270MOL    H5438252   0.749   6.963   5.699 -1.1807  1.9180 -2.2987
  270MOL    H5538253   0.520   6.818   5.853 -1.1132  2.5322 -0.1839
  270MOL    H5638254   0.676   6.742   5.793  1.3786  0.8632 -1.0982
  270MOL    H5738255   0.540   6.789   5.683 -0.0924  0.2592  0.0700
  270MOL    C5838256   0.597   7.161   5.688 -0.1525  0.1698  0.0291
  270MOL    C5938257   0.651   7.186   5.543 -0.0450 -0.4005  0.5686
  270MOL    O6038258   0.494   7.240   5.722  0.0624  0.3794 -0.0140
  270MOL    H6138259   0.675   7.188   5.760  1.1404 -2.9628 -0.1335
  270MOL    H6238260   0.673   7.291   5.524 -1.1107 -0.5449 -1.6420
  270MOL    H6338261   0.570   7.171   5.472  0.2635  4.5367 -0.9871
  270MOL    H6438262   0.736   7.123   5.518  0.5266  0.0965  1.2459
  270MOL    C6538263   0.433   7.217   5.847  1.1096  0.3677 -0.0316
  270MOL    C6638264   0.495   7.320   5.944 -0.3169  0.3001  0.4568
  270MOL    O6738265   0.296   7.259   5.844  0.5231 -0.5334  0.1109
  270MOL    H6838266   0.440   7.116   5.888  1.6552 -0.3510 -1.8459
  270MOL    H6938267   0.494   7.424   5.910 -0.2824  0.4250  0.8353
  270MOL    H7038268   0.598   7.302   5.971  0.0978  2.1335  0.2012
  270MOL    H7138269   0.429   7.321   6.030  1.8353  0.5992  2.1339
  270MOL    C7238270   0.222   7.199   5.741 -0.6599 -0.6057  0.4189
  270MOL    C7338271   0.134   7.090   5.795 -0.4189  0.4149  0.5884
  270MOL    O7438272   0.136   7.292   5.677 -0.1100  0.0662 -0.1344
  270MOL    H7538273   0.281   7.154   5.662 -2.9193 -1.4758 -0.8103
  270MOL    H7638274   0.192   7.027   5.863 -1.2922  0.1851  1.1362
  270MOL    H7738275   0.094   7.033   5.711  1.1484  1.4732 -0.9260
  270MOL    H7838276   0.051   7.126   5.856 -1.7296 -1.3038 -0.1078
  270MOL    C7938277   0.208   7.390   5.598 -0.2692  0.2785 -0.2787
  270MOL    C8038278   0.173   7.360   5.456  0.1240 -0.3317 -0.6609
  270MOL    O8138279   0.169   7.520   5.628 -0.2160 -0.2371  0.0763
  270MOL    H8238280   0.315   7.370   5.599 -0.2655  0.0363 -3.0343
  270MOL    H8338281   0.069   7.368   5.426  0.4133  0.1522 -1.5504
  270MOL    H8438282   0.214   7.263   5.428  0.7288  0.1168 -1.3332
  270MOL    H8538283   0.216   7.437   5.392 -0.4713 -0.5043 -1.2627
  270MOL    C8638284   0.245   7.569   5.734  0.7516  0.0693 -1.1384
  270MOL    C8738285   0.351   7.648   5.668 -0.0454 -0.3247  0.3928
  270MOL    O8838286   0.167   7.652   5.812  0.1147 -0.2904 -0.2506
  270MOL    H8938287   0.299   7.495   5.792  1.5537  1.3306 -0.2468
  270MOL    H9038288   0.422   7.594   5.605 -1.3789  3.9263 -5.1202
  270MOL    H9138289   0.410   7.678   5.754  0.5606  0.7219 -0.3762
  270MOL    H9238290   0.311   7.733   5.612 -1.2330 -1.8380 -1.1111
  270MOL    C9338291   0.085   7.577   5.899  0.1107  0.5515  0.3983
  270MOL    C9438292   0.127   7.615   6.038 -0.7882 -0.7623  0.5555
  270MOL    O9538293   7.862   7.603   5.884  0.1319 -0.1871  0.1586
  270MOL    H9638294   0.088   7.469   5.887 -0.8069  0.2293  2.7996
  270MOL    H9738295   0.133   7.721   6.063  1.5180 -0.2032 -2.0647
  270MOL    H9838296   0.235   7.600   6.049 -0.6701  0.4035  1.1364
  270MOL    H9938297   0.076   7.565   6.120 -1.4203  4.3417  3.5349
  270MOL   C10038298   7.804   7.548   5.769  0.3386 -0.0980 -0.0987
  270MOL   C10138299   7.715   7.438   5.807 -0.3391 -0.3689  0.0425
  270MOL   O10238300   7.723   7.640   5.710 -0.1447  0.5807  0.2813
  270MOL   H10338301   7.875   7.503   5.700 -1.4737 -1.3069 -1.2244
  270MOL   H10438302   7.771   7.359   5.857 -0.3868 -0.7011 -0.4275
  270MOL   H10538303   7.663   7.395   5.722  1.3541  1.0349 -1.7619
  270MOL   H10638304   7.639   7.476   5.876  1.3345  0.2099  1.6338
  270MOL   C10738305   7.801   7.740   5.644 -0.0684  0.8511 -0.3579
  270MOL   C10838306   7.814   7.694   5.500 -0.4139 -0.3405 -0.3242
  270MOL   O10938307   7.723   7.863   5.650  0.3226 -0.2893  0.2069
  270MOL   H11038308   7.897   7.760   5.690  0.5978  1.3615 -1.9384
  270MOL   H11138309   7.715   7.689   5.455  1.1609 -2.2498 -3.8466
  270MOL   H11238310   7.858   7.594   5.491  1.6796  0.5887 -0.7703
  270MOL   H11338311   7.876   7.765   5.445  0.7566 -1.1635 -0.1042
  270MOL   C11438312   7.723   0.008   5.776  0.3700  0.3294 -0.3905
  270MOL   C11538313   7.802   0.142   5.762 -0.0793 -0.1940 -0.2274
  270MOL   O11638314   7.592   0.039   5.811  0.0798 -0.1076 -0.1767
  270MOL   H11738315   7.777   7.860   5.847  1.7127  0.6290 -1.1180
  270MOL   H11838316   7.817   0.189   5.859 -0.5344 -0.6947  0.0862
  270MOL   H11938317   7.751   0.217   5.702  2.0339  2.0773  0.7000
  270MOL   H12038318   7.900   0.122   5.719 -0.5695 -1.4182 -0.8057
  270MOL   C12138319   7.515   7.838   5.845  0.3970  1.0477 -1.0043
  270MOL   C12238320   7.480   7.856   5.995  0.9468  0.1514 -0.4163
  270MOL   O12338321   7.392   7.839   5.776 -0.3016 -0.2885 -0.3307
  270MOL   H12438322   7.562   7.742   5.825 -1.6063  0.1987 -1.6616
  270MOL   H12538323   7.567   7.835   6.058 -0.9566  0.4627  2.3893
  270MOL   H12638324   7.406   7.789   6.038  3.3716 -0.2953  3.3543
  270MOL   H12738325   7.438   0.043   5.999 -1.5928 -0.8379 -1.4270
  270MOL   C12838326   7.378   7.762   5.660 -0.5944  1.1386  0.7290
  270MOL   C12938327   7.285   7.653   5.685  0.1053 -0.3452 -0.0664
  270MOL   O13038328   7.323   7.824   5.550  0.6732 -0.1580 -0.1456
  270MOL   H13138329   7.475   7.718   5.634 -0.6157  1.7081 -0.3483
  270MOL   H13238330   7.195   7.694   5.729  0.7097 -0.0542  0.9087
  270MOL   H13338331   7.330   7.575   5.747 -1.2166  0.2500  1.6688
  270MOL   H13438332   7.260   7.613   5.587 -0.6616 -2.6818  1.0434
  270MOL   C13538333   7.420   7.902   5.482  0.2075  0.1044 -0.3869
  270MOL   C13638334   7.376   0.014   5.345 -0.0033  0.8773 -0.1868
  270MOL   O13738335   7.444   0.104   5.558 -0.5198  0.2122 -0.1403
  270MOL   H13838336   7.522   7.864   5.482  0.6330  1.2030 -0.1019
  270MOL   H13938337   7.462   0.044   5.284  0.4317  1.1036  0.5329
  270MOL   H14038338   7.287   0.076   5.334  0.8859  2.2829  0.3335
  270MOL   H14138339   7.352   7.828   5.310 -1.4441 -0.3235  3.9528
  270MOL   H14238340   7.485   0.071   5.636  0.6643  0.3088 -0.7073
  271MOL     C138341   0.231   0.264   5.961  0.2898  0.2498  0.2873
  271MOL     C238342   0.127   0.344   6.040  0.3870 -0.3002  0.0841
  271MOL     O338343   0.228   0.131   5.984  0.2188  0.3516 -0.2538
  271MOL     H438344   0.331   0.298   5.987  1.6415 -3.2746 -0.0537
  271MOL     H538345   0.149   0.450   6.027 -2.1079  0.0629 -1.5691
  271MOL     H638346   0.143   0.327   6.146 -0.0909 -1.3828 -0.0077
  271MOL     H738347   0.024   0.322   6.011  1.0040 -0.4511 -2.1390
  271MOL     H838348   0.208   0.289   5.857 -1.6099  3.5783  1.4316
  271MOL     C938349   0.313   0.037   5.926  0.0512 -0.2495  0.0517
  271MOL    C1038350   0.342   0.070   5.774 -0.1600  0.7498 -0.5410
  271MOL    O1138351   0.438   0.030   5.985 -0.1842 -0.2273  0.1232
  271MOL    H1238352   0.258   7.857   5.927 -0.9098  0.3076  0.1415
  271MOL    H1338353   0.249   0.061   5.717  0.5488 -2.7076 -1.2472
  271MOL    H1438354   0.423   0.013   5.731 -0.4079  1.1889 -1.6036
  271MOL    H1538355   0.388   0.169   5.767  0.4395  0.5520  0.6056
  271MOL    C1638356   0.431   7.870   6.104 -0.4981  0.2441 -0.3548
  271MOL    C1738357   0.497   7.740   6.068  0.0229  0.1493  0.3890
  271MOL    O1838358   0.511   0.021   6.196 -0.8672  0.7753  0.1019
  271MOL    H1938359   0.332   7.850   6.146 -0.0892 -1.5559 -0.1894
  271MOL    H2038360   0.478   7.661   6.141  0.0572 -1.6598 -1.5302
  271MOL    H2138361   0.605   7.746   6.063 -0.0738  0.5933 -1.7560
  271MOL    H2238362   0.458   7.704   5.973  0.7492 -1.0183  0.5264
  271MOL    C2338363   0.435   0.121   6.267  0.0596  0.6152 -0.3907
  271MOL    C2438364   0.365   0.053   6.392 -0.9480 -0.1151  0.7282
  271MOL    O2538365   0.518   0.211   6.316 -0.1080 -0.2814 -0.0406
  271MOL    H2638366   0.357   0.170   6.209 -1.1531  2.3824  2.6395
  271MOL    H2738367   0.362   0.123   6.476  1.2183  0.9587 -0.0617
  271MOL    H2838368   0.433   7.889   6.426 -0.2942 -0.3280 -1.0252
  271MOL    H2938369   0.266   0.019   6.362 -0.4901 -2.3310  1.6272
  271MOL    C3038370   0.593   0.279   6.217  0.0807  0.6893  0.0979
  271MOL    C3138371   0.521   0.416   6.193 -0.1110 -0.0076 -0.1133
  271MOL    O3238372   0.715   0.301   6.270 -0.0266 -0.1163 -0.2945
  271MOL    H3338373   0.610   0.219   6.128  2.1181 -0.4863  1.2384
  271MOL    H3438374   0.572   0.466   6.110 -0.3925  1.7733  0.7552
  271MOL    H3538375   0.518   0.486   6.277 -0.4279 -2.1944  1.7269
  271MOL    H3638376   0.419   0.402   6.157 -0.6476 -0.0169  1.3745
  271MOL    C3738377   0.803   0.193   6.254  0.4295  0.8308  0.2752
  271MOL    C3838378   0.891   0.226   6.133  0.5114 -0.2200 -0.0122
  271MOL    O3938379   0.889   0.171   6.363  0.1647 -0.1715  0.6139
  271MOL    H4038380   0.757   0.095   6.241 -0.0327  0.7119  2.4864
  271MOL    H4138381   0.831   0.265   6.051  1.3210 -1.9708 -1.4711
  271MOL    H4238382   0.929   0.129   6.099 -1.0403 -0.4256 -1.1872
  271MOL    H4338383   0.959   0.307   6.159 -2.2411  1.5153  2.0170
  271MOL    C4438384   0.817   0.158   6.483  0.2859  0.5117 -0.2698
  271MOL    C4538385   0.884   0.041   6.563  0.4145  0.2774  0.2256
  271MOL    O4638386   0.831   0.272   6.561  0.2403 -0.0979 -0.7805
  271MOL    H4738387   0.711   0.133   6.473  0.5598 -0.6844 -0.1699
  271MOL    H4838388   0.993   0.039   6.559  0.4788 -0.5293  2.0163
  271MOL    H4938389   0.846   7.865   6.515 -0.6528  0.4046  0.8131
  271MOL    H5038390   0.854   0.034   6.667 -0.3404  0.9826  0.0617
  271MOL    C5138391   0.721   0.366   6.573 -0.0190 -0.7203  0.1150
  271MOL    C5238392   0.650   0.324   6.699 -0.5176 -0.0692 -0.2336
  271MOL    O5338393   0.771   0.499   6.595 -0.1681 -0.1755 -0.2524
  271MOL    H5438394   0.648   0.375   6.491  0.8678  0.4772 -0.5679
  271MOL    H5538395   0.727   0.311   6.775 -0.4933  0.0127 -0.2444
  271MOL    H5638396   0.610   0.224   6.678  0.2551 -0.0826 -1.6706
  271MOL    H5738397   0.573   0.393   6.733  1.4744  1.3283  1.5486
  271MOL    C5838398   0.832   0.557   6.489 -0.2909  0.9513 -0.2049
  271MOL    C5938399   0.751   0.684   6.480  0.1351  0.2372  1.0126
  271MOL    O6038400   0.971   0.593   6.508  0.3272  0.5511 -0.2839
  271MOL    H6138401   0.835   0.496   6.399 -2.7659 -1.1945  1.1188
  271MOL    H6238402   0.754   0.745   6.571 -1.1915  1.5774  0.1822
  271MOL    H6338403   0.646   0.659   6.462  0.5953 -0.2236 -1.1280
  271MOL    H6438404   0.784   0.745   6.397 -2.5459  1.7388  0.9873
  271MOL    C6538405   1.066   0.497   6.471  0.6507  0.4708 -0.0196
  271MOL    C6638406   1.123   0.548   6.339 -0.3347  0.5749 -0.1862
  271MOL    O6738407   1.169   0.478   6.572 -0.6263 -0.1949  0.0948
  271MOL    H6838408   1.021   0.400   6.452  2.9800 -0.4597 -0.9239
  271MOL    H6938409   1.153   0.649   6.368 -0.7645  0.6475  0.0038
  271MOL    H7038410   1.055   0.557   6.255 -1.2033  2.5993  0.7147
  271MOL    H7138411   1.205   0.483   6.308 -1.9352 -2.0020  0.9053
  271MOL    C7238412   1.125   0.424   6.693  0.0695  0.4677 -0.4678
  271MOL    C7338413   1.186   0.296   6.697  0.0452  0.5969 -0.3364
  271MOL    O7438414   1.158   0.494   6.806 -0.6284  0.1607  0.3140
  271MOL    H7538415   1.018   0.408   6.702 -0.3082  3.1012  0.1009
  271MOL    H7638416   1.294   0.304   6.691  0.0991 -0.5412 -1.1088
  271MOL    H7738417   1.157   0.232   6.614 -0.9843  2.2245 -1.2444
  271MOL    H7838418   1.163   0.243   6.790 -0.2803  0.3761 -0.5405
  271MOL    C7938419   1.082   0.611   6.824 -0.4778  0.2020 -0.4004
  271MOL    C8038420   1.037   0.614   6.975  0.8053 -0.1670  1.1924
  271MOL    O8138421   1.155   0.729   6.812  0.1938 -0.0547  0.1344
  271MOL    H8238422   0.987   0.620   6.773  0.0246 -0.1695 -1.4059
  271MOL    H8338423   1.132   0.620   7.026  0.6540  2.5368  1.2098
  271MOL    H8438424   0.982   0.528   7.015  0.3029 -0.3881  0.0580
  271MOL    H8538425   0.973   0.696   7.006  0.0026  1.2217 -3.7204
  271MOL    C8638426   1.162   0.782   6.687  0.3341  0.3479 -0.0056
  271MOL    C8738427   1.059   0.889   6.676  0.7469  0.2476  0.4478
  271MOL    O8838428   1.288   0.838   6.672  0.7690 -0.5431  0.0422
  271MOL    H8938429   1.158   0.712   6.604 -0.1419  1.7244 -1.1705
  271MOL    H9038430   1.069   0.952   6.588 -0.8863 -1.5339 -1.0557
  271MOL    H9138431   1.072   0.947   6.768 -0.7601 -0.4643  1.1473
  271MOL    H9238432   0.962   0.839   6.684  0.5213  0.8046  1.3921
  271MOL    C9338433   1.388   0.747   6.667 -0.2491 -0.5728 -0.3024
  271MOL    C9438434   1.438   0.744   6.520 -0.8100 -0.1513  0.1976
  271MOL    O9538435   1.493   0.780   6.756  0.2825 -0.0021 -0.2127
  271MOL    H9638436   1.345   0.649   6.691  0.7143 -0.7681  0.6462
  271MOL    H9738437   1.360   0.711   6.451 -1.6582  1.4756  0.3459
  271MOL    H9838438   1.516   0.670   6.533  0.6946  1.1640 -1.0862
  271MOL    H9938439   1.480   0.841   6.491 -0.6699 -0.9496 -2.3920
  271MOL   C10038440   1.486   0.739   6.887 -0.5391 -0.1267  0.4682
  271MOL   C10138441   1.601   0.642   6.900 -0.5929  0.5866 -0.5264
  271MOL   O10238442   1.501   0.842   6.980 -0.4644 -0.0581  0.1551
  271MOL   H10338443   1.395   0.687   6.919 -0.5421  0.6671  1.7664
  271MOL   H10438444   1.561   0.547   6.866 -2.0944  0.4306  1.5477
  271MOL   H10538445   1.642   0.629   7.000  0.1215  0.6513 -0.8058
  271MOL   H10638446   1.684   0.683   6.843  1.3691 -0.0677  1.8085
  271MOL   C10738447   1.394   0.932   6.990 -0.0296  1.1803  0.3644
  271MOL   C10838448   1.325   0.911   7.125 -0.0005 -0.7341  0.7538
  271MOL   O10938449   1.426   1.064   6.978 -0.0633 -0.6297  0.6160
  271MOL   H11038450   1.315   0.912   6.917 -1.0033 -0.0890  1.7251
  271MOL   H11138451   1.283   0.810   7.130 -0.2062 -0.6926 -0.1540
  271MOL   H11238452   1.241   0.980   7.129  1.5146  1.3076 -1.4337
  271MOL   H11338453   1.399   0.931   7.202  0.1991 -1.4592  0.7562
  271MOL   C11438454   1.435   1.110   6.844 -0.2271 -0.2432 -0.2712
  271MOL   C11538455   1.317   1.207   6.810 -0.0263 -0.0278  0.1901
  271MOL   O11638456   1.550   1.173   6.813 -0.1116  0.3199  0.3779
  271MOL   H11738457   1.420   1.023   6.780 -1.9518 -1.2820  1.4683
  271MOL   H11838458   1.307   1.228   6.703 -1.4851  0.0643  0.3238
  271MOL   H11938459   1.316   1.302   6.864  1.9009  0.7684 -1.1080
  271MOL   H12038460   1.221   1.166   6.841 -0.4932  1.5829  0.9131
  271MOL   C12138461   1.667   1.086   6.811  0.4640 -0.3193  0.6552
  271MOL   C12238462   1.689   1.029   6.668  0.2082 -0.5923 -0.2265
  271MOL   O12338463   1.785   1.153   6.840  0.6157 -0.1249 -0.0925
  271MOL   H12438464   1.656   1.006   6.884 -1.2327 -1.0595 -0.4028
  271MOL   H12538465   1.597   0.973   6.651 -0.1411  0.3495 -1.4637
  271MOL   H12638466   1.788   0.985   6.669  0.5147  0.0958  0.5402
  271MOL   H12738467   1.668   1.107   6.595 -0.9965  0.4645  1.2136
  271MOL   C12838468   1.806   1.171   6.978  0.5543 -0.3651 -0.1392
  271MOL   C12938469   1.925   1.082   7.023 -0.0437 -0.4946  0.1113
  271MOL   O13038470   1.838   1.301   7.004  0.0920  0.2568 -0.0286
  271MOL   H13138471   1.716   1.148   7.035  1.3878 -2.5773  0.3345
  271MOL   H13238472   2.013   1.121   6.971  0.4432  0.4893  1.6542
  271MOL   H13338473   1.901   0.979   6.995 -2.0606  0.6477 -2.6911
  271MOL   H13438474   1.937   1.096   7.130 -1.3007  2.2509 -0.0545
  271MOL   C13538475   1.724   1.390   7.017  0.1637 -0.7545  0.5243
  271MOL   C13638476   1.768   1.524   7.084  0.0348 -0.5068  0.5484
  271MOL   O13738477   1.658   1.416   6.899 -0.3043 -0.2620  0.0807
  271MOL   H13838478   1.651   1.350   7.087 -2.8969  0.3407 -1.9340
  271MOL   H13938479   1.804   1.497   7.183 -2.8116 -1.0971  1.4381
  271MOL   H14038480   1.683   1.589   7.103  0.2775 -0.4016  1.2859
  271MOL   H14138481   1.851   1.581   7.040 -0.2017  0.4634  1.3517
  271MOL   H14238482   1.598   1.346   6.878 -0.6464 -1.1551  3.6690
  272MOL     C138483   2.315   2.751   1.476  0.2651 -0.5370  0.1249
  272MOL     C238484   2.171   2.797   1.446  0.2179 -0.3412 -0.6372
  272MOL     O338485   2.408   2.861   1.475 -0.0788  0.5503 -0.0088
  272MOL     H438486   2.340   2.678   1.400  0.2320 -1.2655  0.8146
  272MOL     H538487   2.088   2.726   1.457 -0.9177  0.8376 -1.4597
  272MOL     H638488   2.168   2.843   1.347  1.7864  0.3906 -0.3499
  272MOL     H738489   2.155   2.880   1.515  0.3988 -1.7083  1.0923
  272MOL     H838490   2.327   2.695   1.568 -0.6973 -1.2657 -0.1872
  272MOL     C938491   2.537   2.823   1.497 -0.0638  0.1073 -0.5177
  272MOL    C1038492   2.647   2.928   1.460 -0.1510 -0.5821  0.2840
  272MOL    O1138493   2.553   2.802   1.635  0.2054 -0.4185 -0.0825
  272MOL    H1238494   2.561   2.734   1.439  1.4967  0.3063 -0.1931
  272MOL    H1338495   2.749   2.898   1.481 -0.4820 -0.9412  1.3709
  272MOL    H1438496   2.635   3.018   1.520 -1.8844 -0.5231 -0.1300
  272MOL    H1538497   2.637   2.950   1.353 -1.3514 -3.5501 -0.2807
  272MOL    C1638498   2.615   2.680   1.671  0.2861 -0.4264  0.3365
  272MOL    C1738499   2.647   2.678   1.819 -0.0003 -0.3338  0.1422
  272MOL    O1838500   2.520   2.586   1.656 -0.1542 -0.6391 -0.0771
  272MOL    H1938501   2.708   2.673   1.613  0.9761 -1.2739  1.5123
  272MOL    H2038502   2.679   2.577   1.847 -0.2662 -1.1099 -2.2296
  272MOL    H2138503   2.557   2.704   1.875 -0.6644 -1.6842 -0.2700
  272MOL    H2238504   2.731   2.745   1.834 -0.0815  0.6276 -3.2268
  272MOL    C2338505   2.566   2.465   1.610  0.4795  0.4181  0.3302
  272MOL    C2438506   2.447   2.378   1.595 -0.4972 -0.3569  0.0877
  272MOL    O2538507   2.620   2.475   1.483 -0.4099 -0.3483  0.8978
  272MOL    H2638508   2.625   2.408   1.682 -0.0157  1.1446  1.3247
  272MOL    H2738509   2.400   2.365   1.693  0.3290  1.4085  0.7284
  272MOL    H2838510   2.482   2.280   1.561 -2.3278 -0.7503 -0.7513
  272MOL    H2938511   2.380   2.419   1.519  0.6526  0.2375 -0.6109
  272MOL    C3038512   2.741   2.410   1.477 -0.1153  0.9334 -0.1164
  272MOL    C3138513   2.770   2.413   1.323  0.3891 -0.2253  0.3250
  272MOL    O3238514   2.832   2.481   1.543 -0.0689 -0.4875 -0.3479
  272MOL    H3338515   2.731   2.307   1.511 -1.5395  0.4394 -1.9176
  272MOL    H3438516   2.763   2.515   1.285  1.4330  0.9238  3.1323
  272MOL    H3538517   2.689   2.357   1.276  0.0460 -2.0949  3.0465
  272MOL    H3638518   2.869   2.373   1.302  0.3311  0.5774 -1.5985
  272MOL    C3738519   2.926   2.399   1.612 -0.0534  0.1981  0.9249
  272MOL    C3838520   3.039   2.498   1.659 -0.6070 -0.1984  0.8432
  272MOL    O3938521   2.862   2.325   1.710 -0.0474  0.1941 -0.4791
  272MOL    H4038522   2.967   2.333   1.535  1.3987 -1.5672  3.1275
  272MOL    H4138523   3.095   2.551   1.583 -2.8340 -0.5716 -1.1433
  272MOL    H4238524   3.100   2.439   1.728 -3.4803 -1.9338  2.0384
  272MOL    H4338525   2.988   2.567   1.726  0.6715  0.1565  1.4524
  272MOL    C4438526   2.924   2.203   1.741 -0.0893  0.3603 -0.8142
  272MOL    C4538527   2.878   2.160   1.880 -0.1427 -0.3886  0.2218
  272MOL    O4638528   2.873   2.106   1.659  0.4878 -0.1862  0.2597
  272MOL    H4738529   3.030   2.212   1.719  0.1266  1.2206  0.4929
  272MOL    H4838530   2.769   2.162   1.881 -0.1943 -2.6949  2.2923
  272MOL    H4938531   2.905   2.236   1.954  1.1096  0.3401 -0.9515
  272MOL    H5038532   2.932   2.070   1.908  1.8353  0.9369  0.7452
  272MOL    C5138533   2.966   2.017   1.602 -0.2416  0.4056 -0.0544
  272MOL    C5238534   2.892   1.893   1.550  0.2055  0.3317  0.6120
  272MOL    O5338535   3.015   2.078   1.490 -0.3252  0.5573  0.0050
  272MOL    H5438536   3.047   1.980   1.665 -2.2784  0.0651  2.4448
  272MOL    H5538537   2.853   1.833   1.633  4.5896 -3.6604 -0.0027
  272MOL    H5638538   2.958   1.845   1.478 -1.1375 -0.1086 -0.3416
  272MOL    H5738539   2.809   1.940   1.497 -0.1047 -0.7881  0.0916
  272MOL    C5838540   3.157   2.072   1.478  0.3688  0.4464  0.7951
  272MOL    C5938541   3.173   2.099   1.328 -0.5014  0.9977 -0.7036
  272MOL    O6038542   3.216   2.181   1.544  0.2350  1.0634  0.3625
  272MOL    H6138543   3.193   1.975   1.511 -0.0698  0.8141  2.3873
  272MOL    H6238544   3.278   2.098   1.298 -0.8130  1.7786 -1.8481
  272MOL    H6338545   3.129   2.195   1.302 -2.9294 -0.4438 -2.1299
  272MOL    H6438546   3.121   2.021   1.273  2.3838 -1.8662  0.4640
  272MOL    C6538547   3.329   2.139   1.620  0.5900  0.1925 -0.0454
  272MOL    C6638548   3.401   2.263   1.664  0.7606 -0.3318  0.0397
  272MOL    O6738549   3.289   2.082   1.740  0.4250 -0.6598 -0.0729
  272MOL    H6838550   3.389   2.069   1.563 -0.2366 -0.9524  0.4773
  272MOL    H6938551   3.429   2.326   1.579 -1.2635 -1.5089 -1.5440
  272MOL    H7038552   3.491   2.232   1.716  1.5108 -1.5426 -1.9408
  272MOL    H7138553   3.341   2.316   1.739 -0.5412  0.2060 -1.3432
  272MOL    C7238554   3.370   1.980   1.790 -0.1808  0.1429 -0.1328
  272MOL    C7338555   3.297   1.915   1.914 -0.1564 -0.2559  0.0103
  272MOL    O7438556   3.388   1.885   1.687 -0.2688  0.9117  0.1410
  272MOL    H7538557   3.468   2.020   1.817 -1.0221  2.4835 -0.4421
  272MOL    H7638558   3.268   1.988   1.989 -0.1761  0.5583 -0.7823
  272MOL    H7738559   3.363   1.834   1.945  1.4598  0.1690 -2.1699
  272MOL    H7838560   3.204   1.867   1.886  0.7826 -2.4899  0.5940
  272MOL    C7938561   3.521   1.845   1.666 -0.2199 -1.3444  0.3358
  272MOL    C8038562   3.522   1.717   1.590 -0.0681  0.1304 -0.4089
  272MOL    O8138563   3.589   1.943   1.591  0.1879  0.1133 -0.1777
  272MOL    H8238564   3.564   1.834   1.765  0.1240 -0.1417  0.3326
  272MOL    H8338565   3.622   1.674   1.582 -0.7821 -2.1580  2.4283
  272MOL    H8438566   3.484   1.735   1.489  0.8304 -0.6466 -0.8962
  272MOL    H8538567   3.458   1.643   1.638  0.5927  1.7495  3.1315
  272MOL    C8638568   3.711   1.965   1.638 -0.8002  0.0908 -0.3246
  272MOL    C8738569   3.788   2.038   1.521  0.0704  0.7174  0.0997
  272MOL    O8838570   3.705   2.052   1.747 -0.4050 -0.1329  0.1345
  272MOL    H8938571   3.772   1.875   1.645 -1.3656 -0.2702 -0.0482
  272MOL    H9038572   3.894   2.044   1.546  0.6754  0.2727 -2.2492
  272MOL    H9138573   3.742   2.131   1.488  0.7246  0.5367 -1.3712
  272MOL    H9238574   3.779   1.967   1.439 -0.2117 -0.2390  0.9413
  272MOL    C9338575   3.784   2.025   1.856 -0.0230 -0.4486  0.4763
  272MOL    C9438576   3.809   2.161   1.923  0.2200  0.0334 -0.4027
  272MOL    O9538577   3.709   1.943   1.948 -0.8636 -0.3687  0.5977
  272MOL    H9638578   3.884   1.991   1.830 -0.2987 -2.2218  1.6379
  272MOL    H9738579   3.716   2.200   1.964 -0.8697 -1.8203 -1.0781
  272MOL    H9838580   3.856   2.213   1.839 -0.4141 -0.1055 -0.8424
  272MOL    H9938581   3.882   2.141   2.001 -2.4179  0.1298  2.1730
  272MOL   C10038582   3.768   1.823   1.978 -0.7727  0.1787 -0.1665
  272MOL   C10138583   3.680   1.772   2.098 -0.1396  0.7231 -0.1491
  272MOL   O10238584   3.757   1.728   1.876 -0.0133  0.0352 -0.4548
  272MOL   H10338585   3.866   1.834   2.024  0.0593  0.8280 -2.0478
  272MOL   H10438586   3.698   1.820   2.195 -1.8890 -0.4947  0.8030
  272MOL   H10538587   3.690   1.664   2.107  1.6973  0.8792 -0.0966
  272MOL   H10638588   3.576   1.791   2.071 -0.6769  0.7711  1.8633
  272MOL   C10738589   3.877   1.664   1.849  0.2136 -0.2171 -0.0831
  272MOL   C10838590   3.843   1.530   1.774  0.1925 -0.3488 -0.0954
  272MOL   O10938591   3.943   1.753   1.760 -0.1081  0.5690  0.3976
  272MOL   H11038592   3.934   1.654   1.941 -2.8461 -1.1764  1.8191
  272MOL   H11138593   3.766   1.474   1.827  2.0932 -1.3367  1.6390
  272MOL   H11238594   3.932   1.470   1.755  1.5991  1.1211  1.6990
  272MOL   H11338595   3.804   1.560   1.676  0.3133 -0.2547 -0.1151
  272MOL   C11438596   4.077   1.777   1.785  0.1441 -0.3166 -0.1501
  272MOL   C11538597   4.124   1.854   1.662 -0.2529  0.0275  0.1803
  272MOL   O11638598   4.099   1.862   1.894  0.1004  0.1423 -0.6624
  272MOL   H11738599   4.123   1.678   1.790  1.2854  0.2201  0.1269
  272MOL   H11838600   4.062   1.942   1.645 -1.0820 -0.7230 -0.6887
  272MOL   H11938601   4.105   1.785   1.580 -0.0518 -0.7753  0.8091
  272MOL   H12038602   4.231   1.874   1.675 -0.5814  1.4048  0.8621
  272MOL   C12138603   4.179   1.807   1.994 -0.6240  0.6368 -0.6524
  272MOL   C12238604   4.242   1.914   2.084  0.2843 -0.3194  0.0154
  272MOL   O12338605   4.103   1.717   2.080  0.0571  0.5354 -0.2279
  272MOL   H12438606   4.257   1.747   1.947 -0.5156  1.2454 -1.2704
  272MOL   H12538607   4.163   1.960   2.144 -0.6388  0.4943 -1.7822
  272MOL   H12638608   4.287   1.995   2.026 -2.5696 -0.5055 -2.5751
  272MOL   H12738609   4.311   1.869   2.155  1.3183  2.7262  1.0510
  272MOL   C12838610   4.153   1.588   2.078 -0.7655  0.0318 -0.0608
  272MOL   C12938611   4.072   1.515   2.185  0.7455  0.2977 -0.2124
  272MOL   O13038612   4.126   1.517   1.951  0.4450 -0.2721  0.2926
  272MOL   H13138613   4.257   1.592   2.107 -0.6306 -1.6476 -0.2819
  272MOL   H13238614   4.079   1.567   2.280  1.3428 -0.4070  0.1268
  272MOL   H13338615   4.116   1.416   2.190  0.2676 -0.0240 -1.9363
  272MOL   H13438616   3.969   1.508   2.149  1.5745  0.0924 -2.6464
  272MOL   C13538617   4.231   1.445   1.902 -0.0468  0.5637  0.4470
  272MOL   C13638618   4.206   1.375   1.766  0.1887  0.2681 -0.8205
  272MOL   O13738619   4.349   1.518   1.897 -0.9584 -0.2257  0.1136
  272MOL   H13838620   4.239   1.365   1.975 -2.6353  0.4764  0.6726
  272MOL   H13938621   4.121   1.307   1.775  1.8922 -1.7275  0.6647
  272MOL   H14038622   4.293   1.320   1.730  0.9995  0.7110  0.4266
  272MOL   H14138623   4.178   1.449   1.692  0.5502 -0.0478 -1.2747
  272MOL   H14238624   4.421   1.470   1.935 -0.1158  2.1829  1.7583
  273MOL     C138625   3.846   1.253   3.531  0.8871 -0.0449 -0.0829
  273MOL     C238626   3.873   1.198   3.674 -0.0184 -0.3165  0.5326
  273MOL     O338627   3.707   1.264   3.501  0.6886  0.3650 -0.1641
  273MOL     H438628   3.893   1.198   3.450  0.2117 -0.3755 -0.2552
  273MOL     H538629   3.823   1.267   3.743  0.7707  0.1405  0.6542
  273MOL     H638630   3.978   1.212   3.697 -0.9006  1.7316  3.7280
  273MOL     H738631   3.844   1.098   3.706 -0.0518 -0.9661 -1.4439
  273MOL     H838632   3.893   1.351   3.536  0.4713  0.1234  0.5568
  273MOL     C938633   3.691   1.338   3.385 -0.1477 -0.1731 -0.2718
  273MOL    C1038634   3.616   1.253   3.288 -0.0071  0.1814  1.4633
  273MOL    O1138635   3.608   1.447   3.417  0.5200  0.2027 -0.2302
  273MOL    H1238636   3.774   1.373   3.324 -0.3056  1.9224  0.6862
  273MOL    H1338637   3.596   1.324   3.209 -2.1076 -1.2988  0.6344
  273MOL    H1438638   3.528   1.209   3.336 -0.7460  0.9805  0.8427
  273MOL    H1538639   3.674   1.169   3.250  0.4555  1.1034  0.1060
  273MOL    C1638640   3.682   1.550   3.472  0.4186 -0.8134  0.1185
  273MOL    C1738641   3.684   1.660   3.368  0.0270 -0.6371  0.3391
  273MOL    O1838642   3.612   1.609   3.577  0.4063 -0.4015 -0.5370
  273MOL    H1938643   3.782   1.520   3.500  0.2760 -2.0817 -0.6900
  273MOL    H2038644   3.769   1.640   3.302 -0.5942 -0.2418 -0.5823
  273MOL    H2138645   3.708   1.758   3.410 -0.8585 -0.7493  1.1143
  273MOL    H2238646   3.586   1.670   3.322 -0.0238  0.5055  0.6809
  273MOL    C2338647   3.593   1.523   3.682  0.2084 -0.6384  0.5422
  273MOL    C2438648   3.709   1.549   3.778 -0.6672  0.0327  0.3493
  273MOL    O2538649   3.473   1.570   3.732 -0.4442 -0.2340 -0.3375
  273MOL    H2638650   3.578   1.420   3.652 -0.8322 -0.7504  1.4127
  273MOL    H2738651   3.715   1.653   3.811 -1.9048  0.8150 -1.7614
  273MOL    H2838652   3.804   1.517   3.735 -0.3785 -0.2765  1.2093
  273MOL    H2938653   3.695   1.498   3.874  1.3579 -0.6139  0.3214
  273MOL    C3038654   3.361   1.541   3.652  0.1659 -0.0565 -0.8390
  273MOL    C3138655   3.299   1.419   3.702  0.7042  0.1032  0.0540
  273MOL    O3238656   3.271   1.652   3.659  0.3146 -0.1871  0.1836
  273MOL    H3338657   3.390   1.533   3.547  1.8804 -1.5447 -0.2939
  273MOL    H3438658   3.360   1.331   3.678  1.1016  0.5717 -0.6725
  273MOL    H3538659   3.211   1.408   3.639  0.2520  0.7382  0.5747
  273MOL    H3638660   3.283   1.424   3.809  2.4201 -2.8413  0.5133
  273MOL    C3738661   3.323   1.770   3.610 -0.1951  0.0383 -0.8568
  273MOL    C3838662   3.260   1.794   3.473  0.0288  0.3136  0.0086
  273MOL    O3938663   3.294   1.880   3.694  0.3041 -0.4525 -0.2320
  273MOL    H4038664   3.431   1.768   3.595  0.1427  0.1739  1.4091
  273MOL    H4138665   3.281   1.894   3.434  2.9254 -0.0127  0.6647
  273MOL    H4238666   3.152   1.804   3.487  0.0050 -0.4803  0.3777
  273MOL    H4338667   3.293   1.717   3.404  0.6280  0.3569  0.2476
  273MOL    C4438668   3.363   1.882   3.817 -0.1864 -0.8036 -0.4386
  273MOL    C4538669   3.502   1.950   3.791  0.2821  0.2993 -0.4120
  273MOL    O4638670   3.293   1.958   3.914  0.7286  0.2003  0.0686
  273MOL    H4738671   3.371   1.780   3.854  0.2865 -0.7021 -0.2587
  273MOL    H4838672   3.540   1.959   3.893 -1.9176  0.3883  0.4288
  273MOL    H4938673   3.491   2.047   3.744 -1.2583  1.0965  1.5066
  273MOL    H5038674   3.561   1.882   3.730  1.3476 -0.6113  1.5843
  273MOL    C5138675   3.195   1.891   3.976 -0.3019  1.2313 -0.2655
  273MOL    C5238676   3.225   1.907   4.127  0.2809  0.3467  0.3371
  273MOL    O5338677   3.068   1.946   3.945 -0.4375 -0.2431 -0.2846
  273MOL    H5438678   3.188   1.784   3.953  0.8501  0.8517  1.0750
  273MOL    H5538679   3.180   2.001   4.158 -0.7492 -0.7649  2.3243
  273MOL    H5638680   3.333   1.904   4.134  0.2373  0.4211  1.0474
  273MOL    H5738681   3.168   1.827   4.175  1.5654  0.3972  1.9678
  273MOL    C5838682   2.990   1.880   3.847  0.4933 -0.1670  0.4856
  273MOL    C5938683   2.887   1.789   3.910 -0.2487  0.2927  0.0726
  273MOL    O6038684   2.916   1.972   3.781  0.4768 -0.5945 -0.0560
  273MOL    H6138685   3.063   1.827   3.787 -1.1496 -0.4945 -1.2952
  273MOL    H6238686   2.823   1.738   3.837 -0.1740 -2.2089  1.6804
  273MOL    H6338687   2.820   1.848   3.972 -1.2678 -0.3255 -0.4169
  273MOL    H6438688   2.937   1.712   3.968  2.0222  0.6557 -1.3269
  273MOL    C6538689   2.963   2.020   3.662 -0.0635 -0.1192 -0.3716
  273MOL    C6638690   2.866   1.987   3.549 -0.0159  0.0499  0.1912
  273MOL    O6738691   2.980   2.161   3.658  1.1010  0.1157 -0.0765
  273MOL    H6838692   3.060   1.979   3.635 -0.5142 -1.4683  0.0088
  273MOL    H6938693   2.774   2.046   3.556 -0.2356 -0.3129  0.3753
  273MOL    H7038694   2.856   1.879   3.537 -1.3945  0.3014 -1.1640
  273MOL    H7138695   2.911   2.029   3.459  3.0492 -3.0699  0.1657
  273MOL    C7238696   3.094   2.221   3.716 -0.0156 -0.5074  0.8480
  273MOL    C7338697   3.168   2.281   3.602 -0.2109  0.0305 -0.2271
  273MOL    O7438698   3.056   2.321   3.807  0.4316  0.3207  0.3118
  273MOL    H7538699   3.150   2.152   3.779  1.3768 -0.8327 -0.7136
  273MOL    H7638700   3.097   2.334   3.539  0.7602  2.2516  0.4905
  273MOL    H7738701   3.220   2.208   3.539  0.3665 -0.2453  0.5579
  273MOL    H7838702   3.239   2.356   3.637  0.6716 -0.7351 -0.3532
  273MOL    C7938703   2.995   2.275   3.916  0.1386  0.3888 -0.5847
  273MOL    C8038704   3.100   2.272   4.036  0.0655 -0.0345 -0.9685
  273MOL    O8138705   2.888   2.364   3.953  0.0743  0.5233 -0.0956
  273MOL    H8238706   2.952   2.177   3.897  0.9342  0.2056 -1.5216
  273MOL    H8338707   3.172   2.195   4.009  1.2210  1.0590 -1.0726
  273MOL    H8438708   3.044   2.243   4.125  1.4900  0.2469  0.0405
  273MOL    H8538709   3.137   2.373   4.054 -1.5509  0.4473 -0.2417
  273MOL    C8638710   2.785   2.355   3.864  0.9806  0.1834 -0.5767
  273MOL    C8738711   2.689   2.242   3.905  0.8085  0.5341 -0.1192
  273MOL    O8838712   2.705   2.462   3.881  0.3969  0.6258  0.1903
  273MOL    H8938713   2.811   2.342   3.758  1.2973 -2.5819 -0.1882
  273MOL    H9038714   2.596   2.253   3.849  0.9451 -0.1351 -0.4876
  273MOL    H9138715   2.660   2.259   4.008 -1.7857 -3.2928 -0.1040
  273MOL    H9238716   2.735   2.145   3.885 -0.2367 -0.5051  2.2888
  273MOL    C9338717   2.765   2.580   3.829  0.0100 -0.3635  0.6921
  273MOL    C9438718   2.732   2.593   3.680 -0.1808 -0.0072 -0.0139
  273MOL    O9538719   2.713   2.692   3.891  0.4915  0.3533 -0.4723
  273MOL    H9638720   2.873   2.578   3.844  0.3917  0.0684 -1.8500
  273MOL    H9738721   2.756   2.690   3.637  0.4538 -0.7078 -1.2607
  273MOL    H9838722   2.632   2.551   3.665 -1.1633  2.2393  0.0665
  273MOL    H9938723   2.806   2.535   3.625  0.1106 -1.2128  1.6147
  273MOL   C10038724   2.780   2.742   4.008 -0.1265  0.2842  0.2059
  273MOL   C10138725   2.857   2.865   3.968  0.2662  0.1470  0.2348
  273MOL   O10238726   2.692   2.791   4.104 -0.2354  0.3256  0.3059
  273MOL   H10338727   2.864   2.686   4.049  0.3719  0.1913 -0.9159
  273MOL   H10438728   2.909   2.851   3.873  0.7863 -0.3068  0.5827
  273MOL   H10538729   2.924   2.889   4.050 -2.1848 -0.9732  2.6652
  273MOL   H10638730   2.800   2.958   3.957  0.3759  0.3392  1.3128
  273MOL   C10738731   2.638   2.689   4.181 -0.3299  0.8070 -0.8330
  273MOL   C10838732   2.668   2.730   4.329 -0.3711 -0.2179  0.1564
  273MOL   O10938733   2.499   2.677   4.173 -0.0972  0.1725 -0.1804
  273MOL   H11038734   2.693   2.597   4.162 -1.5694 -0.0906 -0.1200
  273MOL   H11138735   2.770   2.748   4.361 -0.8355  1.2725  0.8572
  273MOL   H11238736   2.632   2.642   4.384 -1.6734  0.4451  0.3917
  273MOL   H11338737   2.608   2.818   4.355 -1.4682 -1.2109  1.0760
  273MOL   C11438738   2.455   2.615   4.058  0.2388 -0.1382  0.4647
  273MOL   C11538739   2.403   2.490   4.115  0.4257  0.1645 -0.0754
  273MOL   O11638740   2.339   2.682   4.001 -0.0066  0.2421  0.7901
  273MOL   H11738741   2.526   2.581   3.983  0.6208 -2.8910  2.0076
  273MOL   H11838742   2.331   2.504   4.195  0.7862  0.3062  0.2252
  273MOL   H11938743   2.492   2.445   4.159  1.0052  2.1228  0.8185
  273MOL   H12038744   2.358   2.441   4.028  1.5234 -0.0570 -0.5290
  273MOL   C12138745   2.368   2.807   3.959 -0.8123 -0.2143  0.3062
  273MOL   C12238746   2.361   2.799   3.811 -0.8782 -0.5719  1.0042
  273MOL   O12338747   2.268   2.899   4.001  0.7573  0.1807 -0.4296
  273MOL   H12438748   2.463   2.849   3.992 -0.3711  2.1593 -3.7113
  273MOL   H12538749   2.264   2.767   3.773 -0.7029  1.7525 -1.6291
  273MOL   H12638750   2.433   2.732   3.765 -1.4421  0.5314 -1.6010
  273MOL   H12738751   2.374   2.898   3.767 -0.2774 -1.8792 -1.8789
  273MOL   C12838752   2.277   2.941   4.132  0.5188  0.5233 -0.3866
  273MOL   C12938753   2.304   3.095   4.125 -0.0296 -0.2128  0.0195
  273MOL   O13038754   2.161   2.928   4.206 -0.7574  0.3892  0.5803
  273MOL   H13138755   2.356   2.894   4.190 -1.0313  0.4292  1.6982
  273MOL   H13238756   2.278   3.136   4.223  1.6481 -0.5590  0.6291
  273MOL   H13338757   2.234   3.139   4.054  0.5212 -0.1577 -0.4953
  273MOL   H13438758   2.408   3.110   4.095 -0.7858 -0.3502 -2.8422
  273MOL   C13538759   2.126   2.799   4.233 -0.0479  0.2871 -0.1850
  273MOL   C13638760   2.027   2.809   4.352  0.2934  0.6385  0.0320
  273MOL   O13738761   2.044   2.752   4.129  0.1890 -0.6408  0.1331
  273MOL   H13838762   2.206   2.726   4.249 -0.6378 -0.3003  0.1238
  273MOL   H13938763   1.995   2.709   4.382 -1.7990  2.3480  3.8142
  273MOL   H14038764   1.943   2.872   4.324 -0.4297  0.0814  0.9063
  273MOL   H14138765   2.080   2.858   4.434  0.5301 -0.7407  0.7261
  273MOL   H14238766   2.104   2.714   4.067 -0.9233 -1.0709 -0.7013
  274MOL     C138767   2.353   5.818   2.958  0.4930  0.4186 -0.2689
  274MOL     C238768   2.312   5.847   3.105 -0.3413  0.0953 -0.8170
  274MOL     O338769   2.451   5.914   2.916  0.4139 -0.8761 -0.3286
  274MOL     H438770   2.269   5.835   2.891 -0.4904  0.6510  1.0019
  274MOL     H538771   2.396   5.862   3.172 -1.0403  0.2708  0.0207
  274MOL     H638772   2.247   5.767   3.138 -1.7178  2.0290  1.2387
  274MOL     H738773   2.264   5.945   3.115  0.7105  0.5927 -0.5533
  274MOL     H838774   2.401   5.720   2.969 -1.0297 -0.3140  0.0747
  274MOL     C938775   2.505   5.893   2.787 -0.2962  0.5553 -0.7340
  274MOL    C1038776   2.521   6.027   2.715  0.1408  0.0042  0.3713
  274MOL    O1138777   2.635   5.831   2.796  0.6707 -0.3409  0.4966
  274MOL    H1238778   2.433   5.833   2.732 -0.8228  0.5851 -0.0783
  274MOL    H1338779   2.584   6.006   2.629 -0.2666 -2.7567  0.7029
  274MOL    H1438780   2.558   6.101   2.786  0.6952 -0.7356  0.8592
  274MOL    H1538781   2.425   6.068   2.684  0.3224 -0.0236 -0.2270
  274MOL    C1638782   2.653   5.708   2.743 -0.1179  0.2097  0.1479
  274MOL    C1738783   2.799   5.684   2.734 -0.3607 -0.2157 -0.4028
  274MOL    O1838784   2.585   5.616   2.816  0.0661 -0.8401 -1.1028
  274MOL    H1938785   2.604   5.722   2.646  0.5829  2.9756  0.1549
  274MOL    H2038786   2.854   5.761   2.679 -1.8184  0.0779 -1.4567
  274MOL    H2138787   2.818   5.587   2.688 -3.0807 -0.1559 -1.7042
  274MOL    H2238788   2.838   5.684   2.836 -3.0902 -1.9643  0.6954
  274MOL    C2338789   2.543   5.499   2.746 -0.6123 -0.5773  0.1403
  274MOL    C2438790   2.477   5.410   2.847  0.8242 -0.1670  0.2701
  274MOL    O2538791   2.451   5.527   2.647  0.0886  0.2206  0.3846
  274MOL    H2638792   2.633   5.453   2.704 -0.4934 -0.4915  0.2992
  274MOL    H2738793   2.524   5.401   2.945 -0.3040 -1.7124  0.6918
  274MOL    H2838794   2.464   5.307   2.816  2.4355 -0.5703  0.8995
  274MOL    H2938795   2.376   5.447   2.865  1.3505  1.3986  0.0614
  274MOL    C3038796   2.475   5.455   2.534  0.3300 -0.1570  0.4982
  274MOL    C3138797   2.368   5.503   2.435 -0.6249  0.0298  0.1442
  274MOL    O3238798   2.599   5.496   2.484 -0.1373 -0.1349  0.2006
  274MOL    H3338799   2.458   5.348   2.545 -1.7289 -0.1173 -1.7039
  274MOL    H3438800   2.377   5.446   2.343  0.0149 -1.5420  1.1690
  274MOL    H3538801   2.385   5.610   2.420 -0.1048  0.3667  2.9582
  274MOL    H3638802   2.268   5.482   2.473  0.5474  1.5531  4.4010
  274MOL    C3738803   2.660   5.397   2.411 -0.4841 -0.5614  0.1251
  274MOL    C3838804   2.777   5.460   2.344 -0.0437 -0.3849 -0.1114
  274MOL    O3938805   2.711   5.299   2.492  1.0805 -0.0693 -0.4065
  274MOL    H4038806   2.591   5.365   2.334  0.5455 -3.0415  0.1605
  274MOL    H4138807   2.829   5.386   2.284 -1.0719  0.5251 -2.1962
  274MOL    H4238808   2.852   5.501   2.412  0.0411  0.7989 -0.9136
  274MOL    H4338809   2.723   5.537   2.288  0.8519  0.3923  0.0881
  274MOL    C4438810   2.696   5.172   2.448 -0.2380 -0.2707 -0.5759
  274MOL    C4538811   2.815   5.088   2.502  0.0514 -0.7509  0.0537
  274MOL    O4638812   2.573   5.122   2.512  0.6346  0.1044 -0.0885
  274MOL    H4738813   2.691   5.175   2.339  2.0426 -0.2797 -0.7032
  274MOL    H4838814   2.799   4.983   2.478  1.2765 -1.1799  1.0485
  274MOL    H4938815   2.809   5.096   2.611 -0.8992 -1.2098  0.0345
  274MOL    H5038816   2.911   5.131   2.471 -0.2423  0.2154  0.4446
  274MOL    C5138817   2.483   5.067   2.418 -0.2206  0.1868  1.0298
  274MOL    C5238818   2.372   4.986   2.486 -0.1801  0.1360  0.7951
  274MOL    O5338819   2.415   5.165   2.343 -0.3328  0.1170 -0.4658
  274MOL    H5438820   2.551   5.004   2.361 -1.6737 -0.5974  0.1333
  274MOL    H5538821   2.294   4.960   2.415 -0.2157  1.9516  0.1447
  274MOL    H5638822   2.317   5.034   2.567  1.4478 -0.4480  2.3051
  274MOL    H5738823   2.415   4.893   2.523 -1.8031 -0.5048  1.0941
  274MOL    C5838824   2.431   5.141   2.204  0.3661  0.1451 -0.1368
  274MOL    C5938825   2.313   5.213   2.129 -0.0024  0.1042 -0.2962
  274MOL    O6038826   2.556   5.181   2.155  0.0686 -0.6971 -0.1661
  274MOL    H6138827   2.414   5.038   2.171 -0.4652  0.3100 -0.2485
  274MOL    H6238828   2.309   5.319   2.155 -1.2418  0.3553 -1.4686
  274MOL    H6338829   2.218   5.176   2.169  1.1384  0.8706  3.3478
  274MOL    H6438830   2.326   5.187   2.024 -3.1810 -1.5924 -0.3322
  274MOL    C6538831   2.610   5.109   2.045  0.6491  0.3583 -0.3107
  274MOL    C6638832   2.733   5.185   2.001  0.1007 -0.3204 -0.4062
  274MOL    O6738833   2.637   4.982   2.080 -0.2865 -0.1381 -0.0445
  274MOL    H6838834   2.530   5.111   1.971 -0.5575 -1.3946  0.8959
  274MOL    H6938835   2.704   5.288   1.981 -1.2635 -0.9120 -1.5802
  274MOL    H7038836   2.791   5.134   1.924  1.9763  0.2349  0.6068
  274MOL    H7138837   2.802   5.189   2.085 -1.4004 -0.6285  0.8644
  274MOL    C7238838   2.610   4.893   1.976  0.3839  0.4536  0.4967
  274MOL    C7338839   2.687   4.763   1.998 -0.3489 -0.6427  0.0984
  274MOL    O7438840   2.470   4.856   1.972  0.5597  0.4714  0.4753
  274MOL    H7538841   2.641   4.937   1.881  0.9674  0.3455  0.6337
  274MOL    H7638842   2.667   4.705   1.907  0.2494 -0.5361 -0.1024
  274MOL    H7738843   2.657   4.725   2.095 -1.3001  1.2050  0.5603
  274MOL    H7838844   2.791   4.793   2.008 -0.4587 -1.1286  3.0979
  274MOL    C7938845   2.421   4.861   1.841 -0.1368  0.3894 -0.1581
  274MOL    C8038846   2.305   4.776   1.833  0.1803 -0.3703 -0.1614
  274MOL    O8138847   2.384   4.993   1.804  0.3891 -0.6187  0.5291
  274MOL    H8238848   2.496   4.819   1.774 -0.3716 -1.5837  0.7806
  274MOL    H8338849   2.316   4.679   1.881  4.0704  0.4048  0.6676
  274MOL    H8438850   2.281   4.773   1.726  0.0042 -1.3638 -0.1008
  274MOL    H8538851   2.224   4.825   1.887 -1.1065 -0.0177 -2.3472
  274MOL    C8638852   2.444   5.042   1.689 -0.0591 -0.1084 -0.2172
  274MOL    C8738853   2.395   5.181   1.654 -0.0631  0.3513 -0.4768
  274MOL    O8838854   2.582   5.056   1.697  0.1406  0.1596 -0.6306
  274MOL    H8938855   2.417   4.984   1.601  0.8226  2.4313 -2.1947
  274MOL    H9038856   2.292   5.201   1.683  0.2876  0.1984  0.9245
  274MOL    H9138857   2.404   5.199   1.547  2.5767 -0.4712 -0.4236
  274MOL    H9238858   2.450   5.256   1.711  0.0189 -1.7610  2.3319
  274MOL    C9338859   2.655   5.035   1.584 -0.1867 -0.2608 -0.1851
  274MOL    C9438860   2.782   5.121   1.595 -0.6369  0.0593 -0.0758
  274MOL    O9538861   2.694   4.899   1.589 -0.3974 -0.6760  0.5395
  274MOL    H9638862   2.608   5.066   1.491  0.1538  3.8677  0.9199
  274MOL    H9738863   2.830   5.111   1.692 -1.4116 -0.9230  0.2160
  274MOL    H9838864   2.739   5.220   1.581 -0.9777 -0.2702 -1.4406
  274MOL    H9938865   2.846   5.088   1.513 -0.4728 -0.1981  0.1543
  274MOL   C10038866   2.669   4.829   1.474  0.0983  0.4340  0.9688
  274MOL   C10138867   2.740   4.699   1.479 -0.0102  0.3598 -0.0696
  274MOL   O10238868   2.531   4.801   1.452  0.0561  0.1082  0.4190
  274MOL   H10338869   2.717   4.888   1.395  1.3067  1.9368  2.7878
  274MOL   H10438870   2.848   4.705   1.496  0.0094 -0.2352  0.0125
  274MOL   H10538871   2.726   4.640   1.388 -1.5326 -1.1126  1.1045
  274MOL   H10638872   2.696   4.650   1.565 -0.7107  0.1598 -0.5406
  274MOL   C10738873   2.478   4.842   1.334 -0.0800 -0.5002  0.0210
  274MOL   C10838874   2.337   4.778   1.321  0.4572 -0.2286 -0.3623
  274MOL   O10938875   2.463   4.979   1.340 -0.0061  0.2513  0.4311
  274MOL   H11038876   2.547   4.819   1.254  1.3100  2.2168  0.3811
  274MOL   H11138877   2.351   4.670   1.318  1.1560 -0.1566  0.0622
  274MOL   H11238878   2.283   4.813   1.233  2.3932  1.1630 -1.0379
  274MOL   H11338879   2.282   4.805   1.411  0.3483 -1.2368 -0.1268
  274MOL   C11438880   2.513   5.050   1.234 -0.0053  0.2623 -0.5242
  274MOL   C11538881   2.457   5.196   1.250  0.1204 -0.0574  0.8776
  274MOL   O11638882   2.655   5.060   1.224  0.7017 -0.1579  0.4134
  274MOL   H11738883   2.487   5.008   1.137  3.0535 -0.2807 -1.1749
  274MOL   H11838884   2.491   5.253   1.163 -0.8624  1.9247  1.7672
  274MOL   H11938885   2.487   5.252   1.338  1.1986  0.6882  0.0634
  274MOL   H12038886   2.349   5.184   1.245  0.0532 -0.1584  2.4656
  274MOL   C12138887   2.709   5.069   1.101 -0.1609 -0.5334 -0.2727
  274MOL   C12238888   2.856   5.094   1.126 -0.2888 -0.3798 -0.2643
  274MOL   O12338889   2.692   4.946   1.032  0.7900 -0.0511 -0.0151
  274MOL   H12438890   2.661   5.149   1.044  0.2212  0.1455  0.3536
  274MOL   H12538891   2.868   5.193   1.170 -0.6642 -0.0758 -0.8435
  274MOL   H12638892   2.906   5.111   1.030 -0.2208 -1.2301 -0.3863
  274MOL   H12738893   2.905   5.015   1.183  0.5563 -0.6326 -1.3225
  274MOL   C12838894   2.701   4.967   0.898 -0.4294 -0.1255  0.0358
  274MOL   C12938895   2.716   4.839   0.830 -0.0803  0.7983  0.1650
  274MOL   O13038896   2.590   5.030   0.844 -0.4350 -0.1351  0.0023
  274MOL   H13138897   2.789   5.029   0.877 -0.5489  0.0704  0.1157
  274MOL   H13238898   2.788   4.789   0.895  0.7212 -0.3616 -1.5652
  274MOL   H13338899   2.765   4.846   0.733 -0.9816 -3.0902 -0.6387
  274MOL   H13438900   2.622   4.787   0.811 -0.5217  0.7572  2.3504
  274MOL   C13538901   2.619   5.120   0.733 -0.0893  0.2509 -0.1017
  274MOL   C13638902   2.496   5.120   0.632 -0.3698 -0.5188  0.2882
  274MOL   O13738903   2.653   5.253   0.777 -0.2546  0.6604 -0.3928
  274MOL   H13838904   2.704   5.085   0.674  0.2272  0.5962  0.1455
  274MOL   H13938905   2.400   5.133   0.682  0.3099 -0.0321  1.5007
  274MOL   H14038906   2.487   5.021   0.588 -1.4516 -0.5980  0.6747
  274MOL   H14138907   2.502   5.191   0.549  1.1911 -1.7898 -0.7048
  274MOL   H14238908   2.747   5.254   0.786 -0.2551  1.6729 -0.4899
  275MOL     C138909   0.375   4.987   5.718  0.3470 -0.1494  0.0949
  275MOL     C238910   0.320   4.857   5.776  0.8221  0.3929  0.0567
  275MOL     O338911   0.392   4.966   5.572 -0.5589  0.2485  0.9075
  275MOL     H438912   0.478   4.994   5.752  0.2773  0.5867  0.1529
  275MOL     H538913   0.251   4.821   5.700 -0.3815  0.9362  0.8713
  275MOL     H638914   0.268   4.863   5.872 -1.5216 -0.8239 -1.0966
  275MOL     H738915   0.405   4.788   5.785  0.2498 -0.5099 -1.2465
  275MOL     H838916   0.315   5.073   5.747 -2.0092 -1.8478  0.4375
  275MOL     C938917   0.277   4.998   5.487  0.0279 -0.2744  0.0971
  275MOL    C1038918   0.266   5.151   5.467 -0.2915 -0.0212  1.0667
  275MOL    O1138919   0.308   4.956   5.356  0.6338 -0.2349  0.5249
  275MOL    H1238920   0.186   4.955   5.529 -1.4743  1.0444 -1.7072
  275MOL    H1338921   0.215   5.197   5.552  2.4405 -0.6414  3.1029
  275MOL    H1438922   0.210   5.173   5.376  1.2091 -1.7967 -0.3292
  275MOL    H1538923   0.364   5.192   5.442 -0.3560 -2.4236 -3.4718
  275MOL    C1638924   0.308   4.820   5.351 -0.0664 -0.0527  0.5267
  275MOL    C1738925   0.179   4.772   5.288  0.6241  0.5164  0.3042
  275MOL    O1838926   0.406   4.774   5.267 -0.1951  0.0415  0.1992
  275MOL    H1938927   0.326   4.775   5.448  1.2617 -0.0997  0.2735
  275MOL    H2038928   0.086   4.797   5.341  0.8218 -1.7224  1.7603
  275MOL    H2138929   0.180   4.664   5.292  1.3783  0.5235  0.2199
  275MOL    H2238930   0.184   4.797   5.182 -0.7818 -0.6176 -0.0511
  275MOL    C2338931   0.535   4.821   5.298  0.6462 -0.1294 -0.0239
  275MOL    C2438932   0.586   4.739   5.419  0.2190 -0.2033 -0.0469
  275MOL    O2538933   0.629   4.815   5.191  0.3343  0.0632  0.2977
  275MOL    H2638934   0.540   4.926   5.326 -1.0298 -0.4980  1.7659
  275MOL    H2738935   0.551   4.636   5.423  1.9638 -0.8581 -0.9489
  275MOL    H2838936   0.550   4.799   5.502  1.9991  0.1813  0.4795
  275MOL    H2938937   0.695   4.749   5.419  0.1936  0.1934 -1.0940
  275MOL    C3038938   0.600   4.886   5.070 -0.0872  0.1220  0.1536
  275MOL    C3138939   0.635   5.035   5.089 -0.0236  0.4659  0.2439
  275MOL    O3238940   0.672   4.830   4.961 -0.3225  0.5824 -0.0584
  275MOL    H3338941   0.492   4.888   5.055  0.0354  3.0029 -0.6587
  275MOL    H3438942   0.742   5.043   5.106 -0.0899  3.6066 -0.5355
  275MOL    H3538943   0.579   5.087   5.166  0.2187  1.7700 -0.4312
  275MOL    H3638944   0.629   5.085   4.992  3.0750 -0.8163 -0.6541
  275MOL    C3738945   0.607   4.714   4.909 -0.7429 -0.2917 -0.3955
  275MOL    C3838946   0.521   4.757   4.791 -0.3570  0.2645 -0.4136
  275MOL    O3938947   0.699   4.634   4.855 -0.0891  0.5036 -0.2640
  275MOL    H4038948   0.547   4.662   4.983 -1.0003  1.7168  0.8299
  275MOL    H4138949   0.445   4.829   4.822 -0.6226 -0.3387  0.3425
  275MOL    H4238950   0.478   4.674   4.735  1.1032 -0.9961  0.2905
  275MOL    H4338951   0.587   4.802   4.716 -1.3501 -1.0660 -2.1169
  275MOL    C4438952   0.805   4.596   4.933 -0.1618  0.0417 -0.4211
  275MOL    C4538953   0.756   4.505   5.044  0.8086 -0.0877 -0.0552
  275MOL    O4638954   0.897   4.524   4.856 -0.4399  0.2428  0.3680
  275MOL    H4738955   0.859   4.676   4.985  1.9078  0.5911 -3.2997
  275MOL    H4838956   0.842   4.489   5.109 -0.4801 -0.5184  1.5651
  275MOL    H4938957   0.718   4.408   5.010 -0.9947  1.1610 -1.6676
  275MOL    H5038958   0.680   4.547   5.108  1.0479  1.1930 -0.6018
  275MOL    C5138959   0.970   4.593   4.762 -0.1124 -0.2397 -0.1972
  275MOL    C5238960   1.118   4.620   4.817  0.2169  0.2563  0.3064
  275MOL    O5338961   0.984   4.521   4.642 -0.0144 -0.8724  0.3904
  275MOL    H5438962   0.915   4.684   4.739  1.3051  0.5174 -0.6832
  275MOL    H5538963   1.119   4.645   4.923 -3.6988 -0.3832  0.5705
  275MOL    H5638964   1.164   4.702   4.762  0.8324 -0.8713 -0.9015
  275MOL    H5738965   1.181   4.531   4.808 -0.8312 -0.5211  0.6103
  275MOL    C5838966   0.876   4.509   4.561  1.4692  0.0987  0.6285
  275MOL    C5938967   0.853   4.638   4.484  0.0420  0.0398 -0.0751
  275MOL    O6038968   0.886   4.402   4.480 -0.0754 -0.0442 -0.2849
  275MOL    H6138969   0.783   4.483   4.613  0.7919  0.7211 -0.2610
  275MOL    H6238970   0.772   4.625   4.413 -0.5679  1.4573  0.3379
  275MOL    H6338971   0.944   4.668   4.431 -1.1041  2.1334 -0.8805
  275MOL    H6438972   0.815   4.719   4.546  0.3498  0.5579 -0.5545
  275MOL    C6538973   0.887   4.274   4.540  0.5670 -0.6042 -0.4741
  275MOL    C6638974   0.738   4.233   4.573  0.3541 -0.6446  0.1520
  275MOL    O6738975   0.933   4.178   4.450  0.3162  0.6326  0.3186
  275MOL    H6838976   0.953   4.283   4.627  0.1556  0.4275 -0.2517
  275MOL    H6938977   0.679   4.309   4.624 -1.3058 -1.4376 -0.5287
  275MOL    H7038978   0.730   4.145   4.637 -0.8387 -0.9948 -0.4544
  275MOL    H7138979   0.675   4.210   4.487  0.0475 -1.1826  0.5117
  275MOL    C7238980   1.069   4.183   4.427  0.2792 -0.4312  0.3826
  275MOL    C7338981   1.128   4.078   4.512  0.2540 -0.4313 -0.0049
  275MOL    O7438982   1.107   4.163   4.295  0.1215  0.1417 -0.5923
  275MOL    H7538983   1.108   4.282   4.452 -1.5734 -0.1316  2.1604
  275MOL    H7638984   1.236   4.079   4.497 -0.0408 -0.2172 -2.3014
  275MOL    H7738985   1.093   3.985   4.469 -1.0776  0.0413  0.0430
  275MOL    H7838986   1.106   4.097   4.617  0.3823  0.9255 -0.2047
  275MOL    C7938987   1.036   4.248   4.201  0.0934  0.4280  0.1684
  275MOL    C8038988   1.142   4.330   4.131 -0.3186  1.3999  0.0900
  275MOL    O8138989   0.963   4.183   4.103  0.3586  0.6817 -0.4908
  275MOL    H8238990   0.971   4.317   4.256  0.9292  2.0588 -0.8597
  275MOL    H8338991   1.093   4.394   4.058 -3.7210  0.2143  1.2120
  275MOL    H8438992   1.206   4.261   4.076 -1.9241 -0.2284  0.2380
  275MOL    H8538993   1.216   4.371   4.200 -1.6708 -0.8104  2.9719
  275MOL    C8638994   0.823   4.179   4.127 -0.5572  0.4677  0.0613
  275MOL    C8738995   0.770   4.265   4.009  0.3211 -0.1581  0.3638
  275MOL    O8838996   0.772   4.052   4.102 -0.1184  0.5269  0.1944
  275MOL    H8938997   0.796   4.207   4.229  2.5966 -0.9237  1.3547
  275MOL    H9038998   0.662   4.249   4.004  0.4949 -0.8055 -1.3905
  275MOL    H9138999   0.823   4.221   3.925 -2.1767  1.7690 -2.2978
  275MOL    H9239000   0.803   4.368   4.022  2.3184 -0.5243 -1.5599
  275MOL    C9339001   0.820   3.941   4.181  0.5701 -0.3907  0.4998
  275MOL    C9439002   0.701   3.888   4.261 -0.0027 -0.2307  0.5415
  275MOL    O9539003   0.863   3.832   4.111 -0.1861 -0.2736 -0.0379
  275MOL    H9639004   0.905   3.962   4.245  0.4882  0.6526  0.2817
  275MOL    H9739005   0.662   3.972   4.317  2.2187  0.8189  0.5809
  275MOL    H9839006   0.733   3.812   4.333  0.7023  0.1649  0.6503
  275MOL    H9939007   0.629   3.846   4.190 -0.4225  2.4400 -0.6664
  275MOL   C10039008   0.990   3.844   4.060 -0.0138  0.1896 -0.0577
  275MOL   C10139009   1.082   3.748   4.134  0.3140 -0.3078 -0.7608
  275MOL   O10239010   1.005   3.808   3.919 -0.1756  0.6253  0.8348
  275MOL   H10339011   1.022   3.948   4.070 -0.6826  0.4010 -0.0968
  275MOL   H10439012   1.043   3.647   4.120 -0.2515 -0.6128  2.6855
  275MOL   H10539013   1.094   3.776   4.239  0.4888  0.3384 -0.9508
  275MOL   H10639014   1.182   3.749   4.091  0.8095  0.2264  0.4027
  275MOL   C10739015   0.966   3.906   3.827 -0.5720 -0.0284 -0.5293
  275MOL   C10839016   1.097   3.978   3.791  0.6785  0.6132 -0.0592
  275MOL   O10939017   0.911   3.847   3.709 -0.0407 -0.1433 -0.5545
  275MOL   H11039018   0.888   3.965   3.875 -0.0284  1.2700 -1.2218
  275MOL   H11139019   1.093   4.046   3.707 -1.6878  0.7260  0.0944
  275MOL   H11239020   1.160   3.896   3.756 -1.0558 -1.1675  0.8602
  275MOL   H11339021   1.145   4.033   3.872  4.0662 -1.1385 -0.7802
  275MOL   C11439022   0.785   3.779   3.733  0.4961 -0.5750 -0.0768
  275MOL   C11539023   0.670   3.858   3.673 -0.7211 -0.0499 -0.0922
  275MOL   O11639024   0.786   3.657   3.670  0.0733  0.1530  0.1944
  275MOL   H11739025   0.769   3.769   3.840  2.9588  0.4122  0.4262
  275MOL   H11839026   0.574   3.809   3.690 -1.0020  0.2637 -0.7687
  275MOL   H11939027   0.687   3.862   3.566  3.4663  0.7688  0.5340
  275MOL   H12039028   0.674   3.960   3.712 -3.5768 -0.2271  0.8250
  275MOL   C12139029   0.861   3.568   3.737 -0.5792 -0.2157 -0.6317
  275MOL   C12239030   0.779   3.510   3.857  0.4622 -0.7282 -0.4247
  275MOL   O12339031   0.895   3.463   3.654  0.5397 -0.3336  0.2501
  275MOL   H12439032   0.951   3.617   3.776 -0.2767 -0.3452 -1.1709
  275MOL   H12539033   0.839   3.427   3.892 -0.7353 -0.5863  2.0909
  275MOL   H12639034   0.680   3.492   3.816 -0.2551 -1.4794  1.5962
  275MOL   H12739035   0.775   3.564   3.952 -1.6876 -0.9034 -0.3909
  275MOL   C12839036   0.992   3.492   3.555  0.0467  0.1049 -0.6211
  275MOL   C12939037   1.117   3.427   3.601 -0.3687 -0.9638  1.1431
  275MOL   O13039038   0.959   3.457   3.426  1.4050 -0.8328 -0.3299
  275MOL   H13139039   1.007   3.600   3.562  0.9789  0.1365 -2.5398
  275MOL   H13239040   1.164   3.498   3.669 -0.1239 -0.4088  0.4166
  275MOL   H13339041   1.182   3.420   3.513  1.7713 -2.0223  2.7658
  275MOL   H13439042   1.108   3.328   3.643 -2.3094 -2.4814 -2.5865
  275MOL   C13539043   0.851   3.529   3.373  1.0876 -0.5286  0.1340
  275MOL   C13639044   0.836   3.481   3.219 -0.3132  0.1414 -0.4059
  275MOL   O13739045   0.729   3.506   3.444  0.0724  0.0815 -0.2477
  275MOL   H13839046   0.873   3.635   3.382  0.7133 -0.4469  0.0963
  275MOL   H13939047   0.788   3.385   3.198  1.4132 -0.5034 -1.5389
  275MOL   H14039048   0.936   3.472   3.175  0.1620  0.0527  0.6852
  275MOL   H14139049   0.781   3.556   3.162 -0.1684 -0.6012 -1.5620
  275MOL   H14239050   0.738   3.545   3.530 -0.7879 -1.1524  0.4308
  276MOL     C139051   7.510   6.581   7.531  0.0410  0.6157  0.3707
  276MOL     C239052   7.413   6.673   7.603 -0.5058 -0.1943 -0.9689
  276MOL     O339053   7.514   6.461   7.613  0.7071  0.0645 -0.4083
  276MOL     H439054   7.612   6.618   7.521 -0.4996  1.7589 -1.1684
  276MOL     H539055   7.330   6.609   7.631 -0.5734  0.9244  1.5754
  276MOL     H639056   7.383   6.758   7.542 -0.1738  0.2286 -0.5577
  276MOL     H739057   7.456   6.699   7.700 -1.6375  2.2676 -1.0913
  276MOL     H839058   7.465   6.552   7.437 -0.5867  0.5721  0.6831
  276MOL     C939059   7.582   6.359   7.555 -0.2378  0.1760  0.5723
  276MOL    C1039060   7.736   6.377   7.580  0.3943  0.3079 -0.0377
  276MOL    O1139061   7.547   6.237   7.614  0.1259  0.3092  0.7963
  276MOL    H1239062   7.561   6.346   7.449 -2.5206 -1.0797  1.1614
  276MOL    H1339063   7.798   6.294   7.543 -1.1526  1.1199 -4.6733
  276MOL    H1439064   7.766   6.386   7.685 -1.3434  0.5280  0.4570
  276MOL    H1539065   7.778   6.467   7.536  0.0402 -0.1775 -1.4062
  276MOL    C1639066   7.420   6.196   7.572 -0.3557  0.2237  0.0072
  276MOL    C1739067   7.433   6.090   7.465 -0.5911 -0.0110 -0.3366
  276MOL    O1839068   7.353   6.141   7.683  0.2529  0.3480  0.4552
  276MOL    H1939069   7.360   6.274   7.526 -1.2335 -0.5212 -0.1293
  276MOL    H2039070   7.498   6.123   7.384  0.1348 -1.9850 -0.5838
  276MOL    H2139071   7.329   6.065   7.442  0.2424 -3.0272 -1.0440
  276MOL    H2239072   7.479   6.004   7.513 -0.6752  0.4699  0.6138
  276MOL    C2339073   7.301   6.228   7.775  0.0613  0.3295  0.0117
  276MOL    C2439074   7.147   6.208   7.780 -0.8992 -0.3113 -0.4415
  276MOL    O2539075   7.348   6.199   7.905 -0.1702 -0.2798 -0.2558
  276MOL    H2639076   7.301   6.335   7.752  0.8723  0.4904  0.7491
  276MOL    H2739077   7.099   6.240   7.687  0.6142 -0.6446 -1.3547
  276MOL    H2839078   7.096   6.263   7.858 -0.0733  2.4254 -1.7874
  276MOL    H2939079   7.127   6.103   7.802  0.4209 -0.5260 -0.2044
  276MOL    C3039080   7.473   6.240   0.025 -0.2266  0.1523  0.0297
  276MOL    C3139081   7.461   6.364   0.115  0.2982 -0.1897  0.5701
  276MOL    O3239082   7.545   6.143   0.094  0.5769 -0.4743  0.4825
  276MOL    H3339083   7.514   6.281   7.847 -0.7616 -1.1314 -0.7940
  276MOL    H3439084   7.562   6.397   0.141  0.6849 -1.5678  0.8354
  276MOL    H3539085   7.391   6.338   0.196 -0.1164 -0.7465  0.0360
  276MOL    H3639086   7.417   6.442   0.053  2.6031  0.2891 -0.5019
  276MOL    C3739087   7.608   6.052   0.011 -0.9647  0.0351 -0.0102
  276MOL    C3839088   7.753   6.070   0.042  0.2104  0.3335 -0.2317
  276MOL    O3939089   7.573   5.920   0.030 -0.5824 -0.0116 -0.7225
  276MOL    H4039090   7.595   6.070   7.818  0.5788  0.7761 -0.0682
  276MOL    H4139091   7.824   6.013   7.895 -1.1643  1.0661 -2.5899
  276MOL    H4239092   7.775   6.048   0.146  1.7717 -0.6858 -0.7575
  276MOL    H4339093   7.789   6.172   0.037 -1.6553  1.0649  0.6936
  276MOL    C4439094   7.457   5.880   7.886 -0.0172 -0.3369 -0.0332
  276MOL    C4539095   7.500   5.793   7.764 -0.1820  0.9611 -0.3903
  276MOL    O4639096   7.378   5.805   0.058  0.2191 -0.3605  0.2927
  276MOL    H4739097   7.388   5.958   7.855  0.9270 -0.0212 -1.3937
  276MOL    H4839098   7.425   5.769   7.689  0.5801 -0.4877 -0.7044
  276MOL    H4939099   7.563   5.707   7.788 -3.6132 -1.3603  0.5857
  276MOL    H5039100   7.568   5.860   7.712  3.4808  0.4323  3.3915
  276MOL    C5139101   7.342   5.881   0.169  0.5392 -0.0304 -0.5032
  276MOL    C5239102   7.196   5.913   0.153 -0.9197 -0.2559  0.2117
  276MOL    O5339103   7.356   5.811   0.292 -0.1910  0.3847 -0.4838
  276MOL    H5439104   7.396   5.974   0.186 -1.8937  1.6106 -1.5814
  276MOL    H5539105   7.142   5.968   0.231 -0.6878 -0.7147  0.7035
  276MOL    H5639106   7.148   5.815   0.163  1.2512 -1.1255  2.5823
  276MOL    H5739107   7.175   5.962   0.058 -1.8205 -4.4441 -1.8920
  276MOL    C5839108   7.485   5.795   0.332  0.0512  0.4330  0.5441
  276MOL    C5939109   7.529   5.924   0.414 -0.7985  1.1637 -0.2750
  276MOL    O6039110   7.500   5.677   0.407  0.0058 -0.4298 -0.2616
  276MOL    H6139111   7.555   5.785   0.249  0.7403  0.9664  1.0500
  276MOL    H6239112   7.550   6.012   0.354  0.1081  0.4036 -1.1028
  276MOL    H6339113   7.624   5.902   0.462  0.1992  0.3314 -2.5448
  276MOL    H6439114   7.454   5.930   0.492  0.4787  0.5001  1.0357
  276MOL    C6539115   7.472   5.558   0.330  0.4047 -0.1891  0.2555
  276MOL    C6639116   7.607   5.484   0.313  0.1406  0.2448 -0.1505
  276MOL    O6739117   7.388   5.466   0.397  0.5430  0.1446 -0.2881
  276MOL    H6839118   7.422   5.575   0.235 -0.5993 -0.1294  0.7893
  276MOL    H6939119   7.669   5.543   0.246 -0.6583  0.8276 -0.3818
  276MOL    H7039120   7.595   5.386   0.266  2.7173 -0.6002  0.9139
  276MOL    H7139121   7.636   5.463   0.416  0.5866 -0.8971 -0.5045
  276MOL    C7239122   7.263   5.520   0.437 -0.1416  0.4134  0.1547
  276MOL    C7339123   7.160   5.439   0.360  0.4445 -0.3698 -0.0957
  276MOL    O7439124   7.245   5.499   0.573 -0.0439  0.4230  0.6577
  276MOL    H7539125   7.254   5.624   0.406  1.7510  0.8425  0.9084
  276MOL    H7639126   7.155   5.333   0.386 -0.3673 -0.6562 -1.3923
  276MOL    H7739127   7.161   5.468   0.256  2.1273 -0.6045 -0.1474
  276MOL    H7839128   7.066   5.484   0.392  0.7368 -1.7985  3.0541
  276MOL    C7939129   7.286   5.605   0.645 -0.2865  0.0847  0.5078
  276MOL    C8039130   7.163   5.674   0.720 -0.1121 -0.3305  0.9484
  276MOL    O8139131   7.377   5.575   0.746 -0.3742  0.3618 -0.4437
  276MOL    H8239132   7.327   5.683   0.581 -1.8555  0.2497 -0.3171
  276MOL    H8339133   7.092   5.725   0.655  1.7533 -0.4519 -1.2233
  276MOL    H8439134   7.205   5.741   0.795  0.7166 -0.4631  0.6054
  276MOL    H8539135   7.114   5.593   0.774  0.9263 -2.1205 -0.7052
  276MOL    C8639136   7.498   5.526   0.706  0.3132 -0.9267  0.7282
  276MOL    C8739137   7.596   5.647   0.725 -0.2162 -0.1007  0.3263
  276MOL    O8839138   7.538   5.413   0.783  0.6081  0.3843  0.4236
  276MOL    H8939139   7.509   5.500   0.601 -2.8229 -2.1900  0.6699
  276MOL    H9039140   7.563   5.733   0.667 -0.4002 -0.4662 -0.1073
  276MOL    H9139141   7.696   5.623   0.689 -0.3379  0.4642 -0.3935
  276MOL    H9239142   7.596   5.682   0.829 -3.5770 -0.3379  0.4660
  276MOL    C9339143   7.475   5.296   0.750  0.2584 -0.9526  0.4233
  276MOL    C9439144   7.590   5.206   0.707 -0.4205 -0.4331  0.2165
  276MOL    O9539145   7.414   5.218   0.842 -0.0166 -0.1939  0.4223
  276MOL    H9639146   7.401   5.310   0.671  0.3368  2.9303  0.9485
  276MOL    H9739147   7.561   5.103   0.686 -0.5806 -0.9338  2.7047
  276MOL    H9839148   7.666   5.198   0.785  0.3456 -1.0197 -0.5754
  276MOL    H9939149   7.634   5.262   0.625  0.8676  1.2028  1.9692
  276MOL   C10039150   7.306   5.281   0.904  0.0890 -0.2275  0.1039
  276MOL   C10139151   7.199   5.179   0.921  0.5153  0.1536  0.1465
  276MOL   O10239152   7.336   5.321   1.043 -0.2640  0.0395 -0.2345
  276MOL   H10339153   7.281   5.368   0.843  1.4547  0.4572  0.4998
  276MOL   H10439154   7.161   5.165   0.820 -1.0567 -0.2911  0.7902
  276MOL   H10539155   7.115   5.218   0.978  1.5293  2.7165 -0.0446
  276MOL   H10639156   7.234   5.079   0.947  0.2763  0.3208  1.1440
  276MOL   C10739157   7.373   5.451   1.067 -0.0600 -0.1365  0.8155
  276MOL   C10839158   7.245   5.530   1.076  0.5169  0.3019  0.6545
  276MOL   O10939159   7.449   5.460   1.180  0.3733  0.1311 -0.4146
  276MOL   H11039160   7.436   5.499   0.992 -0.3574 -1.0684 -0.0403
  276MOL   H11139161   7.179   5.518   0.990 -0.0031 -1.7834  1.3326
  276MOL   H11239162   7.268   5.637   1.075  1.8638  0.0192 -0.7164
  276MOL   H11339163   7.185   5.502   1.162 -0.7634 -1.1807 -0.6917
  276MOL   C11439164   7.574   5.397   1.172  0.6293 -0.4130 -0.0742
  276MOL   C11539165   7.675   5.500   1.135 -0.0183 -0.3349  0.1660
  276MOL   O11639166   7.609   5.336   1.296 -0.1669 -0.5863 -0.5845
  276MOL   H11739167   7.570   5.318   1.096 -1.0242  2.3357 -2.9669
  276MOL   H11839168   7.667   5.531   1.031 -1.2977 -0.7500  0.1300
  276MOL   H11939169   7.773   5.457   1.159  0.6878  0.4122 -1.2751
  276MOL   H12039170   7.670   5.590   1.195  0.2088  0.3653 -0.8546
  276MOL   C12139171   7.520   5.239   1.337 -0.4724 -0.0026 -0.0778
  276MOL   C12239172   7.583   5.110   1.317 -0.7091 -0.3274  0.1476
  276MOL   O12339173   7.509   5.262   1.477  0.0676 -0.2301  0.3937
  276MOL   H12439174   7.422   5.241   1.289 -0.1509 -0.5398 -0.7456
  276MOL   H12539175   7.680   5.098   1.365 -0.0677 -0.4693 -1.1635
  276MOL   H12639176   7.605   5.097   1.210  0.3280 -1.4181  0.4791
  276MOL   H12739177   7.515   5.031   1.347  1.2974 -1.7555  1.0646
  276MOL   C12839178   7.449   5.383   1.512 -0.0904  0.0894 -0.2165
  276MOL   C12939179   7.320   5.349   1.586  0.5140  0.9740 -0.0287
  276MOL   O13039180   7.527   5.468   1.592 -0.9524 -0.2326 -0.3373
  276MOL   H13139181   7.415   5.434   1.422  0.7560 -1.3852 -1.3976
  276MOL   H13239182   7.322   5.287   1.675 -1.5418 -0.3679 -0.8647
  276MOL   H13339183   7.262   5.280   1.525  1.8926 -2.4002  2.3132
  276MOL   H13439184   7.255   5.436   1.597  1.8742  1.6653  2.7208
  276MOL   C13539185   7.620   5.543   1.516 -0.4058  0.3894 -0.2530
  276MOL   C13639186   7.647   5.674   1.595 -0.0660  0.6584 -0.0929
  276MOL   O13739187   7.741   5.463   1.501 -0.1910  0.0174 -0.1053
  276MOL   H13839188   7.592   5.569   1.414 -0.7417  1.6107  0.1323
  276MOL   H13939189   7.567   5.746   1.575 -1.8559 -1.2447  0.0640
  276MOL   H14039190   7.723   5.731   1.542  0.2969  0.1565 -0.1109
  276MOL   H14139191   7.662   5.670   1.703  0.0089  0.9674 -0.0900
  276MOL   H14239192   7.727   5.382   1.455  0.9578 -0.1139 -0.2379
  277MOL     C139193   2.353   6.559   1.144 -0.2305 -0.1589  0.1458
  277MOL     C239194   2.505   6.562   1.158 -0.9551  0.4547 -0.2954
  277MOL     O339195   2.311   6.509   1.012 -0.3256  0.2096 -0.4493
  277MOL     H439196   2.325   6.663   1.157  1.7907  0.2342  1.7077
  277MOL     H539197   2.553   6.627   1.085  0.5063 -1.1911 -0.8247
  277MOL     H639198   2.544   6.460   1.152 -2.2711 -0.1408  0.9895
  277MOL     H739199   2.533   6.600   1.256 -2.5161  1.0978 -0.0937
  277MOL     H839200   2.297   6.499   1.216 -0.9826  0.7319  0.3179
  277MOL     C939201   2.329   6.376   0.978  0.8697  0.1509  0.5090
  277MOL    C1039202   2.191   6.315   0.970 -0.1567 -0.9119  0.4060
  277MOL    O1139203   2.379   6.362   0.847 -0.2241 -0.0455 -0.2954
  277MOL    H1239204   2.393   6.322   1.048  0.5295 -0.8587  0.0477
  277MOL    H1339205   2.150   6.312   1.071  1.1351 -1.4340  0.9435
  277MOL    H1439206   2.204   6.212   0.935 -0.9939 -1.4072  1.5276
  277MOL    H1539207   2.135   6.380   0.904 -0.0394 -0.8079  0.4083
  277MOL    C1639208   2.502   6.414   0.832 -0.6440 -0.3545  0.2442
  277MOL    C1739209   2.601   6.294   0.824  0.0264 -0.2142 -0.6768
  277MOL    O1839210   2.524   6.485   0.717  0.2474  0.1290  0.4754
  277MOL    H1939211   2.532   6.469   0.921  0.0746  1.6773 -1.2111
  277MOL    H2039212   2.581   6.220   0.902 -3.3593  1.0549 -0.2605
  277MOL    H2139213   2.705   6.325   0.835  0.3596 -2.2647  2.2664
  277MOL    H2239214   2.594   6.236   0.731 -1.8739 -1.4253  0.1888
  277MOL    C2339215   2.451   6.601   0.703  0.4418 -0.1258  0.7231
  277MOL    C2439216   2.540   6.723   0.693 -0.3263  0.1888  0.5398
  277MOL    O2539217   2.384   6.597   0.574  0.1937 -0.1533  0.7979
  277MOL    H2639218   2.376   6.621   0.779 -0.5846 -0.6169 -0.1499
  277MOL    H2739219   2.474   6.805   0.663  2.2153  2.0416 -0.1197
  277MOL    H2839220   2.628   6.729   0.629 -0.6074  0.0352  0.1400
  277MOL    H2939221   2.573   6.750   0.794  0.3670  0.0816  0.3436
  277MOL    C3039222   2.288   6.495   0.560 -0.2778 -0.1025  0.2796
  277MOL    C3139223   2.154   6.566   0.547  0.2760 -0.2926  0.0241
  277MOL    O3239224   2.302   6.426   0.436 -0.3039  0.1644  0.3706
  277MOL    H3339225   2.275   6.430   0.646  0.2568 -1.1209 -0.3966
  277MOL    H3439226   2.068   6.504   0.520  0.1128 -0.1393  0.1906
  277MOL    H3539227   2.164   6.652   0.481 -1.7463  1.4547  1.9183
  277MOL    H3639228   2.127   6.596   0.648  1.2152 -0.1398  0.2321
  277MOL    C3739229   2.399   6.325   0.435 -0.2349 -0.4355 -0.1526
  277MOL    C3839230   2.315   6.188   0.437  0.3332  0.1936  0.3388
  277MOL    O3939231   2.474   6.323   0.315 -0.6013 -0.3222 -0.1154
  277MOL    H4039232   2.471   6.333   0.515 -0.7893 -1.6970  0.4894
  277MOL    H4139233   2.385   6.106   0.445 -1.2440 -1.2528 -0.4948
  277MOL    H4239234   2.265   6.173   0.341  2.1532  1.3790 -0.8313
  277MOL    H4339235   2.245   6.198   0.519  0.9376 -2.2045  1.1600
  277MOL    C4439236   2.542   6.447   0.287  0.1756 -0.1647 -0.3887
  277MOL    C4539237   2.679   6.437   0.353 -0.1826 -0.3278  0.1448
  277MOL    O4639238   2.557   6.460   0.147  0.0751 -0.1937  0.6118
  277MOL    H4739239   2.478   6.530   0.317  1.0774  0.2981  0.2645
  277MOL    H4839240   2.668   6.425   0.461  2.7825  0.6413  0.6023
  277MOL    H4939241   2.733   6.531   0.338  0.6585 -0.5484  1.6516
  277MOL    H5039242   2.729   6.353   0.306 -0.1924 -1.0447  1.3950
  277MOL    C5139243   2.437   6.450   0.067  0.7485  0.0799 -0.2496
  277MOL    C5239244   2.421   6.587   0.007  0.7776  0.1450 -0.1596
  277MOL    O5339245   2.455   6.361   7.878  0.4957 -0.0452  0.7107
  277MOL    H5439246   2.350   6.422   0.127  1.0181  1.3763  0.7659
  277MOL    H5539247   2.522   6.619   7.896  1.1088 -0.5353  0.2844
  277MOL    H5639248   2.378   6.661   0.075  0.9506  0.9005 -0.8673
  277MOL    H5739249   2.369   6.582   7.825  0.5279 -0.3363 -0.0007
  277MOL    C5839250   2.442   6.226   7.908  0.3535 -0.5775 -0.2901
  277MOL    C5939251   2.309   6.169   7.860  0.7076 -0.2125 -0.1436
  277MOL    O6039252   2.535   6.150   7.844 -0.3393  0.5470 -0.2189
  277MOL    H6139253   2.456   6.216   0.101 -0.3094  1.6012  0.0062
  277MOL    H6239254   2.231   6.227   7.908  0.4735 -0.1074 -0.6493
  277MOL    H6339255   2.301   6.069   7.903  0.5180 -0.0973  0.0911
  277MOL    H6439256   2.299   6.177   7.752  1.4770  2.9129 -0.0343
  277MOL    C6539257   2.674   6.174   7.869 -0.3539  0.6714 -0.0693
  277MOL    C6639258   2.732   6.035   7.908  0.2763 -0.4950  0.4920
  277MOL    O6739259   2.741   6.220   7.758 -0.0184  0.1778  1.3297
  277MOL    H6839260   2.679   6.244   0.038 -0.8277  1.0759 -0.3808
  277MOL    H6939261   2.755   5.973   7.822  3.3417 -0.2492  1.0859
  277MOL    H7039262   2.655   6.001   0.064 -3.1079 -1.5181 -3.5410
  277MOL    H7139263   2.825   6.046   0.050  0.5053 -1.2229  0.2523
  277MOL    C7239264   2.740   6.359   7.734  0.1748  0.0706  0.9810
  277MOL    C7339265   2.881   6.402   7.762 -0.6723  0.1798  0.1554
  277MOL    O7439266   2.716   6.384   7.604  0.0138  0.2249 -0.4076
  277MOL    H7539267   2.672   6.412   7.801 -1.0246 -1.1425  0.7493
  277MOL    H7639268   2.910   6.504   7.735  2.0145 -0.2579  1.1841
  277MOL    H7739269   2.942   6.318   7.729  0.5893  0.8324  0.7990
  277MOL    H7839270   2.896   6.408   7.870 -2.0690 -0.4438  0.3934
  277MOL    C7939271   2.592   6.352   7.550  0.5311  0.1292 -0.5102
  277MOL    C8039272   2.512   6.478   7.533 -0.2625  0.4410 -0.1881
  277MOL    O8139273   2.612   6.309   7.422  0.4007  0.0068 -0.1141
  277MOL    H8239274   2.534   6.285   7.613  1.0840  0.4505  0.3607
  277MOL    H8339275   2.423   6.441   7.483 -1.0633  0.2345  1.3418
  277MOL    H8439276   2.552   6.535   7.450 -0.2370 -0.9547 -1.1409
  277MOL    H8539277   2.486   6.532   7.625 -0.6406 -0.5600  0.3070
  277MOL    C8639278   2.637   6.170   7.412 -0.9126 -0.7566  0.2610
  277MOL    C8739279   2.501   6.115   7.380 -0.3260 -0.4474  0.0777
  277MOL    O8839280   2.722   6.136   7.306  0.4277 -0.2981  0.0555
  277MOL    H8939281   2.684   6.117   7.495 -0.0855  0.0200  0.2937
  277MOL    H9039282   2.473   6.146   7.279  1.7295 -1.0293 -0.6923
  277MOL    H9139283   2.429   6.159   7.449  1.0292  2.7411 -0.4976
  277MOL    H9239284   2.503   6.007   7.395  0.3205 -0.6821 -1.5893
  277MOL    C9339285   2.840   6.199   7.305 -0.0552 -0.6197 -0.2909
  277MOL    C9439286   2.936   6.145   7.404 -0.5560  0.3068 -0.1626
  277MOL    O9539287   2.903   6.177   7.185 -0.4205 -0.4933 -0.2560
  277MOL    H9639288   2.829   6.307   7.315 -1.3024 -0.8180  0.5519
  277MOL    H9739289   2.930   6.036   7.398  0.0010  0.2568  0.0889
  277MOL    H9839290   2.912   6.167   7.508  1.3971  2.1063 -0.0560
  277MOL    H9939291   3.042   6.164   7.383 -0.3504 -1.0939 -0.4793
  277MOL   C10039292   2.849   6.243   7.075 -0.0259 -0.9898  0.0802
  277MOL   C10139293   2.946   6.361   7.062  0.6271  0.5976 -0.0060
  277MOL   O10239294   2.860   6.161   6.960  0.6538 -0.4157  0.2008
  277MOL   H10339295   2.742   6.260   7.088 -0.0754 -0.9890 -0.3276
  277MOL   H10439296   3.047   6.323   7.052  1.3126  2.5235 -0.5435
  277MOL   H10539297   2.940   6.427   7.149  0.8615  0.1897  0.3197
  277MOL   H10639298   2.922   6.428   6.980 -1.0942  1.4276  1.1305
  277MOL   C10739299   2.774   6.060   6.965  0.2731  0.1927 -0.3758
  277MOL   C10839300   2.657   6.094   6.870  0.4730  0.7176  0.5003
  277MOL   O10939301   2.834   5.948   6.915 -0.2023 -0.2149 -0.7564
  277MOL   H11039302   2.737   6.039   7.066 -0.3723 -1.0306 -0.8525
  277MOL   H11139303   2.688   6.094   6.765 -1.8294  2.1002 -0.2141
  277MOL   H11239304   2.615   6.190   6.900  0.0339  0.1957  1.5756
  277MOL   H11339305   2.588   6.010   6.869  0.4878  0.7119 -0.5835
  277MOL   C11439306   2.926   5.888   7.005  0.0040  0.4892  0.7079
  277MOL   C11539307   2.884   5.742   7.008  0.1312 -0.3198  0.8335
  277MOL   O11639308   3.054   5.895   6.961 -0.4162  0.2583 -0.1772
  277MOL   H11739309   2.923   5.935   7.103 -0.1635  0.6010  0.6501
  277MOL   H11839310   2.956   5.683   7.066 -0.0876 -1.1726  0.2524
  277MOL   H11939311   2.866   5.710   6.905 -0.6542  1.9102  0.2515
  277MOL   H12039312   2.784   5.728   7.050 -0.9182 -0.9216 -1.7734
  277MOL   C12139313   3.131   6.008   7.001  0.1020  0.0878 -0.4264
  277MOL   C12239314   3.226   5.967   7.111  0.2276  0.4967 -0.1028
  277MOL   O12339315   3.216   6.050   6.890  0.7432 -0.3702 -0.0441
  277MOL   H12439316   3.081   6.099   7.035 -0.1788  0.3355 -1.4585
  277MOL   H12539317   3.294   6.052   7.123  1.4346 -0.5583  0.7622
  277MOL   H12639318   3.286   5.879   7.088 -0.8568  0.5814 -3.4272
  277MOL   H12739319   3.178   5.952   7.208  0.5700 -0.8096 -0.1323
  277MOL   C12839320   3.156   6.134   6.796 -0.7458 -0.1552 -0.0957
  277MOL   C12939321   3.235   6.267   6.810 -0.3955  0.1124  0.0622
  277MOL   O13039322   3.169   6.085   6.662 -0.2337 -0.0979  0.3377
  277MOL   H13139323   3.052   6.153   6.824 -0.7391 -1.1665  0.6258
  277MOL   H13239324   3.170   6.340   6.761 -1.1723 -0.4173  0.3176
  277MOL   H13339325   3.329   6.263   6.754 -2.3971 -0.6526 -3.4159
  277MOL   H13439326   3.254   6.300   6.912 -1.7092  0.6131  0.1502
  277MOL   C13539327   3.095   5.967   6.639 -0.6665 -0.0315 -0.6984
  277MOL   C13639328   3.087   5.933   6.485 -0.4100 -0.8705  0.0151
  277MOL   O13739329   3.164   5.862   6.705  0.3245  0.4401  0.4210
  277MOL   H13839330   2.996   5.979   6.683  0.4194  0.5035  1.6970
  277MOL   H13939331   3.036   5.838   6.470 -0.1002 -0.7654 -1.8816
  277MOL   H14039332   3.186   5.919   6.442 -0.2666 -1.7470  0.6171
  277MOL   H14139333   3.028   6.009   6.435 -0.9485 -1.1003  0.2919
  277MOL   H14239334   3.185   5.895   6.790  3.8891 -0.2965 -0.0702
  278MOL     C139335   7.475   5.909   2.745  0.0902  0.4412  0.1820
  278MOL     C239336   7.486   5.896   2.596 -0.1465 -0.2732 -0.4016
  278MOL     O339337   7.444   6.043   2.774  0.4235  0.0782  0.1227
  278MOL     H439338   7.560   5.891   2.810  0.0422  2.4051  0.8411
  278MOL     H539339   7.386   5.911   2.555 -0.2297 -3.9257 -1.7451
  278MOL     H639340   7.526   5.801   2.562  0.3591 -0.4895  0.7596
  278MOL     H739341   7.552   5.978   2.568 -0.9918 -0.3441 -2.7058
  278MOL     H839342   7.399   5.834   2.768 -0.4673  1.1177  0.5607
  278MOL     C939343   7.484   6.102   2.899  0.9104  0.3146  0.7675
  278MOL    C1039344   7.425   6.032   3.020  0.4552  0.2674  0.1480
  278MOL    O1139345   7.621   6.109   2.917 -0.0744 -0.4872 -0.3813
  278MOL    H1239346   7.436   6.199   2.900  0.6007  0.1594  1.2110
  278MOL    H1339347   7.449   6.085   3.112  0.5612 -2.5603  1.8003
  278MOL    H1439348   7.465   5.931   3.032 -1.4539 -0.6481 -1.0298
  278MOL    H1539349   7.319   6.017   2.999  0.1855  1.5488  0.5510
  278MOL    C1639350   7.684   6.211   2.839  0.0476  0.6360  0.7364
  278MOL    C1739351   7.694   6.333   2.923 -0.3234 -0.1594 -0.4308
  278MOL    O1839352   7.812   6.172   2.806  0.1339 -0.0877  0.2809
  278MOL    H1939353   7.632   6.230   2.745 -0.8091  1.6022  1.4065
  278MOL    H2039354   7.599   6.385   2.926  0.7970  1.9790 -0.8496
  278MOL    H2139355   7.758   6.407   2.875 -0.3870  0.3307  0.2514
  278MOL    H2239356   7.728   6.301   3.021 -0.1886  2.0877  0.2678
  278MOL    C2339357   7.813   6.075   2.709 -0.0233  0.1761  0.1483
  278MOL    C2439358   7.852   6.133   2.570  0.2984 -0.3637 -0.9168
  278MOL    O2539359   7.909   5.976   2.736 -0.5490 -0.3741 -0.5331
  278MOL    H2639360   7.717   6.025   2.707  0.2815 -0.3574 -1.1725
  278MOL    H2739361   0.024   6.195   2.597  1.3836 -2.3652  0.3416
  278MOL    H2839362   7.771   6.198   2.535  1.3072  1.6439  0.3698
  278MOL    H2939363   7.877   6.052   2.501  1.0799 -0.1884 -0.8459
  278MOL    C3039364   7.885   5.897   2.844  0.1411 -0.7325  0.2657
  278MOL    C3139365   7.834   5.765   2.782  0.6368  0.0566  0.0580
  278MOL    O3239366   0.083   5.874   2.926  0.3554  0.6862  0.5063
  278MOL    H3339367   7.797   5.933   2.898  0.3626 -0.8915  0.7385
  278MOL    H3439368   7.754   5.776   2.708 -0.4402  1.2974  1.3619
  278MOL    H3539369   7.799   5.691   2.854 -0.9283  4.6201  4.2274
  278MOL    H3639370   0.002   5.715   2.732  0.5332 -2.3636  2.2206
  278MOL    C3739371   0.116   5.983   3.002  0.0346  0.2337  0.2123
  278MOL    C3839372   0.015   5.988   3.121  0.3914  0.4519 -0.0993
  278MOL    O3939373   0.243   5.964   3.052  0.2881  0.2322  0.0553
  278MOL    H4039374   0.104   6.067   2.933 -1.3893 -0.9758 -1.0241
  278MOL    H4139375   0.073   6.017   3.208 -0.6819  0.2484  0.6819
  278MOL    H4239376   7.896   5.886   3.144  1.3709 -0.0811 -0.9909
  278MOL    H4339377   7.852   6.061   3.100 -2.9879 -1.6681  4.1641
  278MOL    C4439378   0.333   5.888   2.973  0.0415  0.1629  0.5294
  278MOL    C4539379   0.384   5.976   2.860  0.2326  0.7968  0.1388
  278MOL    O4639380   0.446   5.855   3.045  0.7348 -0.3175 -0.1926
  278MOL    H4739381   0.297   5.793   2.933  1.0609  0.8855 -2.2590
  278MOL    H4839382   0.437   6.062   2.900 -0.6159  0.8203  1.2208
  278MOL    H4939383   0.300   6.005   2.797  0.6030  2.4040  0.3629
  278MOL    H5039384   0.444   5.916   2.792 -0.6838  1.4175 -1.2286
  278MOL    C5139385   0.430   5.761   3.146  0.0653 -0.8259 -0.2372
  278MOL    C5239386   0.510   5.638   3.103 -0.0273  0.1307 -0.7682
  278MOL    O5339387   0.489   5.805   3.265 -0.1690  0.2296 -0.3963
  278MOL    H5439388   0.330   5.720   3.163 -0.0973  0.1006  1.0973
  278MOL    H5539389   0.468   5.600   3.009 -1.2262 -2.4652  0.7736
  278MOL    H5639390   0.496   5.560   3.178  2.0119  1.5638  1.1576
  278MOL    H5739391   0.618   5.651   3.099  0.1759 -1.0238  0.6361
  278MOL    C5839392   0.411   5.898   3.334  0.0248  0.4149  0.1777
  278MOL    C5939393   0.344   5.832   3.453 -0.6077 -0.8177 -0.4465
  278MOL    O6039394   0.494   6.001   3.375 -0.1438 -0.4298 -0.5667
  278MOL    H6139395   0.338   5.941   3.266  0.0183  2.1755  1.2922
  278MOL    H6239396   0.421   5.798   3.522  0.7933  0.9530 -1.1074
  278MOL    H6339397   0.274   5.754   3.423  0.5928 -2.0075 -0.2160
  278MOL    H6439398   0.292   5.898   3.522  1.8056 -0.9067  1.5487
  278MOL    C6539399   0.511   6.091   3.274  0.4565 -0.3054 -0.3403
  278MOL    C6639400   0.415   6.202   3.302  0.9821 -0.2922  0.5542
  278MOL    O6739401   0.631   6.160   3.292 -0.0363 -0.6427 -0.0434
  278MOL    H6839402   0.508   6.045   3.175 -2.2904  4.2546 -2.5468
  278MOL    H6939403   0.315   6.159   3.290  1.0130 -0.6792  1.6502
  278MOL    H7039404   0.418   6.286   3.233  0.0585 -0.4666  0.2893
  278MOL    H7139405   0.417   6.240   3.404 -0.0124  2.2896 -0.3517
  278MOL    C7239406   0.743   6.080   3.280  0.4339  0.0867 -0.2108
  278MOL    C7339407   0.786   6.082   3.131  0.0290 -0.0751  0.5091
  278MOL    O7439408   0.846   6.127   3.368  0.0682 -0.0860 -0.1338
  278MOL    H7539409   0.719   5.978   3.313  0.6426  0.0598 -0.1416
  278MOL    H7639410   0.706   6.063   3.060 -0.4225 -0.7239  1.1830
  278MOL    H7739411   0.873   6.017   3.120  0.6264  0.6295  1.0312
  278MOL    H7839412   0.830   6.180   3.114 -1.7685  0.5686 -0.5429
  278MOL    C7939413   0.825   6.116   3.502 -0.1095 -0.6675  0.3961
  278MOL    C8039414   0.923   6.004   3.532 -0.2262 -0.0320  0.8360
  278MOL    O8139415   0.859   6.236   3.565  0.4565  0.0336  0.2091
  278MOL    H8239416   0.723   6.080   3.516 -0.9190  1.6089  0.6555
  278MOL    H8339417   0.918   6.002   3.641 -1.4690  0.0051  0.7927
  278MOL    H8439418   1.023   6.021   3.494  0.2444 -3.9889  0.1323
  278MOL    H8539419   0.889   5.909   3.489 -0.4045  0.9622 -1.2710
  278MOL    C8639420   0.758   6.332   3.541 -0.6184  0.5263  0.4084
  278MOL    C8739421   0.645   6.323   3.645 -0.4115  0.3639 -0.5380
  278MOL    O8839422   0.816   6.457   3.543 -0.2419 -0.3651 -0.3775
  278MOL    H8939423   0.704   6.314   3.448  0.4556  2.0774 -0.5357
  278MOL    H9039424   0.684   6.299   3.744  0.0971  0.2295 -0.7647
  278MOL    H9139425   0.568   6.250   3.619 -0.2519 -0.7931  2.0556
  278MOL    H9239426   0.597   6.419   3.661 -0.2462 -0.0753  2.8298
  278MOL    C9339427   0.893   6.485   3.433  0.4159  0.1383 -0.0611
  278MOL    C9439428   0.815   6.582   3.348 -0.8000  0.7301  0.5913
  278MOL    O9539429   1.002   6.554   3.481 -0.1037  0.9755 -0.0397
  278MOL    H9639430   0.925   6.401   3.372  0.4222 -0.3064  0.5552
  278MOL    H9739431   0.787   6.659   3.420  1.0212  1.4090  0.5934
  278MOL    H9839432   0.719   6.540   3.319  0.2867 -1.3897 -0.0160
  278MOL    H9939433   0.870   6.623   3.264 -1.1596 -2.0301 -1.0280
  278MOL   C10039434   1.090   6.466   3.544 -0.1736  0.2405  0.9442
  278MOL   C10139435   1.224   6.466   3.455 -0.2266 -0.2156  0.0650
  278MOL   O10239436   1.131   6.519   3.671 -0.6995  0.3007 -0.0479
  278MOL   H10339437   1.060   6.362   3.559 -0.5268  0.4089  1.4285
  278MOL   H10439438   1.195   6.407   3.369 -0.5632 -0.8379  0.6019
  278MOL   H10539439   1.302   6.408   3.505  2.7644  2.4189 -1.3818
  278MOL   H10639440   1.264   6.565   3.432 -0.5455 -0.3526 -1.1016
  278MOL   C10739441   1.039   6.494   3.770  0.2952 -0.2664 -1.5472
  278MOL   C10839442   1.091   6.381   3.858  0.0912 -0.8426  0.1630
  278MOL   O10939443   1.020   6.613   3.844 -0.4410  0.0309 -0.2986
  278MOL   H11039444   0.944   6.457   3.731  1.4640 -2.3370 -2.5352
  278MOL   H11139445   1.104   6.283   3.813 -0.1726 -1.1908  0.8288
  278MOL   H11239446   1.031   6.359   3.947  0.0742  0.9426  0.6142
  278MOL   H11339447   1.187   6.423   3.889  0.4513 -1.3449 -0.2756
  278MOL   C11439448   0.951   6.714   3.780 -0.2591  0.6827 -0.6680
  278MOL   C11539449   0.810   6.705   3.837  0.0695  0.0947  0.1757
  278MOL   O11639450   1.005   6.836   3.818  0.1276  0.0141  0.0369
  278MOL   H11739451   0.932   6.699   3.674 -1.7310 -1.3793 -0.1460
  278MOL   H11839452   0.764   6.606   3.839 -1.1552  0.4680 -3.9491
  278MOL   H11939453   0.748   6.772   3.777 -0.4121  1.2389  1.9316
  278MOL   H12039454   0.814   6.745   3.938  2.8441 -2.2792  1.0951
  278MOL   C12139455   1.113   6.881   3.742  0.4502  0.5579  0.1488
  278MOL   C12239456   1.081   7.021   3.684 -0.6113  0.1973 -0.0750
  278MOL   O12339457   1.235   6.889   3.812 -0.4969 -0.6786  0.1052
  278MOL   H12439458   1.137   6.816   3.658  0.7488 -1.1902  1.5836
  278MOL   H12539459   1.069   7.088   3.769 -0.0141 -1.3528  1.2725
  278MOL   H12639460   0.988   7.000   3.631 -0.4937  0.6849 -0.4735
  278MOL   H12739461   1.156   7.050   3.612 -1.7659 -0.4413 -1.5683
  278MOL   C12839462   1.301   6.775   3.835 -0.2440  0.4774  0.0196
  278MOL   C12939463   1.422   6.773   3.750  0.2341 -0.7598  0.2635
  278MOL   O13039464   1.356   6.774   3.964 -0.1811  0.0496  0.6258
  278MOL   H13139465   1.241   6.684   3.827  0.1299  0.1622  0.7284
  278MOL   H13239466   1.472   6.676   3.754  0.5964 -0.5523  0.8602
  278MOL   H13339467   1.488   6.856   3.775  0.1837 -1.1285  1.6156
  278MOL   H13439468   1.387   6.781   3.647  0.8173 -0.0079  0.1147
  278MOL   C13539469   1.255   6.737   4.055  0.1192 -0.4484  0.1811
  278MOL   C13639470   1.319   6.694   4.181 -0.8566  0.2420  0.4854
  278MOL   O13739471   1.173   6.849   4.088 -0.3018  0.1042  0.5563
  278MOL   H13839472   1.192   6.657   4.016  2.0872 -0.9651 -2.0796
  278MOL   H13939473   1.374   6.777   4.226  0.2510 -1.2184  1.9009
  278MOL   H14039474   1.391   6.619   4.148 -1.0073  0.1123  0.4540
  278MOL   H14139475   1.249   6.665   4.259 -0.7316  1.4054  1.0525
  278MOL   H14239476   1.133   6.869   4.005  2.0326 -1.3215 -0.9568
  279MOL     C139477   3.012   1.633   6.539  0.7731  0.4411  0.5930
  279MOL     C239478   2.930   1.743   6.477 -0.5894  0.6186 -0.3504
  279MOL     O339479   2.978   1.501   6.507  0.3508  0.0879  0.8231
  279MOL     H439480   3.004   1.635   6.647 -0.2833 -0.4031  0.5379
  279MOL     H539481   2.954   1.841   6.518 -0.3200  0.7940 -0.9233
  279MOL     H639482   2.828   1.725   6.510 -0.9349 -1.8713 -2.6801
  279MOL     H739483   2.945   1.748   6.369 -0.8879 -1.3989 -0.4958
  279MOL     H839484   3.118   1.642   6.517  0.3645 -1.0821 -2.3783
  279MOL     C939485   3.027   1.400   6.583  0.1132  0.5096 -0.5375
  279MOL    C1039486   2.924   1.374   6.692  0.0011 -0.7164 -0.2596
  279MOL    O1139487   3.045   1.296   6.507  0.0035  0.5471 -0.6474
  279MOL    H1239488   3.120   1.433   6.629 -0.1264  1.0388 -0.4312
  279MOL    H1339489   2.938   1.284   6.753 -2.9379 -4.0650 -4.2683
  279MOL    H1439490   2.829   1.358   6.641  1.3781  0.0468 -3.1671
  279MOL    H1539491   2.913   1.459   6.759  0.1552 -0.1293 -0.9815
  279MOL    C1639492   3.157   1.310   6.420  0.0796  0.5750 -0.1417
  279MOL    C1739493   3.271   1.222   6.481  0.4863  0.6523 -0.8267
  279MOL    O1839494   3.119   1.254   6.302  0.3839 -0.2896  0.5406
  279MOL    H1939495   3.197   1.410   6.404 -1.4840  1.0389 -1.3219
  279MOL    H2039496   3.357   1.209   6.416 -1.1242 -1.5101 -2.5914
  279MOL    H2139497   3.247   1.119   6.505  1.7855  0.6138  0.3533
  279MOL    H2239498   3.302   1.270   6.574  1.7286  1.7631 -1.7910
  279MOL    C2339499   3.054   1.347   6.217  0.1436 -0.4884  1.0005
  279MOL    C2439500   3.150   1.376   6.106 -0.4510 -0.1270 -0.4472
  279MOL    O2539501   2.950   1.291   6.157  0.4205  0.5720  0.3963
  279MOL    H2639502   3.023   1.441   6.265 -2.0908 -0.3050 -0.7132
  279MOL    H2739503   3.171   1.280   6.061 -2.9200 -0.5017 -0.8643
  279MOL    H2839504   3.243   1.404   6.155 -1.9716  0.3992  2.2859
  279MOL    H2939505   3.117   1.456   6.039  2.4593  1.8072  0.3012
  279MOL    C3039506   2.841   1.289   6.241  0.4562 -0.1639  0.8926
  279MOL    C3139507   2.750   1.403   6.197 -0.3021 -0.1200 -0.0048
  279MOL    O3239508   2.764   1.174   6.233 -0.2624 -0.3303  0.1552
  279MOL    H3339509   2.879   1.311   6.341  0.3217 -1.1641  1.1653
  279MOL    H3439510   2.671   1.420   6.270  0.8353  2.8900  0.6073
  279MOL    H3539511   2.721   1.393   6.092  0.6892 -0.3712 -0.2642
  279MOL    H3639512   2.809   1.494   6.206  0.5002 -0.4145 -1.9289
  279MOL    C3739513   2.839   1.063   6.277 -0.2178  0.1759 -0.0258
  279MOL    C3839514   2.743   0.984   6.369  0.7362  0.8627  0.2203
  279MOL    O3939515   2.857   0.964   6.180 -0.2489 -0.6982  0.0129
  279MOL    H4039516   2.932   1.087   6.329  0.0346 -1.9366  0.5570
  279MOL    H4139517   2.723   1.037   6.461 -0.1982  0.7916  0.0583
  279MOL    H4239518   2.794   0.890   6.392  2.7731  2.0722  0.7183
  279MOL    H4339519   2.657   0.953   6.310  1.1896  1.5306 -0.8180
  279MOL    C4439520   2.967   0.982   6.099  0.0368  0.6460 -0.2310
  279MOL    C4539521   3.046   0.853   6.137 -0.4431  0.5087  0.7129
  279MOL    O4639522   2.942   0.973   5.959 -0.0059 -0.7346 -0.0336
  279MOL    H4739523   3.030   1.067   6.123  0.1501  0.3076  0.6919
  279MOL    H4839524   2.980   0.770   6.115 -3.6154  3.2061 -0.3528
  279MOL    H4939525   3.086   0.856   6.238 -1.5217  0.8875  1.1305
  279MOL    H5039526   3.135   0.849   6.073 -0.9046  0.8284  0.0409
  279MOL    C5139527   2.865   1.079   5.921 -0.0767 -0.5251  0.4265
  279MOL    C5239528   2.935   1.132   5.798 -0.5971  0.5535 -0.3986
  279MOL    O5339529   2.738   1.041   5.872  0.8605  0.0925  0.2249
  279MOL    H5439530   2.852   1.153   6.000  1.5051  2.0426 -1.6521
  279MOL    H5539531   2.885   1.211   5.742  0.8698  2.8851  1.5299
  279MOL    H5639532   2.965   1.050   5.732  0.8254 -0.0127  0.9237
  279MOL    H5739533   3.033   1.170   5.827  0.3739 -2.4191  0.3954
  279MOL    C5839534   2.634   1.030   5.967 -0.2070 -1.0733  0.0247
  279MOL    C5939535   2.546   1.152   5.948 -0.6394 -0.3307 -0.7301
  279MOL    O6039536   2.551   0.925   5.934  0.6840 -0.2378 -0.0357
  279MOL    H6139537   2.661   1.032   6.073 -0.9811  0.7435  0.1999
  279MOL    H6239538   2.456   1.151   6.010 -0.2099 -0.9846 -0.1058
  279MOL    H6339539   2.516   1.151   5.844 -0.2560 -2.6060 -0.8371
  279MOL    H6439540   2.596   1.244   5.978 -1.1396 -0.3949  0.3398
  279MOL    C6539541   2.610   0.802   5.975  0.3372  1.1811  0.4353
  279MOL    C6639542   2.531   0.743   6.089 -0.2612  0.0845  0.3665
  279MOL    O6739543   2.588   0.721   5.859 -0.4876 -0.4925 -0.4298
  279MOL    H6839544   2.715   0.799   6.004  0.4262  1.1005  0.1107
  279MOL    H6939545   2.546   0.811   6.173 -0.4900  0.2882  0.2451
  279MOL    H7039546   2.582   0.650   6.117  0.7552  0.2915 -0.7561
  279MOL    H7139547   2.425   0.723   6.069 -0.6074  0.7049  1.5721
  279MOL    C7239548   2.697   0.712   5.778  0.7882 -0.0508  0.4287
  279MOL    C7339549   2.756   0.575   5.790  0.0413 -0.9943  0.3477
  279MOL    O7439550   2.664   0.723   5.641 -0.3495 -0.1453  0.1165
  279MOL    H7539551   2.768   0.791   5.801 -1.5361  1.7142  1.7843
  279MOL    H7639552   2.673   0.508   5.772  0.4531 -0.8553 -2.2321
  279MOL    H7739553   2.792   0.566   5.893 -1.4874  0.6089  1.0420
  279MOL    H7839554   2.836   0.551   5.720 -0.5113 -2.9564  0.3716
  279MOL    C7939555   2.629   0.856   5.604 -0.1161 -0.4822  0.0281
  279MOL    C8039556   2.712   0.901   5.488  0.4327  0.0627  0.6777
  279MOL    O8139557   2.497   0.853   5.555  0.0443 -0.0369 -0.1881
  279MOL    H8239558   2.644   0.925   5.687  0.6311 -0.3338 -0.2268
  279MOL    H8339559   2.696   0.826   5.411  0.6801 -0.0592  0.7437
  279MOL    H8439560   2.817   0.897   5.518  1.0620 -2.5446 -1.6278
  279MOL    H8539561   2.682   1.000   5.454  2.0918 -0.2886 -1.9559
  279MOL    C8639562   2.390   0.866   5.645  0.4031 -0.2766  0.2858
  279MOL    C8739563   2.332   1.004   5.618 -0.0678  0.2584  0.5236
  279MOL    O8839564   2.290   0.767   5.619  0.0389  0.1272 -0.5269
  279MOL    H8939565   2.415   0.869   5.751 -0.7696 -0.7402  0.5847
  279MOL    H9039566   2.267   1.032   5.700 -0.6309 -0.7365  0.4238
  279MOL    H9139567   2.282   1.006   5.521 -2.2206  2.8893  1.6081
  279MOL    H9239568   2.416   1.073   5.619  1.6258 -1.7508  3.0848
  279MOL    C9339569   2.325   0.638   5.663 -0.0618 -0.4731 -0.2933
  279MOL    C9439570   2.224   0.606   5.776 -0.5866 -0.5373 -0.1811
  279MOL    O9539571   2.297   0.542   5.562  0.6596 -0.1728  0.2089
  279MOL    H9639572   2.425   0.628   5.706 -0.8474  0.0797  1.7242
  279MOL    H9739573   2.119   0.594   5.747 -0.6687  0.2360 -0.2020
  279MOL    H9839574   2.222   0.672   5.863  2.4070 -1.7933  0.9141
  279MOL    H9939575   2.258   0.513   5.823 -1.4046  0.2274  1.9955
  279MOL   C10039576   2.388   0.553   5.459 -1.1902 -0.3793  0.2310
  279MOL   C10139577   2.462   0.417   5.454  0.0392 -0.0134  0.0222
  279MOL   O10239578   2.333   0.579   5.334  0.1016 -0.0971  0.1340
  279MOL   H10339579   2.460   0.634   5.464 -1.3004  0.0438 -3.5162
  279MOL   H10439580   2.403   0.340   5.403  0.7136  0.1224 -0.9838
  279MOL   H10539581   2.499   0.388   5.552  0.4151  3.3365  0.9284
  279MOL   H10639582   2.550   0.420   5.390  0.7140 -2.6186  0.7897
  279MOL   C10739583   2.304   0.719   5.308  0.0326 -0.2031 -0.4055
  279MOL   C10839584   2.394   0.774   5.189  0.4757  0.0469  0.3492
  279MOL   O10939585   2.173   0.730   5.252  0.0682  0.0126 -0.3499
  279MOL   H11039586   2.318   0.782   5.396 -0.3417  1.3420 -1.4301
  279MOL   H11139587   2.502   0.773   5.205  0.4823 -0.4403  0.2778
  279MOL   H11239588   2.360   0.876   5.169 -0.1172 -0.0981  0.6204
  279MOL   H11339589   2.374   0.724   5.094  0.2994 -1.9830  1.4458
  279MOL   C11439590   2.075   0.724   5.350 -0.6720  0.0848 -0.1258
  279MOL   C11539591   2.007   0.858   5.363 -0.7008  0.7595  0.6699
  279MOL   O11639592   1.975   0.629   5.324  0.2071  0.1817 -0.3684
  279MOL   H11739593   2.113   0.701   5.450  0.5365  0.6374 -0.4488
  279MOL   H11839594   1.964   0.889   5.268 -1.1821  0.2009  0.6985
  279MOL   H11939595   2.074   0.939   5.391 -2.1338  0.7688  4.3786
  279MOL   H12039596   1.926   0.855   5.435 -0.7216 -2.1782  0.6194
  279MOL   C12139597   2.012   0.501   5.353 -0.3283  0.0271  0.7818
  279MOL   C12239598   1.915   0.457   5.455  0.5649  0.8670 -0.3001
  279MOL   O12339599   1.986   0.410   5.255 -0.0115 -0.4821  0.0722
  279MOL   H12439600   2.117   0.489   5.382 -0.3484 -3.2351 -0.2157
  279MOL   H12539601   1.814   0.444   5.416  0.3714  3.3953 -0.6742
  279MOL   H12639602   1.899   0.521   5.542  0.4210 -0.2821  0.5356
  279MOL   H12739603   1.938   0.355   5.486 -0.6547  0.4359 -0.7893
  279MOL   C12839604   2.092   0.401   5.160 -0.2128  0.2237  0.3546
  279MOL   C12939605   2.146   0.257   5.183  0.1161 -0.0731 -0.5511
  279MOL   O13039606   2.028   0.397   5.030 -0.1582  0.1102  0.3810
  279MOL   H13139607   2.166   0.481   5.174 -1.2492  1.6447 -2.0381
  279MOL   H13239608   2.208   0.256   5.272 -0.7623 -2.0707  0.0773
  279MOL   H13339609   2.193   0.225   5.089  1.0484 -3.5670  1.0162
  279MOL   H13439610   2.065   0.185   5.194 -0.2752  0.6130  1.0841
  279MOL   C13539611   2.022   0.523   4.973 -0.4199  0.2225  0.4595
  279MOL   C13639612   2.006   0.501   4.825  0.0431 -0.2018  0.0268
  279MOL   O13739613   1.915   0.592   5.022 -0.0708 -0.5559  0.4203
  279MOL   H13839614   2.107   0.587   4.995 -1.1085  0.8231  1.3822
  279MOL   H13939615   2.094   0.447   4.790  0.0468 -0.2822  0.1601
  279MOL   H14039616   2.009   0.591   4.763  2.1015 -0.9173 -0.9335
  279MOL   H14139617   1.915   0.455   4.787  0.2261 -0.3016 -0.2944
  279MOL   H14239618   1.935   0.611   5.113 -1.4505  2.6745  0.1342
  280MOL     C139619   2.261   4.082   5.473 -0.4412  0.5648 -0.6625
  280MOL     C239620   2.143   3.988   5.471  0.2802  0.2779  0.5961
  280MOL     O339621   2.351   4.042   5.372 -0.0298 -0.1657 -0.8525
  280MOL     H439622   2.309   4.066   5.569 -4.4912 -0.2778  1.3492
  280MOL     H539623   2.060   4.020   5.534  0.0063 -1.6262  1.2448
  280MOL     H639624   2.173   3.889   5.506  0.5960 -0.0026 -0.4440
  280MOL     H739625   2.096   3.975   5.373 -1.3937 -0.8327  1.5235
  280MOL     H839626   2.242   4.189   5.459  0.5965  1.2766  2.8260
  280MOL     C939627   2.461   4.130   5.357 -0.1970 -0.1710  0.2746
  280MOL    C1039628   2.576   4.058   5.420  0.3560 -0.8981  0.6663
  280MOL    O1139629   2.487   4.149   5.222  0.2629  0.0636 -0.4032
  280MOL    H1239630   2.443   4.225   5.408  0.5408  0.1165 -0.0062
  280MOL    H1339631   2.667   4.115   5.401  0.1473 -2.0079 -4.5163
  280MOL    H1439632   2.594   3.960   5.375  2.4458 -0.6968  0.9982
  280MOL    H1539633   2.568   4.041   5.527  1.1655 -1.4321  0.6502
  280MOL    C1639634   2.395   4.214   5.142  0.0578 -0.1242  0.6582
  280MOL    C1739635   2.473   4.314   5.067 -0.3094 -0.4990  0.2289
  280MOL    O1839636   2.340   4.138   5.042 -0.4291  0.5491 -0.5992
  280MOL    H1939637   2.323   4.268   5.204  0.0832  1.9885 -1.0682
  280MOL    H2039638   2.549   4.272   5.001 -0.0859  0.1980  0.0401
  280MOL    H2139639   2.504   4.398   5.128 -0.5896  0.3945 -0.8398
  280MOL    H2239640   2.412   4.365   4.992  0.6715  0.3485 -0.0043
  280MOL    C2339641   2.224   4.065   5.074  0.1963  0.4242 -0.1032
  280MOL    C2439642   2.105   4.129   5.003 -0.0703 -1.0424  0.0060
  280MOL    O2539643   2.229   3.930   5.031 -0.0724  0.0227  0.1132
  280MOL    H2639644   2.196   4.059   5.179 -1.3349 -1.6549 -0.6001
  280MOL    H2739645   2.016   4.070   5.020  0.9351 -2.5242  0.2616
  280MOL    H2839646   2.131   4.122   4.897 -2.7963 -0.2733 -0.7440
  280MOL    H2939647   2.102   4.236   5.025 -2.3872 -0.6480 -2.0643
  280MOL    C3039648   2.312   3.846   5.106  0.1739 -0.4603 -0.0518
  280MOL    C3139649   2.227   3.731   5.165  0.2260  0.4000 -0.1055
  280MOL    O3239650   2.400   3.782   5.025  0.7072 -0.0385  0.2626
  280MOL    H3339651   2.356   3.904   5.187 -0.2659  1.5398 -1.2020
  280MOL    H3439652   2.136   3.770   5.211  0.3663  1.8117 -1.0009
  280MOL    H3539653   2.288   3.675   5.236  2.3392  0.4670 -1.8441
  280MOL    H3639654   2.194   3.667   5.083  0.1343  0.1895  0.0953
  280MOL    C3739655   2.515   3.856   5.007 -0.3389  0.1130  0.2374
  280MOL    C3839656   2.636   3.780   5.066  0.3829  0.2730  0.3675
  280MOL    O3939657   2.548   3.851   4.870 -0.0487 -0.7018 -0.1681
  280MOL    H4039658   2.522   3.953   5.056  2.0272  0.1399 -0.1144
  280MOL    H4139659   2.727   3.840   5.063  2.1363 -2.2248  2.2149
  280MOL    H4239660   2.645   3.688   5.008  0.4832  0.3198  0.3089
  280MOL    H4339661   2.615   3.751   5.169 -0.0027 -0.7153  0.0191
  280MOL    C4439662   2.473   3.943   4.796  0.8551  0.1443 -0.1764
  280MOL    C4539663   2.563   4.063   4.762  0.2313 -0.1141 -0.0498
  280MOL    O4639664   2.425   3.884   4.669  0.1633 -0.2495 -0.3060
  280MOL    H4739665   2.389   3.981   4.854  0.6329 -0.0688 -0.3594
  280MOL    H4839666   2.651   4.039   4.702 -0.2151 -2.3472  0.1382
  280MOL    H4939667   2.597   4.101   4.858 -0.9453  2.0078 -0.4321
  280MOL    H5039668   2.511   4.139   4.704 -2.0134 -1.2445  0.4398
  280MOL    C5139669   2.328   3.786   4.690  0.7739 -0.1733  0.4253
  280MOL    C5239670   2.184   3.817   4.645 -0.4402  0.1881 -0.1873
  280MOL    O5339671   2.358   3.662   4.626 -0.2338  0.3275 -0.1146
  280MOL    H5439672   2.324   3.769   4.798  3.8473 -0.8326  0.4812
  280MOL    H5539673   2.142   3.904   4.696 -0.1093  0.2324  0.0136
  280MOL    H5639674   2.131   3.726   4.670 -3.7659  2.6846  2.2765
  280MOL    H5739675   2.175   3.844   4.540 -1.2526 -1.0299 -0.4406
  280MOL    C5839676   2.468   3.591   4.677 -0.4156 -0.3711 -0.5403
  280MOL    C5939677   2.425   3.508   4.804 -0.1432  1.2886  0.3034
  280MOL    O6039678   2.534   3.519   4.579  0.2348 -0.3544 -0.6660
  280MOL    H6139679   2.539   3.665   4.717 -0.4228 -0.8968  0.4614
  280MOL    H6239680   2.376   3.568   4.881 -0.9308 -0.9752  1.6548
  280MOL    H6339681   2.509   3.462   4.857 -0.3618  0.0988 -0.3585
  280MOL    H6439682   2.353   3.430   4.779 -0.9400  1.6122  1.5210
  280MOL    C6539683   2.567   3.595   4.467  0.2448  0.1464  0.3708
  280MOL    C6639684   2.664   3.708   4.503 -1.0277 -0.4651 -0.4514
  280MOL    O6739685   2.643   3.519   4.372 -0.3215 -0.1072  0.0147
  280MOL    H6839686   2.472   3.631   4.427 -0.5482 -1.8550  0.4034
  280MOL    H6939687   2.635   3.792   4.566  0.7660 -0.3484  0.2280
  280MOL    H7039688   2.699   3.748   4.408 -0.0907  0.9297  0.4669
  280MOL    H7139689   2.759   3.673   4.543 -0.9345 -1.2373 -1.3313
  280MOL    C7239690   2.578   3.404   4.333  0.1066  0.2548 -0.7512
  280MOL    C7339691   2.488   3.438   4.215  0.0188 -0.3312 -0.0257
  280MOL    O7439692   2.672   3.307   4.285  0.3979  0.1484 -0.2753
  280MOL    H7539693   2.519   3.356   4.411 -1.6460  1.3146 -1.3912
  280MOL    H7639694   2.421   3.363   4.173  0.5395 -1.3413  0.9346
  280MOL    H7739695   2.539   3.472   4.124 -1.9536 -1.1212 -1.4592
  280MOL    H7839696   2.427   3.526   4.238 -1.9256 -1.6542 -0.0245
  280MOL    C7939697   2.732   3.233   4.389  0.2841 -0.3355 -0.6050
  280MOL    C8039698   2.716   3.092   4.343  0.0923  0.0970 -0.0292
  280MOL    O8139699   2.868   3.254   4.403  0.0086  0.0541  0.0309
  280MOL    H8239700   2.695   3.246   4.490  0.5908 -0.8861 -0.4260
  280MOL    H8339701   2.765   3.076   4.247 -0.1637  2.9484 -0.6670
  280MOL    H8439702   2.608   3.078   4.345  0.3015 -1.4995  2.8810
  280MOL    H8539703   2.762   3.027   4.417 -0.5755 -0.0736  0.2350
  280MOL    C8639704   2.907   3.362   4.487 -0.0025 -0.1068 -0.3400
  280MOL    C8739705   2.916   3.306   4.638 -0.2378 -0.2481  0.0072
  280MOL    O8839706   3.026   3.425   4.450  0.2667 -0.6303 -0.9988
  280MOL    H8939707   2.832   3.441   4.477  0.0301  0.1790  1.4746
  280MOL    H9039708   2.828   3.245   4.654 -0.1910 -1.1708 -2.9721
  280MOL    H9139709   2.917   3.388   4.710 -1.2435  1.6355 -2.0505
  280MOL    H9239710   3.005   3.246   4.656 -0.2524 -0.8706 -1.9174
  280MOL    C9339711   3.034   3.465   4.315 -0.1763  0.1652  0.2672
  280MOL    C9439712   3.024   3.618   4.310 -0.6614 -0.1706 -0.1409
  280MOL    O9539713   3.157   3.424   4.263  1.0043 -0.3856 -0.1319
  280MOL    H9639714   2.952   3.420   4.259  0.9913  0.4703 -1.7768
  280MOL    H9739715   3.091   3.669   4.380 -0.2366  0.0286 -0.6822
  280MOL    H9839716   2.923   3.655   4.327  0.3533  1.7449  1.9150
  280MOL    H9939717   3.054   3.638   4.207  1.2215 -0.6239  0.2957
  280MOL   C10039718   3.154   3.292   4.218 -0.3396 -0.2814  0.5549
  280MOL   C10139719   3.112   3.279   4.079 -0.4684 -0.6617 -0.1337
  280MOL   O10239720   3.280   3.238   4.221  0.2012 -0.5191 -0.7386
  280MOL   H10339721   3.099   3.222   4.281 -2.2069  0.8405  0.1787
  280MOL   H10439722   3.003   3.276   4.080 -0.5048  0.4958  0.4967
  280MOL   H10539723   3.149   3.190   4.029 -1.1532  0.0829 -2.0070
  280MOL   H10639724   3.141   3.374   4.033 -0.1243 -0.7460 -0.0865
  280MOL   C10739725   3.330   3.201   4.346 -0.2695  0.5599 -0.3809
  280MOL   C10839726   3.348   3.054   4.336  1.0433 -0.1770 -0.6375
  280MOL   O10939727   3.454   3.254   4.386  0.4682 -0.3315 -0.3752
  280MOL   H11039728   3.257   3.219   4.425  0.4779  2.6902 -0.1399
  280MOL   H11139729   3.361   3.024   4.440  2.9265  1.4401 -0.3953
  280MOL   H11239730   3.433   3.019   4.278  3.0623  1.9531  0.9789
  280MOL   H11339731   3.264   2.991   4.306  0.9612  0.0329 -0.8550
  280MOL   C11439732   3.455   3.389   4.430  0.0461 -0.7937  0.4252
  280MOL   C11539733   3.467   3.392   4.580 -0.0918  0.1083  0.2923
  280MOL   O11639734   3.563   3.457   4.371 -0.9176  0.3211  0.6562
  280MOL   H11739735   3.365   3.445   4.405  0.8624  0.5700  0.4803
  280MOL   H11839736   3.396   3.321   4.622 -1.4625  2.2045  1.6794
  280MOL   H11939737   3.445   3.496   4.606  0.0517 -0.4683  2.8706
  280MOL   H12039738   3.567   3.359   4.607 -0.0176  1.1520  1.3615
  280MOL   C12139739   3.544   3.498   4.241 -0.3315 -0.6331 -1.0128
  280MOL   C12239740   3.563   3.645   4.230 -1.1671 -0.2708  0.3246
  280MOL   O12339741   3.631   3.441   4.149 -0.6971 -0.1538 -0.4821
  280MOL   H12439742   3.446   3.465   4.205 -0.7356  0.8587 -1.3177
  280MOL   H12539743   3.480   3.703   4.271 -1.6562  1.3787 -2.8250
  280MOL   H12639744   3.564   3.665   4.123  1.8364 -0.4588  0.2763
  280MOL   H12739745   3.659   3.683   4.264 -0.0672 -0.0353 -2.9024
  280MOL   C12839746   3.593   3.313   4.100 -0.3024  0.3422 -0.0218
  280MOL   C12939747   3.531   3.334   3.966  0.2723 -0.3920  0.2061
  280MOL   O13039748   3.701   3.226   4.079  0.1693  0.2592  0.7336
  280MOL   H13139749   3.517   3.258   4.156 -1.0267 -1.0757 -2.3219
  280MOL   H13239750   3.577   3.413   3.907  2.3600 -1.8170 -0.1560
  280MOL   H13339751   3.427   3.364   3.973  0.5077  0.2322  1.0217
  280MOL   H13439752   3.549   3.251   3.897 -1.8481 -0.1441 -0.6862
  280MOL   C13539753   3.777   3.210   4.197 -0.4503  0.7362  0.2308
  280MOL   C13639754   3.869   3.089   4.185  0.2421  0.0151  0.1258
  280MOL   O13739755   3.865   3.321   4.207  0.0989 -0.4412 -0.4485
  280MOL   H13839756   3.721   3.201   4.290  0.5034 -3.1554  0.5066
  280MOL   H13939757   3.806   3.001   4.178 -0.9837  0.7847  1.2114
  280MOL   H14039758   3.946   3.080   4.262  1.9142  2.4354 -1.1952
  280MOL   H14139759   3.926   3.108   4.095 -1.3145  1.2303 -0.6275
  280MOL   H14239760   3.806   3.393   4.191  2.0785  0.9805 -1.3936
  281MOL     C139761   6.223   0.160   0.099  0.2623  0.0541  0.1708
  281MOL     C239762   6.248   0.048   0.201 -0.7092  0.1535 -0.4082
  281MOL     O339763   6.196   0.098   7.882  0.0788 -0.1064 -0.3815
  281MOL     H439764   6.303   0.233   0.096  0.2926  0.1041  1.7816
  281MOL     H539765   6.243   0.074   0.307 -0.9160  0.3839 -0.4762
  281MOL     H639766   6.349   0.009   0.187 -0.9808 -0.5593 -0.4044
  281MOL     H739767   6.176   7.881   0.191  0.7629 -1.4921  1.6644
  281MOL     H839768   6.136   0.219   0.128 -0.5801 -2.1435  2.3019
  281MOL     C939769   6.178   0.192   7.777  0.3684  0.1420  0.1235
  281MOL    C1039770   6.171   0.123   7.642  1.1286  0.3683  0.3661
  281MOL    O1139771   6.063   0.271   7.797  0.3227 -0.5045 -0.2536
  281MOL    H1239772   6.265   0.257   7.783  0.4098  0.1051 -0.0886
  281MOL    H1339773   6.087   0.054   7.635 -1.2434  3.0705  1.2478
  281MOL    H1439774   6.262   0.066   7.619  0.8614  0.2520 -0.4303
  281MOL    H1539775   6.154   0.201   7.567 -0.8249  1.1796  1.6326
  281MOL    C1639776   6.077   0.409   7.785  0.4110  0.2145  0.4529
  281MOL    C1739777   5.951   0.480   7.824  0.4348  0.6895  0.4288
  281MOL    O1839778   6.169   0.457   7.882  0.7250  0.4527  0.1398
  281MOL    H1939779   6.116   0.434   7.687  0.5822 -0.8458  0.2445
  281MOL    H2039780   5.952   0.587   7.806 -1.5901  1.6479  5.2991
  281MOL    H2139781   5.923   0.470   0.015 -1.3422 -1.2225 -0.1790
  281MOL    H2239782   5.875   0.446   7.754  1.9910  2.8016 -2.3716
  281MOL    C2339783   6.243   0.567   7.842  0.7376  0.1573 -0.4821
  281MOL    C2439784   6.308   0.629   0.053  0.0978  0.9675 -0.0485
  281MOL    O2539785   6.346   0.516   7.763  0.8728 -0.0298 -0.2580
  281MOL    H2639786   6.180   0.642   7.795 -0.0578 -0.2052 -0.0132
  281MOL    H2739787   6.349   0.724   0.019 -0.3238  0.9661 -0.5872
  281MOL    H2839788   6.394   0.566   0.075  0.6000  1.9661  0.8494
  281MOL    H2939789   6.241   0.633   0.139  0.5510 -0.6239  0.4026
  281MOL    C3039790   6.366   0.591   7.646 -0.7679  0.8101 -1.0009
  281MOL    C3139791   6.498   0.545   7.578  0.2121 -0.4727 -0.3504
  281MOL    O3239792   6.273   0.563   7.546  0.0103 -0.5981 -0.1396
  281MOL    H3339793   6.381   0.694   7.677 -2.5266  0.7846  0.0047
  281MOL    H3439794   6.486   0.443   7.541 -1.0908 -1.0025  1.4289
  281MOL    H3539795   6.587   0.557   7.640  1.8614 -0.0494 -2.7229
  281MOL    H3639796   6.510   0.613   7.495 -1.6945  1.0979  0.6129
  281MOL    C3739797   6.210   0.673   7.496 -1.0740 -0.0806  0.9436
  281MOL    C3839798   6.152   0.632   7.365  0.0606 -0.9126 -0.0311
  281MOL    O3939799   6.107   0.705   7.574 -0.2318 -0.3615 -0.0632
  281MOL    H4039800   6.279   0.756   7.479 -0.2359 -0.7568  1.0431
  281MOL    H4139801   6.092   0.543   7.381 -2.5264  0.3701 -2.1638
  281MOL    H4239802   6.231   0.623   7.291  0.8959 -0.6395  0.8202
  281MOL    H4339803   6.090   0.713   7.324  0.2229  0.9331  3.1903
  281MOL    C4439804   6.113   0.843   7.611 -0.0351  0.0657  0.2140
  281MOL    C4539805   5.981   0.872   7.678 -0.4959 -0.5308  0.2093
  281MOL    O4639806   6.213   0.865   7.713 -0.1882 -0.1090  0.0007
  281MOL    H4739807   6.125   0.915   7.529  2.9191  1.0518  1.4468
  281MOL    H4839808   5.955   0.800   7.755 -2.0096  0.0467  0.2562
  281MOL    H4939809   5.908   0.881   7.598 -0.2093 -1.6859 -0.1883
  281MOL    H5039810   6.006   0.967   7.725 -1.2724 -0.1014 -0.2376
  281MOL    C5139811   6.296   0.972   7.695  0.1358 -0.4920  0.6757
  281MOL    C5239812   6.334   1.021   7.835  0.4615 -0.0423 -0.4135
  281MOL    O5339813   6.418   0.932   7.632  0.1497 -0.3432  0.2107
  281MOL    H5439814   6.245   1.051   7.639  1.4739 -1.4376 -1.9713
  281MOL    H5539815   6.240   1.063   7.872  0.3982 -0.0442 -0.5733
  281MOL    H5639816   6.408   1.098   7.814  0.0931 -0.0888 -1.9376
  281MOL    H5739817   6.367   0.936   7.895  2.0449 -1.3605 -3.0822
  281MOL    C5839818   6.449   1.009   7.520 -0.2012 -0.5046  0.5418
  281MOL    C5939819   6.586   0.965   7.459 -0.7634 -0.2233  0.2074
  281MOL    O6039820   6.350   0.983   7.427 -0.7269  0.3984 -0.1851
  281MOL    H6139821   6.445   1.116   7.543 -2.1966  0.3824 -3.4786
  281MOL    H6239822   6.674   1.008   7.507  0.7867 -0.7824 -2.0660
  281MOL    H6339823   6.594   1.000   7.356 -1.9845  0.4634  0.3428
  281MOL    H6439824   6.603   0.857   7.460  2.5983  0.2445  0.2806
  281MOL    C6539825   6.338   1.076   7.327 -0.1120  0.4661 -0.3872
  281MOL    C6639826   6.221   1.024   7.247  0.0578  0.1392 -0.0803
  281MOL    O6739827   6.300   1.197   7.386 -0.3065  0.2221  0.1788
  281MOL    H6839828   6.433   1.080   7.274  0.3912  1.1359  0.5504
  281MOL    H6939829   6.197   1.091   7.165  0.0867 -0.4774 -0.5995
  281MOL    H7039830   6.129   1.018   7.306 -0.1736  0.9258 -0.3538
  281MOL    H7139831   6.240   0.922   7.212  1.1401  0.6799 -1.1034
  281MOL    C7239832   6.375   1.302   7.340  0.5893 -0.1001  0.6284
  281MOL    C7339833   6.298   1.429   7.367 -0.1943  0.3717  0.4268
  281MOL    O7439834   6.499   1.311   7.406 -0.3362  0.1507  0.0773
  281MOL    H7539835   6.384   1.297   7.231  2.2696 -1.5993  0.8163
  281MOL    H7639836   6.301   1.452   7.473  1.9266 -0.4760  0.5926
  281MOL    H7739837   6.192   1.426   7.343  0.0052  1.1856 -0.5983
  281MOL    H7839838   6.352   1.504   7.308 -0.7843 -0.1391 -0.7809
  281MOL    C7939839   6.613   1.329   7.324  0.5699  0.6316 -0.7473
  281MOL    C8039840   6.736   1.349   7.420 -0.5780 -0.1960  0.6119
  281MOL    O8139841   6.641   1.220   7.239  0.1725  0.1023  0.0702
  281MOL    H8239842   6.592   1.420   7.269  0.9676 -0.0121 -1.9852
  281MOL    H8339843   6.725   1.444   7.473  0.6493  0.4500 -0.2730
  281MOL    H8439844   6.821   1.353   7.352 -0.6881 -3.2774  0.2284
  281MOL    H8539845   6.742   1.269   7.495 -2.4231 -2.0397 -1.1400
  281MOL    C8639846   6.649   1.247   7.102 -0.5440 -0.3678 -0.2227
  281MOL    C8739847   6.741   1.138   7.030 -0.3478  0.0853 -0.4141
  281MOL    O8839848   6.520   1.236   7.055  0.4161 -0.3980 -0.0562
  281MOL    H8939849   6.710   1.335   7.082  0.5440 -1.0060  0.2822
  281MOL    H9039850   6.705   1.037   7.047 -1.1762 -0.0581 -2.9625
  281MOL    H9139851   6.845   1.148   7.061 -0.5864  2.5179 -0.2965
  281MOL    H9239852   6.737   1.154   6.923 -0.8561 -1.9096 -0.7029
  281MOL    C9339853   6.483   1.346   6.976  0.2787 -0.5617 -0.5543
  281MOL    C9439854   6.341   1.342   6.938  0.3311  0.3821 -0.6298
  281MOL    O9539855   6.509   1.470   7.045  0.7653  0.0784  0.1061
  281MOL    H9639856   6.535   1.345   6.880 -2.7157 -0.9175 -2.2501
  281MOL    H9739857   6.325   1.243   6.895 -0.5214 -0.5972  1.8740
  281MOL    H9839858   6.325   1.420   6.863 -0.5970 -0.1350 -0.9868
  281MOL    H9939859   6.281   1.354   7.028  1.1531 -0.2228  0.0079
  281MOL   C10039860   6.542   1.576   6.963 -0.4548 -0.1035  0.5038
  281MOL   C10139861   6.529   1.700   7.048 -1.2190  0.1475  0.6751
  281MOL   O10239862   6.675   1.570   6.925 -0.2288  0.1391  0.0712
  281MOL   H10339863   6.469   1.583   6.882 -0.7793 -1.5108  0.6544
  281MOL   H10439864   6.423   1.704   7.073 -2.2601 -0.8440 -3.2544
  281MOL   H10539865   6.554   1.787   6.988 -2.2093  0.2110  0.3438
  281MOL   H10639866   6.593   1.709   7.136  1.3021 -0.9870 -1.0066
  281MOL   C10739867   6.691   1.582   6.789  0.6946  0.0894  0.0086
  281MOL   C10839868   6.841   1.575   6.760  0.4166 -0.4308 -0.2067
  281MOL   O10939869   6.628   1.479   6.714 -0.6549  0.3110  0.9110
  281MOL   H11039870   6.655   1.682   6.766 -0.8630 -0.3393  0.5226
  281MOL   H11139871   6.876   1.478   6.795 -1.0740 -0.2800  1.8392
  281MOL   H11239872   6.892   1.658   6.809  1.2981 -0.6058 -0.8319
  281MOL   H11339873   6.866   1.574   6.654 -1.2223 -0.1961 -0.6171
  281MOL   C11439874   6.562   1.518   6.595 -0.2585  0.3536 -0.6963
  281MOL   C11539875   6.484   1.398   6.540 -0.3496 -0.6067 -0.6250
  281MOL   O11639876   6.474   1.620   6.623 -0.2849 -0.9711  0.4271
  281MOL   H11739877   6.640   1.550   6.526  1.1568 -1.6059 -0.0624
  281MOL   H11839878   6.554   1.314   6.535 -0.2175 -0.6224  1.3242
  281MOL   H11939879   6.443   1.417   6.441  1.1409  0.2436 -1.0952
  281MOL   H12039880   6.404   1.374   6.609  0.7317 -2.5468  0.0024
  281MOL   C12139881   6.480   1.725   6.533 -0.2382  0.1367 -0.8401
  281MOL   C12239882   6.358   1.815   6.555 -0.1385  0.3238  0.2710
  281MOL   O12339883   6.592   1.812   6.563  0.2153  0.2687 -0.8565
  281MOL   H12439884   6.474   1.685   6.432  1.4243 -0.1637 -0.8304
  281MOL   H12539885   6.362   1.875   6.646 -0.7764 -0.0515  0.5443
  281MOL   H12639886   6.270   1.752   6.561  1.3307 -1.7769  0.3080
  281MOL   H12739887   6.357   1.889   6.475 -1.0018  0.5036  0.4484
  281MOL   C12839888   6.674   1.839   6.455 -0.8143  0.3982  0.2403
  281MOL   C12939889   6.769   1.954   6.498  0.4645  0.3930  0.0248
  281MOL   O13039890   6.746   1.728   6.422 -0.3688 -0.0433  0.0667
  281MOL   H13139891   6.609   1.859   6.370 -0.6934 -1.4894 -0.3195
  281MOL   H13239892   6.820   1.994   6.411  3.2908  0.6823  1.7446
  281MOL   H13339893   6.840   1.915   6.571  0.1600  0.7806  0.5306
  281MOL   H13439894   6.720   2.038   6.546  0.5338  1.0626 -1.0663
  281MOL   C13539895   6.792   1.731   6.280  0.7321  0.2288 -0.1615
  281MOL   C13639896   6.910   1.636   6.269  0.6040  0.1182  0.5154
  281MOL   O13739897   6.699   1.692   6.182  0.3326 -0.1822  0.0784
  281MOL   H13839898   6.824   1.831   6.254  0.7468  0.0867 -0.6850
  281MOL   H13939899   6.889   1.539   6.315  0.9457  0.6359  1.7812
  281MOL   H14039900   6.995   1.671   6.327 -1.2114  2.1223  2.0746
  281MOL   H14139901   6.943   1.624   6.166  1.2428  0.0530  0.7258
  281MOL   H14239902   6.639   1.763   6.169  1.5385  0.7643 -0.3621
  282MOL     C139903   6.316   6.511   6.317 -0.1144  0.3520  0.5588
  282MOL     C239904   6.179   6.569   6.335 -0.6555  0.0994 -0.0792
  282MOL     O339905   6.392   6.559   6.210 -0.4407  0.3615 -0.6916
  282MOL     H439906   6.296   6.405   6.307 -0.2533  0.2173  2.1794
  282MOL     H539907   6.127   6.575   6.239  0.1901 -2.0243 -0.6965
  282MOL     H639908   6.182   6.669   6.379  0.4044 -0.3947  0.9952
  282MOL     H739909   6.123   6.507   6.405  2.0846 -2.9559 -0.4771
  282MOL     H839910   6.365   6.534   6.412  1.2994 -0.8584  0.1445
  282MOL     C939911   6.533   6.551   6.217 -0.2841 -0.7992  0.8710
  282MOL    C1039912   6.590   6.581   6.079  0.3026  0.0741 -0.2182
  282MOL    O1139913   6.573   6.660   6.292 -0.2787 -0.3798 -0.5622
  282MOL    H1239914   6.570   6.453   6.246  1.2912 -0.0023  1.6194
  282MOL    H1339915   6.531   6.663   6.037 -2.3595 -1.4593  0.4496
  282MOL    H1439916   6.580   6.497   6.011 -2.1756  1.5825 -1.7918
  282MOL    H1539917   6.698   6.600   6.080  0.3385 -0.1550  0.3519
  282MOL    C1639918   6.686   6.624   6.367  0.2760  0.3929  0.4514
  282MOL    C1739919   6.748   6.763   6.418  0.4928  0.1363 -0.2185
  282MOL    O1839920   6.652   6.545   6.477  0.0059  0.3431  0.3003
  282MOL    H1939921   6.758   6.580   6.298 -0.7386  0.1818 -0.4994
  282MOL    H2039922   6.672   6.823   6.469  2.5578  1.7513  1.0388
  282MOL    H2139923   6.784   6.813   6.328 -1.4769  0.1789 -1.0134
  282MOL    H2239924   6.817   6.744   6.501 -0.3570  2.4263  1.0519
  282MOL    C2339925   6.739   6.442   6.503 -0.1098 -1.1276 -0.6014
  282MOL    C2439926   6.728   6.430   6.646 -0.6628 -0.1640 -0.3733
  282MOL    O2539927   6.681   6.335   6.443  0.1962  0.2066 -0.3084
  282MOL    H2639928   6.843   6.462   6.478 -0.0838  0.0207  0.4107
  282MOL    H2739929   6.628   6.406   6.684 -0.8980  0.5565 -0.5203
  282MOL    H2839930   6.763   6.523   6.691 -1.8195 -0.2516  0.7579
  282MOL    H2939931   6.789   6.344   6.673 -0.7692 -0.4906 -1.1625
  282MOL    C3039932   6.769   6.260   6.357  0.1942 -0.4672  0.1837
  282MOL    C3139933   6.696   6.145   6.306 -0.0025  0.2595  0.4788
  282MOL    O3239934   6.816   6.332   6.249 -0.8556 -0.2035 -0.0054
  282MOL    H3339935   6.844   6.212   6.420 -0.3142 -4.2299 -1.9824
  282MOL    H3439936   6.615   6.164   6.235 -0.2128  0.2709  0.7257
  282MOL    H3539937   6.684   6.078   6.390  0.6117  0.9901  1.1606
  282MOL    H3639938   6.768   6.092   6.242  0.5190  1.2435  0.2317
  282MOL    C3739939   6.957   6.339   6.242 -0.1274  0.0898  0.8596
  282MOL    C3839940   6.985   6.358   6.102 -0.1767  0.3192 -0.2645
  282MOL    O3939941   7.007   6.439   6.322  0.2504  0.0757  0.2544
  282MOL    H4039942   6.983   6.239   6.279 -0.3264 -0.1683  0.3006
  282MOL    H4139943   6.941   6.278   6.041  0.6800  0.6754 -1.3740
  282MOL    H4239944   7.093   6.348   6.091 -0.2058 -0.7193  0.3617
  282MOL    H4339945   6.952   6.454   6.063  0.5333  0.8598  0.4640
  282MOL    C4439946   7.107   6.398   6.412  0.3292  0.1613  1.3165
  282MOL    C4539947   7.190   6.513   6.449  0.5567 -0.0062  0.3609
  282MOL    O4639948   7.061   6.345   6.527 -0.3542 -0.1455  0.1415
  282MOL    H4739949   7.171   6.340   6.345 -0.8753  2.0214 -1.5399
  282MOL    H4839950   7.226   6.565   6.360  1.4783 -1.2561 -0.0192
  282MOL    H4939951   7.279   6.480   6.503 -0.2729 -0.9099  1.2049
  282MOL    H5039952   7.129   6.581   6.508  1.3594 -0.2906  1.5280
  282MOL    C5139953   7.138   6.232   6.566  0.0513 -0.2916  0.2590
  282MOL    C5239954   7.071   6.188   6.696  0.4510 -1.0092  0.0691
  282MOL    O5339955   7.129   6.129   6.471  0.0287  0.9590 -0.0213
  282MOL    H5439956   7.244   6.257   6.569 -0.2127  0.7204  3.1222
  282MOL    H5539957   7.125   6.103   6.737 -0.0350 -0.0373  2.7988
  282MOL    H5639958   6.963   6.184   6.683  0.5176  2.2664 -2.1482
  282MOL    H5739959   7.091   6.260   6.775 -1.3922  0.3937 -0.7124
  282MOL    C5839960   7.231   6.031   6.468  0.3788 -0.0586 -0.2729
  282MOL    C5939961   7.191   5.924   6.354 -0.3783  0.6384 -0.7300
  282MOL    O6039962   7.350   6.087   6.429  0.3754  0.7751  0.3478
  282MOL    H6139963   7.242   5.977   6.561  0.2734  0.1796 -0.1218
  282MOL    H6239964   7.104   5.863   6.376  0.4125  0.2079  1.2888
  282MOL    H6339965   7.273   5.861   6.317  0.3606  0.3864  1.2825
  282MOL    H6439966   7.165   5.983   6.266  0.3799 -0.0010 -1.3944
  282MOL    C6539967   7.452   6.064   6.522 -0.1095  0.3732  0.1993
  282MOL    C6639968   7.578   6.130   6.455 -1.0479  0.0323 -0.0472
  282MOL    O6739969   7.433   6.132   6.639 -0.2647 -0.3062  0.4660
  282MOL    H6839970   7.458   5.955   6.526  2.0583  0.3386 -2.4489
  282MOL    H6939971   7.672   6.096   6.499  0.4147  3.7548 -0.1053
  282MOL    H7039972   7.572   6.238   6.468  0.5226  0.1591 -0.2649
  282MOL    H7139973   7.579   6.113   6.347  0.1924  1.9131 -0.3383
  282MOL    C7239974   7.483   6.065   6.748 -0.4025  0.8052 -0.0635
  282MOL    C7339975   7.440   6.135   6.874  0.0651 -0.0482  0.1956
  282MOL    O7439976   7.424   5.941   6.758 -0.4566  0.0811 -0.0340
  282MOL    H7539977   7.591   6.062   6.737  0.0815  1.0263  4.1441
  282MOL    H7639978   7.476   6.084   6.963  0.2300 -1.0981 -0.4656
  282MOL    H7739979   7.331   6.129   6.876  0.0688  0.4180  2.6513
  282MOL    H7839980   7.475   6.238   6.877 -0.1068 -0.0027  0.5966
  282MOL    C7939981   7.519   5.847   6.796  0.1021  0.1644  0.6784
  282MOL    C8039982   7.438   5.719   6.814  0.1232 -0.0375 -0.5153
  282MOL    O8139983   7.618   5.808   6.699 -0.3820  0.2033 -0.4222
  282MOL    H8239984   7.569   5.884   6.886  0.8461  1.8000 -0.3986
  282MOL    H8339985   7.411   5.689   6.713  2.0457 -1.2683 -0.7039
  282MOL    H8439986   7.360   5.744   6.885  0.1101 -1.5349  0.0252
  282MOL    H8539987   7.500   5.640   6.857  1.3795  0.9081 -0.5551
  282MOL    C8639988   7.749   5.815   6.752  0.1246 -0.9511  0.0131
  282MOL    C8739989   7.849   5.758   6.656  0.5637  0.3825  0.2743
  282MOL    O8839990   7.790   5.949   6.768 -0.2893  0.2022 -0.2308
  282MOL    H8939991   7.761   5.752   6.840  2.0354 -0.9186 -0.1962
  282MOL    H9039992   7.860   5.651   6.670  1.9477  0.2416 -1.5493
  282MOL    H9139993   0.033   5.799   6.682  0.3341  0.5939  0.8031
  282MOL    H9239994   7.828   5.784   6.552 -1.0093 -1.8386  0.0188
  282MOL    C9339995   7.851   5.987   6.888  0.6203  0.5402 -0.6033
  282MOL    C9439996   0.011   6.115   6.847 -0.2899  0.1863 -0.2421
  282MOL    O9539997   7.761   6.017   6.992  0.4326 -0.8363  0.0633
  282MOL    H9639998   0.012   5.911   6.910 -0.9055 -1.0129 -0.7259
  282MOL    H9739999   0.094   6.082   6.784  0.3303 -2.0863  1.7191
  282MOL    H9840000   0.056   6.150   6.940  2.4321 -2.8549 -0.3483
  282MOL    H9940001   7.869   6.197   6.801 -2.3414  0.0224  1.8655
  282MOL   C10040002   7.782   5.935   7.104  0.3350  0.2191 -0.0871
  282MOL   C10140003   7.666   5.965   7.202 -0.9458 -0.4409  0.2957
  282MOL   O10240004   7.796   5.805   7.079 -0.5415  0.5796  0.4257
  282MOL   H10340005   7.876   5.970   7.147  0.3365  1.7998 -1.3304
  282MOL   H10440006   7.671   6.069   7.236 -0.8058 -0.3747  0.0750
  282MOL   H10540007   7.675   5.909   7.295  0.5467 -1.2176 -0.2944
  282MOL   H10640008   7.572   5.957   7.148 -1.1729 -1.3687  0.8186
  282MOL   C10740009   7.872   5.729   7.164 -0.1477  0.6572  0.1265
  282MOL   C10840010   7.878   5.584   7.111 -0.3035 -0.3202  0.0300
  282MOL   O10940011   0.084   5.785   7.177 -0.6683 -0.4766 -0.1160
  282MOL   H11040012   7.823   5.732   7.261 -1.9537  0.7332 -0.7772
  282MOL   H11140013   7.914   5.574   7.009  1.1494 -1.2469  0.6206
  282MOL   H11240014   7.776   5.551   7.089 -0.3477  0.6823 -1.2905
  282MOL   H11340015   0.011   5.523   7.188  1.8546  2.5048  1.0194
  282MOL   C11440016   0.130   5.782   7.315  0.2136 -0.0675  0.5055
  282MOL   C11540017   0.270   5.835   7.311 -0.2418  0.2477  0.1080
  282MOL   O11640018   0.050   5.872   7.386 -0.3937 -0.5727 -0.6395
  282MOL   H11740019   0.127   5.678   7.349 -0.8734 -0.0212  0.5846
  282MOL   H11840020   0.349   5.763   7.290  0.3496  0.4421  1.5841
  282MOL   H11940021   0.315   5.867   7.405 -1.2758 -0.0661  0.7120
  282MOL   H12040022   0.290   5.911   7.235  1.3164  0.0872  0.3406
  282MOL   C12140023   7.914   5.817   7.511 -0.1545 -0.0520 -1.2995
  282MOL   C12240024   7.857   5.941   7.590  0.0567  0.4483 -0.0927
  282MOL   O12340025   7.799   5.743   7.481 -0.1950  0.2073  0.2021
  282MOL   H12440026   0.072   5.758   7.568 -0.6837  0.8786  0.3508
  282MOL   H12540027   7.789   6.001   7.530  0.3749  1.8074  0.8869
  282MOL   H12640028   0.028   6.007   7.604  0.7749 -0.7347  1.2473
  282MOL   H12740029   7.816   5.911   7.687  1.5827  0.3449  0.5319
  282MOL   C12840030   7.786   5.616   7.539  0.4222 -0.0416  0.0722
  282MOL   C12940031   7.642   5.566   7.502  0.8176 -0.2705 -0.2331
  282MOL   O13040032   7.874   5.533   7.473 -0.0095  0.0783  0.3046
  282MOL   H13140033   7.793   5.627   7.647  0.3399 -2.5254  0.3713
  282MOL   H13240034   7.604   5.483   7.562  2.2813  0.0193  1.1316
  282MOL   H13340035   7.647   5.538   7.397  2.3921 -1.0091  0.0235
  282MOL   H13440036   7.569   5.646   7.510  0.4365  0.0154 -5.2320
  282MOL   C13540037   0.041   5.452   7.555 -0.0299 -0.2425 -0.4124
  282MOL   C13640038   0.068   5.330   7.472  0.2813 -0.1277  0.0707
  282MOL   O13740039   0.160   5.514   7.601 -0.4356 -0.6069  0.0370
  282MOL   H13840040   7.903   5.417   7.644  0.9244  0.1981  0.3233
  282MOL   H13940041   0.111   5.359   7.376  3.6994 -1.9352  0.9723
  282MOL   H14040042   7.879   5.295   7.471 -0.3000  1.5468 -0.3945
  282MOL   H14140043   0.139   5.261   7.518  1.9589 -0.2555 -2.5469
  282MOL   H14240044   0.183   5.470   7.681 -0.3140 -1.4888 -0.4819
  283MOL     C140045   3.039   6.657   1.712 -0.6134 -0.2865 -0.3305
  283MOL     C240046   3.043   6.507   1.727  0.1942 -0.0337 -0.6858
  283MOL     O340047   3.147   6.703   1.635 -0.8886 -0.2662  0.0300
  283MOL     H440048   3.055   6.693   1.814 -2.2310 -1.7749  0.4752
  283MOL     H540049   3.131   6.480   1.787  1.8075  1.4322 -2.3271
  283MOL     H640050   3.069   6.462   1.632 -0.1149 -1.0812 -0.2836
  283MOL     H740051   2.948   6.469   1.763  0.7527 -1.4420 -0.6845
  283MOL     H840052   2.951   6.681   1.653  0.4144  1.8258 -1.0544
  283MOL     C940053   3.144   6.836   1.597  0.0213 -0.1890 -0.6583
  283MOL    C1040054   3.195   6.912   1.730  0.2148 -0.6122 -0.3865
  283MOL    O1140055   3.240   6.862   1.503  0.1868 -0.7418  0.2662
  283MOL    H1240056   3.045   6.864   1.562  0.1737  3.2902  1.4619
  283MOL    H1340057   3.205   7.019   1.711  2.1822 -0.9150 -1.1364
  283MOL    H1440058   3.289   6.868   1.761 -0.3025 -1.9145 -0.6383
  283MOL    H1540059   3.130   6.908   1.818  0.3400 -0.8800 -0.3063
  283MOL    C1640060   3.227   6.799   1.385 -0.4198 -0.7325 -0.3759
  283MOL    C1740061   3.265   6.892   1.273 -0.1766 -0.4375 -0.6058
  283MOL    O1840062   3.326   6.696   1.384 -0.1915  0.1160 -0.5360
  283MOL    H1940063   3.129   6.755   1.367 -2.0957  2.8235 -0.4560
  283MOL    H2040064   3.196   6.976   1.266 -0.0114  0.0099  2.4071
  283MOL    H2140065   3.277   6.848   1.174  3.2237  0.2813 -0.5852
  283MOL    H2240066   3.356   6.947   1.298 -0.2244 -0.6289  0.0068
  283MOL    C2340067   3.290   6.560   1.386  0.1948  0.0877  0.4406
  283MOL    C2440068   3.283   6.515   1.237 -0.2763 -0.1592  0.3731
  283MOL    O2540069   3.401   6.497   1.444 -0.1536 -0.3024 -0.7272
  283MOL    H2640070   3.199   6.526   1.435 -0.2786  1.5896  0.6124
  283MOL    H2740071   3.379   6.550   1.198  1.0247 -2.5221  1.3116
  283MOL    H2840072   3.199   6.554   1.181  0.6581  0.1774 -0.8174
  283MOL    H2940073   3.275   6.406   1.240  0.3436 -0.1812  1.2257
  283MOL    C3040074   3.417   6.531   1.586 -0.2258 -0.0252  0.4073
  283MOL    C3140075   3.385   6.410   1.665 -1.1111  0.2045 -0.2619
  283MOL    O3240076   3.546   6.564   1.616  0.1681 -0.1546  0.1207
  283MOL    H3340077   3.362   6.620   1.618 -1.5980 -0.7949  0.2266
  283MOL    H3440078   3.289   6.368   1.635 -0.8750 -2.4111  2.4309
  283MOL    H3540079   3.404   6.430   1.770  1.8294 -2.6144 -0.1896
  283MOL    H3640080   3.459   6.336   1.637 -1.7261 -0.8176  0.7491
  283MOL    C3740081   3.570   6.698   1.599  0.1383 -0.2741 -0.0106
  283MOL    C3840082   3.572   6.773   1.734 -0.4307  0.0217 -0.3197
  283MOL    O3940083   3.695   6.720   1.538  0.4524 -0.5272 -0.2553
  283MOL    H4040084   3.498   6.747   1.533 -1.8311 -2.2583  0.5930
  283MOL    H4140085   3.662   6.739   1.785  0.0258  0.1082 -1.0659
  283MOL    H4240086   3.481   6.745   1.787 -0.5322  1.3839  0.2525
  283MOL    H4340087   3.577   6.882   1.722 -1.5335  0.1378  0.1967
  283MOL    C4440088   3.690   6.690   1.399  0.0568  0.5845  0.3510
  283MOL    C4540089   3.690   6.817   1.321  0.3683 -0.3641 -0.0863
  283MOL    O4640090   3.805   6.619   1.362  1.0705  0.8450 -0.1620
  283MOL    H4740091   3.598   6.636   1.377 -0.4390  2.1521 -1.5413
  283MOL    H4840092   3.605   6.880   1.345 -1.6594 -2.1622 -2.3332
  283MOL    H4940093   3.696   6.793   1.215  1.5219  0.8415 -0.3038
  283MOL    H5040094   3.779   6.874   1.349 -0.4644 -0.0798  2.0951
  283MOL    C5140095   3.808   6.483   1.395 -0.5758  0.6182  0.0828
  283MOL    C5240096   3.772   6.390   1.277 -0.7919  0.2150  0.4566
  283MOL    O5340097   3.930   6.452   1.453 -0.3203 -0.2169 -0.1333
  283MOL    H5440098   3.734   6.472   1.474 -0.1592  1.5768  0.6038
  283MOL    H5540099   3.796   6.290   1.311 -0.7617  0.0050 -0.1756
  283MOL    H5640100   3.845   6.423   1.203 -1.6149  0.4066 -0.2851
  283MOL    H5740101   3.669   6.392   1.242 -0.1301 -0.3358 -1.5959
  283MOL    C5840102   3.947   6.510   1.582  0.0206  0.0915  0.1439
  283MOL    C5940103   3.911   6.397   1.679 -0.0839  0.1317  0.0791
  283MOL    O6040104   4.077   6.547   1.611 -0.1832 -0.3161 -0.5302
  283MOL    H6140105   3.881   6.589   1.616  0.9896  1.0332 -0.1230
  283MOL    H6240106   3.804   6.375   1.677 -0.5908  2.3606  1.2177
  283MOL    H6340107   3.933   6.439   1.777  0.5601  0.6735 -0.2939
  283MOL    H6440108   3.977   6.312   1.663  0.7858  0.5077  1.6135
  283MOL    C6540109   4.133   6.649   1.534 -0.2357 -0.2115  0.5013
  283MOL    C6640110   4.102   6.784   1.592  0.1068 -0.5369 -0.0117
  283MOL    O6740111   4.276   6.632   1.532 -0.0938 -0.6770 -0.0727
  283MOL    H6840112   4.094   6.646   1.432  0.7964  1.0924  0.0660
  283MOL    H6940113   3.996   6.811   1.586  0.5863  1.1498 -1.3825
  283MOL    H7040114   4.158   6.859   1.536  2.7272  0.1526  3.3774
  283MOL    H7140115   4.139   6.791   1.694  2.3554  0.9243 -0.8803
  283MOL    C7240116   4.326   6.551   1.422  0.1690  0.1862 -0.1239
  283MOL    C7340117   4.405   6.639   1.318  0.5096  0.1692 -0.0421
  283MOL    O7440118   4.411   6.452   1.471  0.4404  0.6422  0.0628
  283MOL    H7540119   4.243   6.493   1.380  0.0448 -1.3920  2.2149
  283MOL    H7640120   4.344   6.709   1.262  0.6613 -0.4440 -0.9865
  283MOL    H7740121   4.448   6.585   1.234 -0.2681  1.9543 -1.6401
  283MOL    H7840122   4.488   6.688   1.369  2.1278 -1.3646 -1.1206
  283MOL    C7940123   4.352   6.357   1.553  0.4357 -0.2688  0.3918
  283MOL    C8040124   4.392   6.228   1.486 -0.6495 -0.2554  0.6839
  283MOL    O8140125   4.409   6.348   1.681  0.3644  0.5389 -0.5467
  283MOL    H8240126   4.243   6.358   1.554  0.3890  1.5712 -1.9654
  283MOL    H8340127   4.369   6.134   1.538  3.5338 -0.2068  2.8519
  283MOL    H8440128   4.498   6.221   1.461 -0.9264  0.3806 -0.6984
  283MOL    H8540129   4.337   6.228   1.392  0.4691  0.7349  0.0152
  283MOL    C8640130   4.382   6.453   1.775  0.3677 -0.7729  0.0934
  283MOL    C8740131   4.307   6.396   1.888 -0.0271 -0.4579 -0.0450
  283MOL    O8840132   4.502   6.517   1.818  0.2718  0.7361  0.0784
  283MOL    H8940133   4.321   6.536   1.737  0.3009 -0.8894 -0.0541
  283MOL    H9040134   4.342   6.295   1.912  1.5224  0.6408  2.5161
  283MOL    H9140135   4.202   6.403   1.862 -0.0327 -0.9828 -0.1828
  283MOL    H9240136   4.320   6.464   1.972  0.7315 -0.0950 -0.4513
  283MOL    C9340137   4.550   6.618   1.732 -0.1070  1.0056  0.2219
  283MOL    C9440138   4.520   6.755   1.796  0.0609  0.1402 -0.1324
  283MOL    O9540139   4.694   6.611   1.723 -0.5231  0.3031 -0.7401
  283MOL    H9640140   4.509   6.609   1.631 -2.4250  1.2254  1.1205
  283MOL    H9740141   4.413   6.775   1.786  0.7527  3.3115 -1.8977
  283MOL    H9840142   4.586   6.829   1.749 -0.4840  1.1079  0.6119
  283MOL    H9940143   4.542   6.748   1.902  0.8070 -2.2384 -0.4256
  283MOL   C10040144   4.741   6.495   1.654  0.5006  0.2006  0.5158
  283MOL   C10140145   4.743   6.521   1.504  0.8554 -0.4466 -0.7988
  283MOL   O10240146   4.874   6.480   1.691 -0.4901  0.2927 -0.1796
  283MOL   H10340147   4.685   6.407   1.686 -0.0094  0.4304  0.2652
  283MOL   H10440148   4.796   6.448   1.442 -2.8492 -2.5254 -1.6615
  283MOL   H10540149   4.785   6.617   1.474 -3.2416  0.6010 -3.6073
  283MOL   H10640150   4.640   6.526   1.469  0.7809  1.7038 -0.3343
  283MOL   C10740151   4.896   6.431   1.819 -0.6682 -0.8281  0.0259
  283MOL   C10840152   4.947   6.281   1.798 -0.0539  0.3346  0.1617
  283MOL   O10940153   4.988   6.509   1.890  0.1467 -0.3265  0.4407
  283MOL   H11040154   4.801   6.435   1.874  0.2577  3.4557  1.4969
  283MOL   H11140155   4.883   6.224   1.732 -0.5867  1.2871 -0.1575
  283MOL   H11240156   4.962   6.227   1.891  0.5921 -1.9892 -1.2414
  283MOL   H11340157   5.045   6.281   1.748 -0.5815 -1.2530 -0.8878
  283MOL   C11440158   4.939   6.629   1.921  0.3427 -0.7018  0.2493
  283MOL   C11540159   4.859   6.634   2.057  0.8710 -0.1004  0.2468
  283MOL   O11640160   5.052   6.715   1.946 -0.4316 -0.3435  0.3073
  283MOL   H11740161   4.888   6.673   1.836 -0.9621 -0.8240  0.9651
  283MOL   H11840162   4.764   6.587   2.034  1.0994 -0.6926  0.4903
  283MOL   H11940163   4.841   6.734   2.095 -0.5634 -0.2101 -0.0979
  283MOL   H12040164   4.924   6.581   2.127 -0.4597 -0.5197  1.1809
  283MOL   C12140165   5.121   6.753   1.831  0.1097 -0.1417  0.4143
  283MOL   C12240166   5.098   6.898   1.800  0.1989 -0.2072  0.1513
  283MOL   O12340167   5.257   6.738   1.865 -0.6120 -0.1987  0.3291
  283MOL   H12440168   5.082   6.702   1.743 -1.7892  1.0894  0.5272
  283MOL   H12540169   4.991   6.910   1.779  0.3622 -1.0006 -1.2199
  283MOL   H12640170   5.153   6.911   1.707 -0.5901 -1.0453 -0.4361
  283MOL   H12740171   5.131   6.962   1.882 -2.2426 -1.9522  2.5789
  283MOL   C12840172   5.303   6.605   1.855 -0.2836  0.0660 -0.0814
  283MOL   C12940173   5.391   6.591   1.731  0.2667 -0.3509  1.1342
  283MOL   O13040174   5.375   6.562   1.964 -0.4195 -0.4104  0.4921
  283MOL   H13140175   5.220   6.535   1.843 -1.1176  1.2760 -1.6357
  283MOL   H13240176   5.485   6.643   1.745 -0.8562  2.4288 -1.1575
  283MOL   H13340177   5.333   6.644   1.656  2.7887 -0.0123 -0.6091
  283MOL   H13440178   5.401   6.485   1.708  0.7941  0.0888 -0.7189
  283MOL   C13540179   5.302   6.545   2.077 -0.1459  0.1404  0.9611
  283MOL   C13640180   5.267   6.395   2.084 -0.6951 -0.2788 -0.6852
  283MOL   O13740181   5.371   6.568   2.197  0.0079  0.1573  0.4446
  283MOL   H13840182   5.202   6.589   2.070 -0.5334 -0.9015 -0.3457
  283MOL   H13940183   5.205   6.369   2.171 -0.7808 -2.0339 -1.2714
  283MOL   H14040184   5.361   6.343   2.099  0.0101  0.9052 -0.9148
  283MOL   H14140185   5.235   6.365   1.984  0.0691 -0.7410 -0.7889
  283MOL   H14240186   5.415   6.651   2.200  0.2913  0.0428 -0.3930
  284MOL     C140187   0.949   5.544   1.931 -0.0478  0.0282 -0.2507
  284MOL     C240188   0.821   5.460   1.913 -0.3886 -0.6750  0.6414
  284MOL     O340189   1.058   5.479   1.858  0.0599  0.1194  0.1292
  284MOL     H440190   0.973   5.577   2.032  3.5296  0.9030 -1.3202
  284MOL     H540191   0.824   5.360   1.956 -0.3280 -0.2701  1.5823
  284MOL     H640192   0.790   5.429   1.813  2.0000 -0.9503 -0.0647
  284MOL     H740193   0.743   5.522   1.957 -2.2001 -1.2747 -1.6181
  284MOL     H840194   0.928   5.639   1.880  0.0979 -0.2608 -0.8500
  284MOL     C940195   1.172   5.564   1.870  0.2995  0.5355  0.1496
  284MOL    C1040196   1.288   5.473   1.848  0.2046  0.9832  0.0806
  284MOL    O1140197   1.174   5.667   1.768  0.7375 -0.4413  0.1085
  284MOL    H1240198   1.174   5.596   1.974  0.7734 -2.1103  0.9950
  284MOL    H1340199   1.385   5.520   1.831  1.4745 -1.6050  0.0012
  284MOL    H1440200   1.268   5.412   1.761  0.2905 -0.8316  1.3061
  284MOL    H1540201   1.298   5.411   1.937  1.0116 -0.6169 -1.1109
  284MOL    C1640202   1.233   5.784   1.803 -0.2775 -0.6025  0.1014
  284MOL    C1740203   1.267   5.849   1.673 -0.3736  0.2995 -0.3967
  284MOL    O1840204   1.144   5.869   1.871 -0.2960 -0.1992  0.2615
  284MOL    H1940205   1.317   5.768   1.872 -1.6294  1.6543  2.3855
  284MOL    H2040206   1.172   5.868   1.624 -0.9337 -3.0286 -0.7562
  284MOL    H2140207   1.342   5.794   1.616  0.2465 -1.0918  1.6971
  284MOL    H2240208   1.325   5.938   1.696 -0.8192  0.6727 -0.7249
  284MOL    C2340209   1.204   5.936   1.976 -0.6003  0.6852  0.1437
  284MOL    C2440210   1.106   6.053   2.018  0.4182  0.6186  0.3918
  284MOL    O2540211   1.227   5.854   2.085  0.4113  0.5371  0.5258
  284MOL    H2640212   1.294   5.986   1.940  1.1271  0.7156  4.1709
  284MOL    H2740213   1.156   6.106   2.099  0.6896 -1.0507  1.3473
  284MOL    H2840214   1.010   6.014   2.054 -0.8269  1.2994 -2.1127
  284MOL    H2940215   1.075   6.113   1.933  0.8919 -1.2973 -1.1740
  284MOL    C3040216   1.346   5.889   2.153 -0.6350 -0.3825  1.0562
  284MOL    C3140217   1.354   5.802   2.272  0.5353 -0.0391  0.1695
  284MOL    O3240218   1.455   5.864   2.064  0.5413 -0.0067  0.0451
  284MOL    H3340219   1.350   5.989   2.197 -0.3665 -0.0619  0.3104
  284MOL    H3440220   1.303   5.846   2.357  2.4699  1.6574  0.4980
  284MOL    H3540221   1.458   5.784   2.299  0.4245 -2.1611 -0.6987
  284MOL    H3640222   1.311   5.704   2.251 -0.4719  0.6828 -1.1815
  284MOL    C3740223   1.552   5.964   2.074 -0.5093 -0.2312 -0.5369
  284MOL    C3840224   1.690   5.920   2.015  0.3452  0.0128 -0.1830
  284MOL    O3940225   1.511   6.073   1.994 -0.7687 -0.0442  0.7007
  284MOL    H4040226   1.566   5.984   2.180  1.6186 -5.0912  0.2647
  284MOL    H4140227   1.774   5.988   2.033  0.5224 -0.6674  1.6480
  284MOL    H4240228   1.678   5.891   1.911  0.7401  0.6478 -0.4140
  284MOL    H4340229   1.721   5.825   2.058  2.9421  0.6461 -0.5277
  284MOL    C4440230   1.556   6.197   2.041 -0.5137  0.2804  0.3064
  284MOL    C4540231   1.566   6.293   1.918 -0.2390 -0.3009 -0.8411
  284MOL    O4640232   1.460   6.241   2.124  1.0609 -0.1029  0.0384
  284MOL    H4740233   1.653   6.179   2.088 -1.1908 -0.1727  1.5466
  284MOL    H4840234   1.648   6.256   1.857 -0.5799 -1.9531 -0.3324
  284MOL    H4940235   1.596   6.393   1.950 -0.0007 -1.1775  1.8102
  284MOL    H5040236   1.476   6.313   1.860  0.8502  3.6911 -1.3043
  284MOL    C5140237   1.493   6.273   2.261 -0.2234  0.6037 -0.1433
  284MOL    C5240238   1.370   6.341   2.308  0.0648  0.4862 -0.3082
  284MOL    O5340239   1.515   6.164   2.335 -0.3401 -0.0948  0.6373
  284MOL    H5440240   1.575   6.340   2.233 -1.1754  1.3326 -1.2150
  284MOL    H5540241   1.290   6.268   2.314  0.0046  0.6353  0.7576
  284MOL    H5640242   1.337   6.418   2.238 -0.1220 -2.3846 -3.5253
  284MOL    H5740243   1.387   6.385   2.407  0.9977 -0.7835  0.1096
  284MOL    C5840244   1.641   6.159   2.389  0.5620  0.1181  0.9878
  284MOL    C5940245   1.642   6.048   2.492  0.8813 -0.4141  0.3660
  284MOL    O6040246   1.735   6.116   2.295 -0.3773  0.5295  0.1583
  284MOL    H6140247   1.670   6.257   2.427 -0.1439  1.1769 -1.0847
  284MOL    H6240248   1.596   6.082   2.585  0.3424  0.4865 -0.2135
  284MOL    H6340249   1.747   6.026   2.510  1.0833 -1.3829 -1.8574
  284MOL    H6440250   1.586   5.964   2.450 -1.4630  0.6291  1.3295
  284MOL    C6540251   1.850   6.192   2.289 -0.8214 -0.4831  0.6450
  284MOL    C6640252   1.948   6.132   2.195  0.0350  0.2877 -0.4463
  284MOL    O6740253   1.831   6.321   2.242  0.5444 -0.0822 -0.8019
  284MOL    H6840254   1.890   6.198   2.390  0.0068 -1.1826  0.3626
  284MOL    H6940255   2.042   6.183   2.216 -0.2007 -0.2452  2.0932
  284MOL    H7040256   1.913   6.149   2.093  0.1104 -0.6704 -0.6329
  284MOL    H7140257   1.958   6.025   2.207 -1.3921  0.1175 -0.7523
  284MOL    C7240258   1.897   6.418   2.310 -0.3340  1.0922 -0.6475
  284MOL    C7340259   1.921   6.524   2.211 -0.3083 -0.2527 -0.3871
  284MOL    O7440260   1.810   6.475   2.411 -0.3014 -0.7185 -0.2091
  284MOL    H7540261   1.994   6.383   2.343 -0.1605  0.0523 -2.2185
  284MOL    H7640262   1.977   6.490   2.125  0.8161  0.3474  0.0909
  284MOL    H7740263   1.974   6.605   2.262 -0.1173 -0.6866  0.1068
  284MOL    H7840264   1.829   6.544   2.156  0.4509  0.4280 -1.4210
  284MOL    C7940265   1.877   6.476   2.533 -0.0136  0.0795 -0.0347
  284MOL    C8040266   1.782   6.559   2.620 -0.2664  0.1025  0.4064
  284MOL    O8140267   1.880   6.353   2.590 -0.5328 -0.2563  0.5442
  284MOL    H8240268   1.972   6.529   2.526 -0.6817  1.1628 -1.2092
  284MOL    H8340269   1.824   6.573   2.719 -0.6093 -2.7491  0.9969
  284MOL    H8440270   1.687   6.505   2.623  0.6454 -1.5040  0.8171
  284MOL    H8540271   1.771   6.657   2.574 -2.4937  0.1720  1.0161
  284MOL    C8640272   2.002   6.314   2.633  0.0939 -0.1584 -0.0419
  284MOL    C8740273   1.974   6.198   2.735 -0.0020 -0.6831  0.1147
  284MOL    O8840274   2.082   6.254   2.537  0.2470 -0.1828  0.1342
  284MOL    H8940275   2.055   6.394   2.685  0.2326  1.3495 -2.4184
  284MOL    H9040276   1.941   6.244   2.828  1.6466 -2.6896  1.7092
  284MOL    H9140277   2.065   6.144   2.759  2.6499  2.1443 -3.0420
  284MOL    H9240278   1.906   6.125   2.691 -0.9336  0.3453 -0.1915
  284MOL    C9340279   2.214   6.305   2.541 -0.4228 -0.5410  0.7061
  284MOL    C9440280   2.302   6.228   2.432 -0.2892 -0.1523 -0.1079
  284MOL    O9540281   2.205   6.440   2.501  0.2249  0.0067  0.0349
  284MOL    H9640282   2.263   6.283   2.636 -0.0800 -0.0326  0.6466
  284MOL    H9740283   2.404   6.265   2.432  0.0178 -0.9378 -2.0075
  284MOL    H9840284   2.267   6.249   2.331 -4.6706  0.8905  1.5051
  284MOL    H9940285   2.304   6.121   2.451 -1.4343 -0.4573 -1.5910
  284MOL   C10040286   2.269   6.544   2.579  0.0647  0.8505 -0.3084
  284MOL   C10140287   2.281   6.654   2.476  0.0387 -0.0854 -0.1033
  284MOL   O10240288   2.182   6.590   2.685 -0.5679  0.4394  0.5680
  284MOL   H10340289   2.369   6.517   2.612 -0.5822  0.2551  1.2091
  284MOL   H10440290   2.180   6.691   2.461 -0.2605  0.6979  3.3251
  284MOL   H10540291   2.336   6.621   2.389  0.4491  1.3240 -0.3997
  284MOL   H10640292   2.324   6.743   2.522  1.3665  1.5456 -4.2453
  284MOL   C10740293   2.245   6.568   2.811  0.7043 -0.0491 -0.1174
  284MOL   C10840294   2.140   6.618   2.910 -0.1878 -0.8068  0.1205
  284MOL   O10940295   2.259   6.430   2.834  0.1500  0.3838 -0.2540
  284MOL   H11040296   2.337   6.625   2.820  1.7032 -1.7142  0.4057
  284MOL   H11140297   2.145   6.727   2.915 -0.1071 -0.8386  0.8414
  284MOL   H11240298   2.171   6.588   3.010  1.0471  0.7904  0.2359
  284MOL   H11340299   2.041   6.577   2.894  0.4239 -1.7345 -1.3787
  284MOL   C11440300   2.369   6.403   2.907  0.1739 -1.0235  0.0053
  284MOL   C11540301   2.340   6.256   2.946  0.2154 -0.1975  0.0681
  284MOL   O11640302   2.485   6.401   2.828  0.5755  0.4824  0.1208
  284MOL   H11740303   2.387   6.461   2.998  0.5798  0.8938 -1.2878
  284MOL   H11840304   2.250   6.272   3.005 -0.4769 -1.4719 -0.6192
  284MOL   H11940305   2.412   6.205   3.010  1.4874  2.1805  0.5818
  284MOL   H12040306   2.308   6.204   2.855  0.0623 -0.6643  0.3895
  284MOL   C12140307   2.592   6.475   2.891 -0.1146 -0.0618  0.7247
  284MOL   C12240308   2.714   6.462   2.793  0.5625  0.3639  0.1786
  284MOL   O12340309   2.564   6.614   2.915  0.0186 -0.3975 -0.4756
  284MOL   H12440310   2.611   6.420   2.983 -1.2788 -1.8700 -0.0900
  284MOL   H12540311   2.751   6.360   2.799  0.0036  0.2548  1.7547
  284MOL   H12640312   2.794   6.523   2.836 -1.1062  2.3945  0.5074
  284MOL   H12740313   2.687   6.484   2.689  1.0488 -0.3586 -0.1068
  284MOL   C12840314   2.600   6.654   3.044  0.6173 -0.2194 -0.4535
  284MOL   C12940315   2.561   6.798   3.051  0.0629  0.3915 -0.0717
  284MOL   O13040316   2.545   6.576   3.142  0.5515 -0.2453  0.0446
  284MOL   H13140317   2.708   6.649   3.058  0.3678 -0.1398  1.6635
  284MOL   H13240318   2.454   6.797   3.030 -0.1199  1.8620  0.7653
  284MOL   H13340319   2.603   6.855   2.968  0.1772  0.9160  0.3462
  284MOL   H13440320   2.592   6.841   3.146 -1.0212  0.2105  0.3741
  284MOL   C13540321   2.617   6.586   3.267 -0.3690  0.3388  0.1852
  284MOL   C13640322   2.520   6.534   3.373 -0.0554  0.1480 -0.2269
  284MOL   O13740323   2.726   6.505   3.259 -0.0625  0.0657  0.2458
  284MOL   H13840324   2.649   6.686   3.294 -0.4818  0.6999 -0.9612
  284MOL   H13940325   2.471   6.439   3.353  1.4899 -0.3886 -1.6173
  284MOL   H14040326   2.431   6.597   3.377 -1.6727 -2.0570 -0.2859
  284MOL   H14140327   2.575   6.530   3.466  1.3754  0.9519 -1.0205
  284MOL   H14240328   2.686   6.419   3.252  1.2796 -0.5478 -0.0917
  285MOL     C140329   7.289   0.296   7.398 -0.8219  0.1373 -0.6832
  285MOL     C240330   7.236   0.226   7.524 -0.7655 -0.4051 -0.0921
  285MOL     O340331   7.396   0.377   7.449 -0.1534  0.3546 -0.2955
  285MOL     H440332   7.206   0.349   7.351 -1.0640 -0.3635 -0.8233
  285MOL     H540333   7.315   0.185   7.588  1.2787  0.8879 -1.6952
  285MOL     H640334   7.158   0.151   7.513  0.1437 -1.4640  0.5370
  285MOL     H740335   7.187   0.307   7.579 -0.0452  1.2126 -1.7726
  285MOL     H840336   7.316   0.223   7.321  0.6250 -0.8560  0.7322
  285MOL     C940337   7.445   0.465   7.363 -0.2333 -0.3331  0.2024
  285MOL    C1040338   7.496   0.573   7.451 -0.1675 -0.3063 -0.1107
  285MOL    O1140339   7.555   0.414   7.302 -0.3119  0.0269 -0.0857
  285MOL    H1240340   7.370   0.506   7.295  0.6522 -2.3680 -2.1013
  285MOL    H1340341   7.563   0.537   7.528  2.1613  0.5899 -1.6596
  285MOL    H1440342   7.416   0.624   7.505  1.5698  2.8403 -0.3919
  285MOL    H1540343   7.553   0.646   7.393 -1.8668  1.2089  0.0578
  285MOL    C1640344   7.539   0.368   7.170  0.0835 -0.0847  0.6211
  285MOL    C1740345   7.577   0.467   7.066 -0.3846  0.3077  0.3092
  285MOL    O1840346   7.624   0.259   7.151 -0.3006 -0.1921 -0.5035
  285MOL    H1940347   7.443   0.320   7.157  0.8103 -1.7313  1.2256
  285MOL    H2040348   7.531   0.430   6.975 -1.2629  1.4931  0.2757
  285MOL    H2140349   7.686   0.474   7.058 -0.3685 -0.0845  0.1674
  285MOL    H2240350   7.526   0.562   7.078 -1.1914 -0.0328 -0.3765
  285MOL    C2340351   7.595   0.141   7.208 -0.0809 -0.6116 -0.4331
  285MOL    C2440352   7.601   0.040   7.095  0.8605  0.1614 -0.2170
  285MOL    O2540353   7.705   0.111   7.293 -0.4010 -0.6349 -0.3553
  285MOL    H2640354   7.503   0.127   7.265 -0.7023 -1.4420 -1.6238
  285MOL    H2740355   7.568   7.856   7.131 -0.9451  0.9323  0.3080
  285MOL    H2840356   7.694   0.039   7.038  1.3251 -0.9592  0.5314
  285MOL    H2940357   7.515   0.066   7.033  1.0566  0.7069 -0.2609
  285MOL    C3040358   7.685   0.136   7.429 -0.1365  0.1260 -0.3891
  285MOL    C3140359   7.634   0.001   7.485  0.3127  0.1224  0.0512
  285MOL    O3240360   7.802   0.175   7.493 -0.1717 -0.3566 -0.1494
  285MOL    H3340361   7.609   0.210   7.454  0.8524  1.2338 -0.6194
  285MOL    H3440362   7.530   7.894   7.459  0.7583 -0.8488 -0.9708
  285MOL    H3540363   7.617   7.911   7.593 -2.5415 -2.1585 -0.4095
  285MOL    H3640364   7.701   7.841   7.442  0.4355  0.4110 -0.2522
  285MOL    C3740365   7.836   0.314   7.476  0.0164 -0.6456 -0.0816
  285MOL    C3840366   7.854   0.387   7.614 -0.2974  0.0484 -0.3981
  285MOL    O3940367   0.051   0.315   7.411 -0.2238 -0.3361  0.3589
  285MOL    H4040368   7.764   0.374   7.421  0.8422 -1.2897 -1.8801
  285MOL    H4140369   7.912   0.477   7.592  0.5559 -0.6968 -1.2684
  285MOL    H4240370   7.912   0.324   7.681  0.9785  1.5039 -0.1038
  285MOL    H4340371   7.754   0.406   7.653 -0.3050  0.0105 -0.3998
  285MOL    C4440372   0.043   0.291   7.269  0.0022  0.2314 -0.3140
  285MOL    C4540373   0.083   0.416   7.211 -0.5964  0.1329  0.7724
  285MOL    O4640374   0.140   0.202   7.223  0.2924  0.2885 -0.0881
  285MOL    H4740375   7.858   0.270   7.228  0.9818 -1.0593 -2.1096
  285MOL    H4840376   0.014   0.496   7.238 -1.6141 -0.3648 -0.2809
  285MOL    H4940377   0.091   0.411   7.102  1.0154  2.2211  0.7665
  285MOL    H5040378   0.185   0.442   7.237  1.3098 -1.9730 -3.9905
  285MOL    C5140379   0.120   0.071   7.262  0.0068 -0.1095  0.5275
  285MOL    C5240380   0.114   7.895   7.138 -0.1527  0.6317  0.5775
  285MOL    O5340381   0.220   0.020   7.335 -0.4085  0.2235 -0.5855
  285MOL    H5440382   0.029   0.052   7.320 -1.0378 -2.4067 -1.7364
  285MOL    H5540383   0.028   0.003   7.074  0.4403 -0.3838 -0.5784
  285MOL    H5640384   0.091   7.793   7.169 -2.3659  0.4423 -1.4801
  285MOL    H5740385   0.206   7.887   7.081 -0.8043 -1.7307 -0.2101
  285MOL    C5840386   0.225   0.053   7.470 -0.1582 -0.0781 -0.4518
  285MOL    C5940387   0.183   7.843   7.544 -0.4977 -0.2988 -0.4389
  285MOL    O6040388   0.358   0.084   7.506 -0.1868 -0.0878  0.1506
  285MOL    H6140389   0.160   0.137   7.494  3.0774  2.5306 -0.4535
  285MOL    H6240390   0.202   7.851   7.651  0.9387 -0.8287 -0.6370
  285MOL    H6340391   0.236   7.760   7.497 -2.3175 -2.0708  0.5402
  285MOL    H6440392   0.077   7.830   7.525 -0.4197 -2.1620  0.3187
  285MOL    C6540393   0.404   0.200   7.440 -0.4670 -0.4987 -0.3619
  285MOL    C6640394   0.417   0.304   7.554  0.4263 -0.4730  0.4095
  285MOL    O6740395   0.530   0.189   7.393  0.3278 -0.1788 -0.1699
  285MOL    H6840396   0.341   0.240   7.360 -2.9592 -1.5021  1.0356
  285MOL    H6940397   0.485   0.267   7.630  0.9697  0.8474  0.5855
  285MOL    H7040398   0.323   0.331   7.603 -0.6238 -1.0736 -1.1979
  285MOL    H7140399   0.456   0.400   7.519 -0.5634 -1.0670 -2.5393
  285MOL    C7240400   0.533   0.121   7.267 -0.1165 -0.3113 -0.4323
  285MOL    C7340401   0.552   0.240   7.165 -0.2326 -0.6910 -0.3744
  285MOL    O7440402   0.653   0.052   7.256 -0.2918  0.2727  0.4358
  285MOL    H7540403   0.444   0.060   7.252  0.0207 -1.0467  1.6016
  285MOL    H7640404   0.652   0.278   7.183 -0.0034 -1.8982  1.0188
  285MOL    H7740405   0.471   0.314   7.165 -0.3230 -0.7876 -2.0881
  285MOL    H7840406   0.545   0.201   7.064  1.2767  3.1350 -2.0829
  285MOL    C7940407   0.675   7.869   7.356  0.6170 -0.2558  0.0757
  285MOL    C8040408   0.687   7.742   7.282 -0.0790  0.6395  0.2024
  285MOL    O8140409   0.801   7.893   7.415 -0.9157  0.2811  0.1676
  285MOL    H8240410   0.591   7.872   7.426 -0.9832  2.6385 -1.8455
  285MOL    H8340411   0.688   7.660   7.353 -1.6204  0.6104  0.2075
  285MOL    H8440412   0.783   7.747   7.230 -0.0301 -0.0667  0.2295
  285MOL    H8540413   0.605   7.738   7.210  0.5196  1.8433 -0.5853
  285MOL    C8640414   0.802   0.090   7.504  0.0195  0.1080 -0.4016
  285MOL    C8740415   0.824   0.029   7.644 -0.2663 -0.3234  0.1959
  285MOL    O8840416   0.915   0.166   7.474 -0.0457 -0.3958 -0.0996
  285MOL    H8940417   0.718   0.159   7.501  0.0974  0.2042 -0.3900
  285MOL    H9040418   0.837   0.115   7.710 -2.0467  1.2311 -1.4055
  285MOL    H9140419   0.913   7.885   7.620 -1.5251 -3.2233  2.1340
  285MOL    H9240420   0.740   7.891   7.691  1.2248 -1.7793  1.3023
  285MOL    C9340421   0.901   0.248   7.363 -0.4985  0.9118 -0.5063
  285MOL    C9440422   0.838   0.378   7.410  0.0538  0.2456  0.0842
  285MOL    O9540423   1.025   0.277   7.308 -0.4843 -0.4364 -0.8849
  285MOL    H9640424   0.835   0.199   7.290  1.3927 -1.3247 -0.7885
  285MOL    H9740425   0.904   0.422   7.485  1.0108 -3.2026  1.3518
  285MOL    H9840426   0.734   0.368   7.442  0.2122  0.2109  0.5925
  285MOL    H9940427   0.825   0.448   7.327 -0.8949 -0.5147 -0.4182
  285MOL   C10040428   1.062   0.177   7.214  0.3035 -0.1725 -0.1626
  285MOL   C10140429   1.033   0.230   7.069 -0.3733  0.1459 -0.0688
  285MOL   O10240430   1.196   0.161   7.221 -0.1191  0.0982 -0.1105
  285MOL   H10340431   1.007   0.083   7.225 -1.1436  0.5548 -0.9772
  285MOL   H10440432   1.061   0.164   6.987 -0.1502 -1.2106  1.0803
  285MOL   H10540433   1.082   0.326   7.052 -0.8947  0.5559  0.7326
  285MOL   H10640434   0.925   0.239   7.056 -0.6676 -2.0846  0.6531
  285MOL   C10740435   1.237   0.097   7.337 -0.9708  0.4105 -0.6889
  285MOL   C10840436   1.256   7.860   7.310  0.7016  0.6092  0.5429
  285MOL   O10940437   1.359   0.147   7.371 -0.0469  0.6271  0.6409
  285MOL   H11040438   1.181   0.115   7.429  0.2939 -0.1416  0.2012
  285MOL   H11140439   1.168   7.797   7.303  0.7227  0.6156  0.1969
  285MOL   H11240440   1.294   7.812   7.400 -0.8730 -0.1964  0.7830
  285MOL   H11340441   1.331   7.848   7.232  0.6015  0.4588  0.4697
  285MOL   C11440442   1.365   0.277   7.414 -0.1412 -0.0844 -0.5979
  285MOL   C11540443   1.402   0.266   7.562  0.1533  0.4512 -0.3731
  285MOL   O11640444   1.473   0.356   7.360  0.4283 -0.8501 -0.4945
  285MOL   H11740445   1.269   0.324   7.392 -0.0739 -0.2888 -1.3359
  285MOL   H11840446   1.505   0.230   7.562  0.6013  1.7027 -0.9358
  285MOL   H11940447   1.339   0.194   7.614 -0.3326  0.8640 -0.3846
  285MOL   H12040448   1.390   0.358   7.619 -0.5035 -1.4854  2.7205
  285MOL   C12140449   1.449   0.420   7.233  0.0416  0.6658 -0.1759
  285MOL   C12240450   1.474   0.570   7.264  0.6382 -0.1682  0.5443
  285MOL   O12340451   1.536   0.381   7.129  0.2588 -0.8567 -0.0812
  285MOL   H12440452   1.349   0.400   7.194  0.6721 -1.6723 -0.6575
  285MOL   H12540453   1.436   0.631   7.182  1.4336  0.9631  1.0154
  285MOL   H12640454   1.578   0.587   7.291  1.4786 -2.2543 -1.2170
  285MOL   H12740455   1.412   0.604   7.347  3.4349 -0.5311  2.8896
  285MOL   C12840456   1.519   0.251   7.091 -0.6037  0.3084  0.6478
  285MOL   C12940457   1.444   0.249   6.948 -0.1557  0.4503 -0.2553
  285MOL   O13040458   1.632   0.175   7.076 -0.5930  0.6473  0.3754
  285MOL   H13140459   1.456   0.196   7.161 -0.3820 -0.0722  0.5508
  285MOL   H13240460   1.436   0.145   6.917  1.6086  0.5916 -1.1972
  285MOL   H13340461   1.504   0.286   6.865  0.3296  1.3648  0.4986
  285MOL   H13440462   1.358   0.316   6.958  1.8899  3.1254 -0.0618
  285MOL   C13540463   1.717   0.171   7.183 -0.1222  0.0989 -0.0739
  285MOL   C13640464   1.806   0.043   7.175  0.3294  0.5681 -0.6204
  285MOL   O13740465   1.802   0.285   7.189 -0.1239 -0.3583  0.3675
  285MOL   H13840466   1.660   0.177   7.276  0.4677 -2.2559  0.4629
  285MOL   H13940467   1.859   0.049   7.079  0.7985  0.6205 -0.3607
  285MOL   H14040468   1.741   7.870   7.182  0.4729  0.6564  2.0618
  285MOL   H14140469   1.875   0.035   7.259 -0.4465  1.3047  0.0968
  285MOL   H14240470   1.744   0.359   7.197  1.5057  0.9695  0.0553
  286MOL     C140471   5.592   2.167   5.328 -0.7726 -0.1306 -0.5758
  286MOL     C240472   5.621   2.113   5.467  0.1172  0.3965 -0.3790
  286MOL     O340473   5.506   2.075   5.256  0.0452  1.1592  0.2524
  286MOL     H440474   5.688   2.172   5.275  0.2610 -0.0220  1.2530
  286MOL     H540475   5.530   2.123   5.525  0.1693 -0.7973 -0.0768
  286MOL     H640476   5.706   2.160   5.516  0.7761  1.2749 -2.3202
  286MOL     H740477   5.639   2.005   5.470  0.3603  0.4269 -0.6439
  286MOL     H840478   5.549   2.267   5.332  0.8663  0.6976 -2.4006
  286MOL     C940479   5.537   2.053   5.118 -0.2475  0.3297 -0.5258
  286MOL    C1040480   5.665   1.961   5.103  0.9671  0.1362 -0.4411
  286MOL    O1140481   5.426   1.987   5.061 -0.1599  0.2854  0.2280
  286MOL    H1240482   5.552   2.146   5.064  0.9238 -0.3293 -1.3490
  286MOL    H1340483   5.761   1.998   5.141  1.3161 -0.6346 -0.5574
  286MOL    H1440484   5.676   1.939   4.997  1.7489  0.1403 -0.3680
  286MOL    H1540485   5.653   1.866   5.154  1.9735 -0.7844 -1.8802
  286MOL    C1640486   5.311   2.070   5.043  0.1174 -0.2938 -0.2132
  286MOL    C1740487   5.299   2.098   4.891  0.3651  0.2320  0.0261
  286MOL    O1840488   5.192   2.000   5.075 -0.1019  0.1813 -0.3294
  286MOL    H1940489   5.325   2.169   5.086 -0.0123 -0.4549  0.2038
  286MOL    H2040490   5.218   2.170   4.879 -0.6660 -1.0681 -1.0260
  286MOL    H2140491   5.285   2.002   4.841 -0.0350  1.1708 -1.7370
  286MOL    H2240492   5.387   2.147   4.850  1.2270 -0.1577  1.3767
  286MOL    C2340493   5.182   1.969   5.212  0.5063 -0.4331  0.4617
  286MOL    C2440494   5.071   2.047   5.273 -0.4576 -0.1804 -0.0023
  286MOL    O2540495   5.156   1.831   5.218 -0.2101  0.0862  0.1997
  286MOL    H2640496   5.282   1.973   5.255  0.6647 -0.8535  0.1336
  286MOL    H2740497   5.069   2.029   5.381  3.0264  2.5649  0.5997
  286MOL    H2840498   4.976   2.021   5.227  0.2850 -0.9115 -1.1291
  286MOL    H2940499   5.075   2.156   5.267  0.4565 -0.2319 -0.3662
  286MOL    C3040500   5.246   1.739   5.159 -0.3015 -0.2461  0.6643
  286MOL    C3140501   5.338   1.676   5.259  0.0847  0.0620  0.2375
  286MOL    O3240502   5.173   1.638   5.102  0.2860 -0.1446 -0.6309
  286MOL    H3340503   5.303   1.780   5.076 -0.5381 -0.1044  0.5710
  286MOL    H3440504   5.392   1.594   5.211 -1.0393 -1.1631  1.0584
  286MOL    H3540505   5.287   1.646   5.350  1.2692  0.2149  0.9585
  286MOL    H3640506   5.416   1.751   5.273  1.3716 -1.3649  0.8307
  286MOL    C3740507   5.122   1.668   4.972 -0.6263  0.7452 -0.5882
  286MOL    C3840508   5.227   1.620   4.867 -0.6077  0.2200 -0.0809
  286MOL    O3940509   4.995   1.626   4.945  0.1261 -0.2255  0.1368
  286MOL    H4040510   5.119   1.777   4.961  0.0853  0.8052 -0.2084
  286MOL    H4140511   5.259   1.517   4.881 -1.0574  0.4592  3.1133
  286MOL    H4240512   5.312   1.689   4.869 -0.7076  0.3493 -0.2012
  286MOL    H4340513   5.184   1.627   4.767  1.3071 -0.1198 -0.9428
  286MOL    C4440514   4.899   1.656   5.044  0.2359  0.4251 -0.1319
  286MOL    C4540515   4.798   1.748   4.985  0.5072 -0.3361 -0.1701
  286MOL    O4640516   4.842   1.530   5.075 -0.0566  0.2135 -0.2740
  286MOL    H4740517   4.949   1.702   5.129  1.8459  3.6268 -2.7140
  286MOL    H4840518   4.715   1.763   5.053  1.4174  3.7568  0.1606
  286MOL    H4940519   4.760   1.698   4.896  0.2235  0.8040 -0.7025
  286MOL    H5040520   4.844   1.837   4.942  0.0139 -0.2088 -0.4418
  286MOL    C5140521   4.893   1.464   5.185  0.1272  0.2666 -0.3845
  286MOL    C5240522   4.784   1.470   5.296 -0.2082  0.3657 -0.5166
  286MOL    O5340523   4.929   1.331   5.172  0.3029  0.2236  0.5349
  286MOL    H5440524   4.985   1.508   5.223 -0.5570  0.4146  1.1770
  286MOL    H5540525   4.745   1.571   5.305 -0.7384  0.4792 -3.4549
  286MOL    H5640526   4.825   1.452   5.396 -0.8229  1.1602 -0.1192
  286MOL    H5740527   4.717   1.392   5.261  2.2584 -1.9637 -0.2777
  286MOL    C5840528   5.048   1.305   5.095 -0.1044 -0.2728 -0.8321
  286MOL    C5940529   5.155   1.279   5.202  0.4375  0.1977 -0.0176
  286MOL    O6040530   5.031   1.185   5.034 -0.3280 -0.0323  0.2574
  286MOL    H6140531   5.086   1.382   5.028 -1.8126  1.9109  0.5984
  286MOL    H6240532   5.252   1.247   5.166  1.4785  1.8114  1.2636
  286MOL    H6340533   5.127   1.192   5.261  1.2275  0.6538  1.0431
  286MOL    H6440534   5.173   1.366   5.265  1.0897  0.1629 -0.1559
  286MOL    C6540535   4.921   1.179   4.946 -1.1005 -0.5461 -0.3272
  286MOL    C6640536   4.982   1.184   4.808  0.1318 -0.4371  0.0120
  286MOL    O6740537   4.860   1.060   4.961  0.0565  0.0389  0.3270
  286MOL    H6840538   4.844   1.254   4.965 -1.7291 -1.2137 -0.2186
  286MOL    H6940539   5.031   1.276   4.778  1.0405 -1.1211 -0.6540
  286MOL    H7040540   4.914   1.143   4.732 -1.7212 -2.9318  2.8949
  286MOL    H7140541   5.072   1.124   4.823 -0.1434 -1.6303 -2.7307
  286MOL    C7240542   4.801   1.038   5.087 -0.4036 -0.1805 -0.3314
  286MOL    C7340543   4.655   1.023   5.062 -0.0969 -0.2949  0.8749
  286MOL    O7440544   4.843   0.915   5.143  0.0198  0.4569 -0.4130
  286MOL    H7540545   4.822   1.115   5.163  1.0023  0.0933 -0.9769
  286MOL    H7640546   4.635   0.937   4.999 -2.0076  2.3033 -2.2302
  286MOL    H7740547   4.627   1.115   5.010  1.2420 -0.9934 -1.1294
  286MOL    H7840548   4.596   1.021   5.153 -0.0877  0.5359  0.8991
  286MOL    C7940549   4.957   0.928   5.229 -0.5249  0.5441  0.0105
  286MOL    C8040550   4.918   0.892   5.372  0.0972  0.0204 -0.6179
  286MOL    O8140551   5.058   0.836   5.195  0.1568 -0.4116  0.2273
  286MOL    H8240552   4.995   1.030   5.228 -1.9805  1.1148  0.9063
  286MOL    H8340553   4.864   0.798   5.383 -1.5326  0.8943 -0.9593
  286MOL    H8440554   4.851   0.965   5.419  1.1974  1.1932 -0.8359
  286MOL    H8540555   5.006   0.901   5.437  1.0787 -2.7243 -1.5036
  286MOL    C8640556   5.142   0.889   5.093 -0.3278 -0.7461 -0.0733
  286MOL    C8740557   5.288   0.905   5.162  0.6294 -0.7310  0.2088
  286MOL    O8840558   5.165   0.786   4.998 -0.1161  0.2128  0.2213
  286MOL    H8940559   5.101   0.978   5.046 -0.0587 -1.4452 -1.6456
  286MOL    H9040560   5.277   0.957   5.257 -0.4331 -0.3408 -0.1167
  286MOL    H9140561   5.359   0.970   5.112 -2.0521  1.0791 -1.3514
  286MOL    H9240562   5.328   0.804   5.172  2.7313  0.2520  2.1007
  286MOL    C9340563   5.058   0.782   4.912 -0.1107 -0.0391 -0.0815
  286MOL    C9440564   5.107   0.832   4.772 -0.3905 -0.0889  0.4471
  286MOL    O9540565   5.011   0.652   4.906 -0.1706  0.1290 -0.0204
  286MOL    H9640566   4.970   0.838   4.943 -1.8673 -2.1896 -0.9801
  286MOL    H9740567   5.027   0.889   4.725  0.5894  0.1142 -1.0314
  286MOL    H9840568   5.140   0.752   4.705 -3.8410 -1.8863  0.8145
  286MOL    H9940569   5.199   0.887   4.792 -0.1884 -0.9211  1.8605
  286MOL   C10040570   4.916   0.614   5.003 -0.4881  0.1636 -0.1531
  286MOL   C10140571   4.799   0.586   4.920 -0.4756 -0.4042 -0.2340
  286MOL   O10240572   4.955   0.494   5.067  0.0406  0.3153 -0.1334
  286MOL   H10340573   4.901   0.695   5.075 -1.8414  0.8119 -1.1498
  286MOL   H10440574   4.731   0.539   4.990 -0.3913 -0.3155 -0.0915
  286MOL   H10540575   4.825   0.526   4.832 -1.6017  2.2939 -2.5056
  286MOL   H10640576   4.757   0.682   4.889  2.3047  0.1813 -2.4764
  286MOL   C10740577   5.038   0.506   5.180  0.3261  0.3303  0.7738
  286MOL   C10840578   4.962   0.494   5.309 -0.1606  1.0618  0.2637
  286MOL   O10940579   5.138   0.410   5.181 -0.7101  0.1353  0.0839
  286MOL   H11040580   5.087   0.603   5.173 -1.5283  1.1871 -0.6704
  286MOL   H11140581   4.872   0.556   5.310 -2.2094 -1.8052  0.7005
  286MOL   H11240582   5.024   0.524   5.394 -0.3096  2.2170 -0.0277
  286MOL   H11340583   4.941   0.388   5.324 -0.8977  0.4861 -4.1575
  286MOL   C11440584   5.227   0.424   5.075 -0.4351 -0.4698  0.0387
  286MOL   C11540585   5.366   0.450   5.137 -0.0892 -0.3348  0.6201
  286MOL   O11640586   5.234   0.298   5.001 -0.4654 -0.1621 -0.1730
  286MOL   H11740587   5.199   0.507   5.011 -0.7204 -1.8295 -1.6606
  286MOL   H11840588   5.445   0.426   5.066 -1.1264 -1.1012 -0.2878
  286MOL   H11940589   5.366   0.387   5.226 -0.2894 -1.9382 -0.4980
  286MOL   H12040590   5.372   0.556   5.161  1.7814 -0.6125  1.4415
  286MOL   C12140591   5.134   0.277   4.909  0.2049 -1.0220  0.0645
  286MOL   C12240592   5.164   0.358   4.784 -0.0018  0.3221 -0.2869
  286MOL   O12340593   5.139   0.146   4.872 -0.4279 -0.5408  0.4712
  286MOL   H12440594   5.040   0.309   4.955  0.8108  0.7390  0.1108
  286MOL   H12540595   5.258   0.333   4.735 -0.5330  0.0011 -1.1465
  286MOL   H12640596   5.184   0.464   4.797  1.5439  0.0550 -0.3923
  286MOL   H12740597   5.080   0.342   4.716 -0.4960  0.9488  0.1756
  286MOL   C12840598   5.080   0.064   4.975 -0.2205 -0.3247 -0.3499
  286MOL   C12940599   4.966   7.905   4.912  1.1572 -0.0320 -0.3840
  286MOL   O13040600   5.162   7.881   5.039 -0.3238 -0.5348  0.5678
  286MOL   H13140601   5.030   0.122   5.052 -0.1870  0.0491 -0.6070
  286MOL   H13240602   4.915   7.837   4.980  2.2614 -0.4218  0.0678
  286MOL   H13340603   4.996   7.855   4.820 -1.3383 -0.8508 -0.7924
  286MOL   H13440604   4.892   0.063   4.878  0.4073 -0.9719 -0.7762
  286MOL   C13540605   5.269   0.018   5.111 -0.4788 -0.3239  0.2454
  286MOL   C13640606   5.324   7.807   5.179 -0.0704 -0.6108 -0.0168
  286MOL   O13740607   5.372   0.063   5.028 -0.2686 -0.0124  0.1046
  286MOL   H13840608   5.237   0.102   5.173  0.9967  0.4201  0.0125
  286MOL   H13940609   5.329   7.719   5.116 -0.8628 -0.9013  0.3156
  286MOL   H14040610   5.254   7.788   5.260 -1.7765 -0.3485 -1.4054
  286MOL   H14140611   5.426   7.822   5.214  0.4534  1.1829 -2.1761
  286MOL   H14240612   5.331   0.134   4.982  1.1727  0.3634 -0.6221
  287MOL     C140613   1.702   6.470   7.623  0.2078 -0.1018 -0.0381
  287MOL     C240614   1.571   6.415   7.683 -0.2825 -0.4739  0.0140
  287MOL     O340615   1.804   6.454   7.719 -0.1487  0.5530 -0.5535
  287MOL     H440616   1.696   6.574   7.593  2.4175  0.4970  1.5251
  287MOL     H540617   1.499   6.399   7.603  1.0991 -2.1536 -0.9332
  287MOL     H640618   1.523   6.487   7.749 -0.3107 -1.1141  0.7080
  287MOL     H740619   1.592   6.327   7.745 -0.6007  1.0883  2.3903
  287MOL     H840620   1.721   6.412   7.533 -0.2298 -0.0054 -0.1931
  287MOL     C940621   1.927   6.519   7.684  0.5759 -0.0163  0.4751
  287MOL    C1040622   2.029   6.482   7.793 -0.2767  0.3486  0.3529
  287MOL    O1140623   1.970   6.467   7.560 -0.3753 -0.7062  0.2462
  287MOL    H1240624   1.913   6.627   7.674  1.1143 -0.2384 -3.4836
  287MOL    H1340625   2.005   6.536   7.884  0.6707  0.2536  0.6627
  287MOL    H1440626   2.127   6.518   7.763  0.7258 -1.9202  0.8216
  287MOL    H1540627   2.022   6.377   7.820 -2.3979  0.2376 -0.4499
  287MOL    C1640628   2.042   6.559   7.488  0.3290  0.3132 -0.3055
  287MOL    C1740629   2.136   6.480   7.399  0.1544 -0.1902  0.2535
  287MOL    O1840630   1.961   6.633   7.408 -0.1654  0.9383 -0.2922
  287MOL    H1940631   2.108   6.624   7.546 -0.6071  1.0011  0.0022
  287MOL    H2040632   2.079   6.435   7.318  0.1599 -1.8314  1.1432
  287MOL    H2140633   2.185   6.408   7.465  0.5628  0.9347  1.2150
  287MOL    H2240634   2.216   6.548   7.368  1.5422 -2.3984 -1.0815
  287MOL    C2340635   1.995   6.773   7.401 -0.7793 -0.0011 -0.6303
  287MOL    C2440636   1.892   6.856   7.317  0.1629 -0.0347  0.4191
  287MOL    O2540637   2.011   6.833   7.537  0.6510 -0.2929 -0.2621
  287MOL    H2640638   2.093   6.770   7.354 -0.8651 -0.3861 -0.7833
  287MOL    H2740639   1.890   6.965   7.324 -0.0652 -0.0137  0.0312
  287MOL    H2840640   1.789   6.831   7.340  0.2721 -0.7684  0.1335
  287MOL    H2940641   1.915   6.834   7.213 -3.7380 -1.2282 -0.2636
  287MOL    C3040642   2.124   6.915   7.551  0.3275 -0.1436 -0.8602
  287MOL    C3140643   2.124   6.959   7.695  0.4859 -0.5409  0.9174
  287MOL    O3240644   2.241   6.844   7.532  0.1818 -0.5036  0.4876
  287MOL    H3340645   2.130   7.001   7.485 -0.2235  1.5138  1.1903
  287MOL    H3440646   2.200   7.036   7.714  0.6633 -0.6878  0.7978
  287MOL    H3540647   2.155   6.877   7.760  2.7035 -0.4330  0.0527
  287MOL    H3640648   2.028   7.006   7.720  1.2200  1.7549 -0.3900
  287MOL    C3740649   2.332   6.916   7.455  0.0738  0.4835  0.6496
  287MOL    C3840650   2.462   6.841   7.465 -0.4032 -0.3461  0.1005
  287MOL    O3940651   2.288   6.922   7.322 -0.0029 -0.4688 -0.2441
  287MOL    H4040652   2.354   7.014   7.495  0.5328  1.0549 -0.9303
  287MOL    H4140653   2.537   6.896   7.408 -1.6160 -0.5159 -1.6972
  287MOL    H4240654   2.453   6.736   7.436  0.5602 -0.1531 -0.9386
  287MOL    H4340655   2.497   6.846   7.568 -3.0679 -0.4714  1.0344
  287MOL    C4440656   2.318   7.044   7.261  0.8132  0.3022 -0.7484
  287MOL    C4540657   2.261   7.041   7.119 -0.4193 -0.0117  0.3696
  287MOL    O4640658   2.257   7.148   7.337 -0.4510 -0.0028  0.5897
  287MOL    H4740659   2.424   7.059   7.243  0.7566  0.3990 -0.9996
  287MOL    H4840660   2.153   7.027   7.121 -0.5565  0.5979 -1.8491
  287MOL    H4940661   2.299   6.958   7.060  2.7906  1.3516  0.4444
  287MOL    H5040662   2.267   7.134   7.063 -0.5259 -0.7878 -0.9677
  287MOL    C5140663   2.326   7.262   7.350  0.1422 -0.1121 -0.2425
  287MOL    C5240664   2.229   7.369   7.403 -0.8018 -0.1563  0.0399
  287MOL    O5340665   2.435   7.247   7.435 -0.9013  0.0911 -0.5565
  287MOL    H5440666   2.363   7.290   7.251 -2.4718  0.5884 -1.0643
  287MOL    H5540667   2.181   7.422   7.320 -1.8588  1.3521  1.5914
  287MOL    H5640668   2.274   7.432   7.479 -1.6833  0.6120 -0.0667
  287MOL    H5740669   2.148   7.314   7.450 -1.1747  0.2853 -0.0837
  287MOL    C5840670   2.544   7.326   7.393 -0.2230 -0.0979 -0.1225
  287MOL    C5940671   2.650   7.313   7.501 -0.3847 -0.5008  0.4099
  287MOL    O6040672   2.601   7.280   7.272  0.1825 -0.2029  0.2088
  287MOL    H6140673   2.516   7.430   7.375  0.2234  0.7742  3.7804
  287MOL    H6240674   2.749   7.346   7.470  0.4221 -3.1152  0.0556
  287MOL    H6340675   2.664   7.209   7.531  0.2651  0.1569  2.4765
  287MOL    H6440676   2.626   7.366   7.594 -0.3278  1.4850 -0.6897
  287MOL    C6540677   2.666   7.379   7.200  0.3444  0.0655  0.5153
  287MOL    C6640678   2.719   7.321   7.067  0.2168 -0.0909 -0.4245
  287MOL    O6740679   2.576   7.480   7.157  0.1553  0.4734 -0.1134
  287MOL    H6840680   2.740   7.414   7.273 -0.2282 -0.1101  1.1869
  287MOL    H6940681   2.799   7.247   7.079  0.3497  0.2787  1.0627
  287MOL    H7040682   2.761   7.397   7.001 -1.2560 -0.7915 -2.2165
  287MOL    H7140683   2.635   7.272   7.017 -0.6665  1.4354 -0.4788
  287MOL    C7240684   2.637   7.601   7.157  0.1857 -0.3934 -0.1708
  287MOL    C7340685   2.532   7.711   7.097  0.6231  0.0575 -0.0274
  287MOL    O7440686   2.661   7.638   7.292 -0.1002  0.2732 -0.0679
  287MOL    H7540687   2.727   7.604   7.095 -1.1103  0.4333 -2.0766
  287MOL    H7640688   2.528   7.715   6.988  0.1138 -0.8693 -0.0527
  287MOL    H7740689   2.561   7.805   7.142  0.7667 -0.3190  0.6756
  287MOL    H7840690   2.430   7.687   7.126  1.4306 -3.2336  0.3156
  287MOL    C7940691   2.778   7.709   7.313 -0.1638 -0.2499  0.8064
  287MOL    C8040692   2.779   7.754   7.455 -0.1960 -0.4422 -0.0281
  287MOL    O8140693   2.890   7.631   7.287 -0.1445 -0.2425 -0.5001
  287MOL    H8240694   2.789   7.799   7.252  0.1334 -1.6286 -1.2334
  287MOL    H8340695   2.684   7.795   7.488  0.8488  1.5528  0.5945
  287MOL    H8440696   2.853   7.834   7.463 -0.2745 -0.2341 -1.3226
  287MOL    H8540697   2.801   7.664   7.512 -1.6961  0.3955  1.9156
  287MOL    C8640698   2.990   7.695   7.210 -0.1488 -0.2661  0.2271
  287MOL    C8740699   3.113   7.605   7.224  0.1520 -0.8663  0.3964
  287MOL    O8840700   2.957   7.699   7.077  0.0652  0.2962 -0.5998
  287MOL    H8940701   2.999   7.787   7.267  0.9531 -0.9581  1.1817
  287MOL    H9040702   3.205   7.635   7.173  0.4458 -0.2994  1.2479
  287MOL    H9140703   3.094   7.499   7.205 -1.2719 -0.5350 -0.1055
  287MOL    H9240704   3.149   7.598   7.327  1.4147 -1.4132 -0.0630
  287MOL    C9340705   3.005   7.810   7.020 -0.2622 -0.1914  0.4431
  287MOL    C9440706   2.955   7.806   6.872  0.3104  0.2508  0.4015
  287MOL    O9540707   2.959   0.012   7.074 -0.2298  0.0413 -0.3853
  287MOL    H9640708   3.113   7.800   7.024 -0.4113 -1.1502  3.0328
  287MOL    H9740709   3.023   7.867   6.813  0.0370 -1.1608 -1.4101
  287MOL    H9840710   2.852   7.842   6.863  0.1902 -0.4828 -1.2479
  287MOL    H9940711   2.960   7.705   6.831  0.2530  0.5796 -0.4056
  287MOL   C10040712   3.050   0.120   7.055 -0.3491  0.5053  0.4960
  287MOL   C10140713   2.963   0.247   7.085 -0.7971  0.1885  0.5112
  287MOL   O10240714   3.151   0.115   7.156 -0.2478 -0.4798  0.3787
  287MOL   H10340715   3.093   0.121   6.955 -0.2919  1.3641  0.5197
  287MOL   H10440716   2.907   0.235   7.178 -1.3373  0.3375  0.2040
  287MOL   H10540717   2.894   0.262   7.003  0.5238  0.6315 -0.5448
  287MOL   H10640718   3.030   0.332   7.076 -0.5366  0.0038  0.6867
  287MOL   C10740719   3.272   0.140   7.104 -0.3106  0.3135 -1.2091
  287MOL   C10840720   3.365   0.125   7.230  0.2285 -0.2713 -0.2995
  287MOL   O10940721   3.313   0.044   7.005  0.2871 -0.1157 -0.0146
  287MOL   H11040722   3.277   0.240   7.062 -1.4208  0.1807 -1.6772
  287MOL   H11140723   3.466   0.150   7.199  0.3227 -1.1068 -0.6763
  287MOL   H11240724   3.368   0.022   7.268  1.3590 -0.2930 -0.4347
  287MOL   H11340725   3.333   0.198   7.304  2.0329 -0.4229  0.6575
  287MOL   C11440726   3.396   0.096   6.908  0.3964 -0.1457 -0.0486
  287MOL   C11540727   3.421   7.893   6.815  0.2039  0.7431  0.8006
  287MOL   O11640728   3.335   0.192   6.826 -0.2503 -0.2936 -0.3438
  287MOL   H11740729   3.489   0.129   6.955 -0.9492 -0.0578  2.6614
  287MOL   H11840730   3.329   7.866   6.763  0.1955  0.8070  0.7818
  287MOL   H11940731   3.458   7.810   6.876  1.7453  0.9792  0.2242
  287MOL   H12040732   3.491   0.001   6.734 -2.6421  1.7751 -1.4746
  287MOL   C12140733   3.422   0.273   6.760 -0.7244  0.0831  0.0785
  287MOL   C12240734   3.329   0.356   6.669  0.1323 -0.6125 -0.4955
  287MOL   O12340735   3.483   0.359   6.856  0.2198  0.1932 -0.1108
  287MOL   H12440736   3.495   0.214   6.705  1.3752  0.5957  2.2529
  287MOL   H12540737   3.377   0.440   6.619 -1.5006  1.8642  1.9137
  287MOL   H12640738   3.250   0.401   6.730  0.7017  0.8980 -0.8305
  287MOL   H12740739   3.279   0.286   6.603  0.7936  0.0257 -1.6883
  287MOL   C12840740   3.621   0.362   6.844 -0.6266  0.5633 -0.4823
  287MOL   C12940741   3.669   0.505   6.875 -0.6849  0.1107  0.0287
  287MOL   O13040742   3.687   0.266   6.925  0.3579 -0.0859  0.0978
  287MOL   H13140743   3.659   0.348   6.743 -0.9730 -1.5891 -0.3428
  287MOL   H13240744   3.637   0.569   6.793 -0.6049 -0.8283 -0.7424
  287MOL   H13340745   3.778   0.512   6.880 -0.6852  2.4595 -2.7046
  287MOL   H13440746   3.614   0.546   6.960  0.7496  0.9022  0.5913
  287MOL   C13540747   3.802   0.220   6.861 -0.6577  0.6675 -0.1074
  287MOL   C13640748   3.895   0.176   6.973  0.0745  0.3458  0.4698
  287MOL   O13740749   3.770   0.121   6.770  0.3513  0.6268 -0.2977
  287MOL   H13840750   3.848   0.300   6.802  0.5696 -1.0695 -1.5462
  287MOL   H13940751   3.935   0.257   7.035 -1.2724  2.3545 -1.2466
  287MOL   H14040752   3.985   0.132   6.931 -0.3965  1.0088 -1.2631
  287MOL   H14140753   3.849   0.105   7.042  1.0664 -0.1518  0.6391
  287MOL   H14240754   3.802   0.149   6.686 -1.8834  0.0134 -1.3828
  288MOL     C140755   5.131   2.326   7.420  0.0990  0.0053  0.4045
  288MOL     C240756   5.192   2.299   7.282  0.2614 -0.5978 -0.5790
  288MOL     O340757   5.229   2.275   7.507 -0.4771  0.3205 -0.0243
  288MOL     H440758   5.034   2.282   7.445  0.8879 -2.3274 -0.4919
  288MOL     H540759   5.108   2.292   7.212  0.3437 -2.2912 -0.5419
  288MOL     H640760   5.248   2.206   7.276 -0.5741 -1.3505  2.3757
  288MOL     H740761   5.260   2.376   7.247 -0.7620  0.4696 -0.2601
  288MOL     H840762   5.123   2.434   7.429 -0.6751 -0.1339  1.5484
  288MOL     C940763   5.216   2.269   7.646  0.4578 -0.1720  0.7934
  288MOL    C1040764   5.102   2.178   7.691  0.2228  0.4468  0.4614
  288MOL    O1140765   5.337   2.249   7.713 -0.1998  0.3316  0.8784
  288MOL    H1240766   5.183   2.371   7.666  1.0494  0.5301 -1.6083
  288MOL    H1340767   5.092   2.196   7.799  0.3089  2.5282  0.1498
  288MOL    H1440768   5.121   2.071   7.685  1.3123  0.6283  0.6089
  288MOL    H1540769   5.007   2.208   7.648  0.3679 -2.1171 -1.7492
  288MOL    C1640770   5.417   2.366   7.713  0.6679 -0.4066 -0.6490
  288MOL    C1740771   5.443   2.401   7.861 -0.8272 -0.1882 -0.2448
  288MOL    O1840772   5.541   2.348   7.663 -0.1927  0.2573 -0.1085
  288MOL    H1940773   5.371   2.454   7.666  0.9087  1.7620  3.0330
  288MOL    H2040774   5.515   2.482   7.872 -1.8048  0.9195 -1.6276
  288MOL    H2140775   5.499   2.322   7.911 -2.0962 -1.0681 -0.1833
  288MOL    H2240776   5.349   2.405   0.002 -0.4277 -1.8003  0.5636
  288MOL    C2340777   5.562   2.311   7.532 -0.5100  0.1594  0.3372
  288MOL    C2440778   5.523   2.425   7.433  0.3614 -0.0242 -0.1657
  288MOL    O2540779   5.698   2.310   7.509 -0.5160  0.0699 -0.0364
  288MOL    H2640780   5.525   2.212   7.504  0.8572 -0.7102  1.5538
  288MOL    H2740781   5.580   2.516   7.448 -0.6605  0.8002 -1.2394
  288MOL    H2840782   5.417   2.448   7.444  0.5072  0.1871  0.8834
  288MOL    H2940783   5.543   2.399   7.329 -1.3485  0.6371 -0.6901
  288MOL    C3040784   5.759   2.210   7.572 -0.0512 -0.5238  0.2111
  288MOL    C3140785   5.784   2.097   7.473  0.0429 -0.0109  0.3403
  288MOL    O3240786   5.878   2.249   7.626 -0.0924 -0.7224 -0.1304
  288MOL    H3340787   5.706   2.160   7.653 -1.7324  0.9722  0.0572
  288MOL    H3440788   5.840   2.143   7.392  0.0446  0.2590  0.4937
  288MOL    H3540789   5.689   2.064   7.432 -0.9895  1.1583  1.7236
  288MOL    H3640790   5.831   2.009   7.518  1.2555 -0.0093 -0.9070
  288MOL    C3740791   5.859   2.335   7.732 -0.3575 -0.0760  0.2924
  288MOL    C3840792   5.908   2.258   7.855 -0.8553  0.4057  0.0299
  288MOL    O3940793   5.938   2.446   7.721 -0.5808 -0.1291 -0.7911
  288MOL    H4040794   5.756   2.363   7.755 -1.1233 -0.8209 -2.1321
  288MOL    H4140795   5.894   2.320   0.030 -2.6385 -0.3586  0.2903
  288MOL    H4240796   6.007   2.215   7.840 -1.5862 -2.0852  2.0992
  288MOL    H4340797   5.848   2.168   7.860 -0.5474  0.2208  0.3664
  288MOL    C4440798   5.899   2.541   7.637  0.0495  0.3570 -0.0301
  288MOL    C4540799   5.845   2.659   7.709  0.7078  0.7737  0.2229
  288MOL    O4640800   6.004   2.584   7.562  0.7377 -0.2311 -0.2653
  288MOL    H4740801   5.819   2.518   7.567 -0.9731 -0.9725  1.5375
  288MOL    H4840802   5.844   2.753   7.653  2.6270  1.6012  1.5280
  288MOL    H4940803   5.904   2.690   7.795  2.2835  0.6666 -0.8041
  288MOL    H5040804   5.741   2.634   7.729  0.5733  1.2115  0.0860
  288MOL    C5140805   6.009   2.519   7.438 -0.1062 -0.5176  0.0372
  288MOL    C5240806   5.975   2.618   7.325  0.4440 -1.1052 -0.5173
  288MOL    O5340807   6.136   2.471   7.403  0.1747 -0.1989 -0.4701
  288MOL    H5440808   5.937   2.437   7.432  1.5441 -1.8865 -1.3024
  288MOL    H5540809   5.978   2.568   7.228  1.4168  1.6041 -1.9424
  288MOL    H5640810   6.055   2.692   7.321 -0.4646 -0.1162 -0.6711
  288MOL    H5740811   5.883   2.669   7.354  2.2563  1.5653  0.7439
  288MOL    C5840812   6.182   2.370   7.484 -0.3679  0.1491  1.1797
  288MOL    C5940813   6.211   2.247   7.402 -0.4801  0.1392 -0.1939
  288MOL    O6040814   6.302   2.407   7.546 -0.0650  0.1922  0.3144
  288MOL    H6140815   6.102   2.336   7.550 -1.0761  0.6877  0.6131
  288MOL    H6240816   6.291   2.184   7.441 -2.2392 -0.0859  3.2352
  288MOL    H6340817   6.252   2.282   7.307  2.2919 -1.5203  0.3126
  288MOL    H6440818   6.115   2.196   7.397 -0.2885 -0.2255 -0.2533
  288MOL    C6540819   6.293   2.471   7.666 -0.2924 -0.5799 -0.8548
  288MOL    C6640820   6.349   2.373   7.774 -0.8769 -0.2440  0.1989
  288MOL    O6740821   6.377   2.589   7.663  0.0493  0.2550  0.1713
  288MOL    H6840822   6.194   2.503   7.698 -0.4482 -1.7406 -0.1353
  288MOL    H6940823   6.457   2.373   7.761 -0.8091 -1.9169  0.6367
  288MOL    H7040824   6.304   2.279   7.740  0.5694 -0.3556 -1.5165
  288MOL    H7140825   6.321   2.393   7.877  0.1613  0.1670  0.4092
  288MOL    C7240826   6.316   2.694   7.600  0.0141 -0.9506  0.3095
  288MOL    C7340827   6.222   2.771   7.697 -0.2653  0.8087 -0.4123
  288MOL    O7440828   6.409   2.782   7.546 -0.4902  0.5285 -0.4245
  288MOL    H7540829   6.253   2.654   7.521 -1.9774 -0.5255  1.6369
  288MOL    H7640830   6.171   2.697   7.759 -1.5723  0.8520 -1.4177
  288MOL    H7740831   6.156   2.835   7.639 -0.3157  1.1913  0.0720
  288MOL    H7840832   6.283   2.834   7.761  1.8346 -1.5930  0.0693
  288MOL    C7940833   6.491   2.725   7.451 -0.0951  0.3941  0.5065
  288MOL    C8040834   6.461   2.780   7.311  0.5894 -0.1823 -0.4214
  288MOL    O8140835   6.625   2.746   7.469  0.0984 -1.1271  0.0861
  288MOL    H8240836   6.467   2.619   7.446  2.7141 -0.2611  0.4966
  288MOL    H8340837   6.352   2.774   7.301  0.4934  1.0641 -0.1190
  288MOL    H8440838   6.520   2.730   7.234  0.9459  0.5794 -0.6409
  288MOL    H8540839   6.474   2.888   7.310  0.8918 -0.1872  1.4098
  288MOL    C8640840   6.673   2.700   7.590 -0.6148  0.8458  0.0741
  288MOL    C8740841   6.703   2.550   7.574  0.2942 -0.1957  0.2332
  288MOL    O8840842   6.791   2.758   7.628  0.4096  0.3490  0.4510
  288MOL    H8940843   6.602   2.707   7.672 -0.0824 -0.6163  0.6952
  288MOL    H9040844   6.765   2.551   7.485 -0.2063  1.4753 -0.1237
  288MOL    H9140845   6.621   2.481   7.553 -1.2309  1.0988  1.7583
  288MOL    H9240846   6.754   2.516   7.664  0.7706 -0.2128 -0.0472
  288MOL    C9340847   6.778   2.898   7.651 -0.4392  0.1349  0.7303
  288MOL    C9440848   6.788   2.920   7.799  0.2741 -0.2891 -0.2145
  288MOL    O9540849   6.882   2.970   7.600 -0.3988 -0.2342 -0.0833
  288MOL    H9640850   6.685   2.939   7.612  0.2671  0.7449 -0.3178
  288MOL    H9740851   6.883   2.881   7.835  0.6656  1.0689  0.2746
  288MOL    H9840852   6.699   2.887   7.853 -1.0265  1.4193 -1.2301
  288MOL    H9940853   6.780   3.026   7.823 -0.5867 -0.6418  1.1332
  288MOL   C10040854   6.866   2.991   7.460 -0.3235 -0.4150 -0.0489
  288MOL   C10140855   6.820   3.138   7.446 -0.0211 -0.2386 -0.1712
  288MOL   O10240856   6.991   2.988   7.392  0.1610  0.2095 -0.4587
  288MOL   H10340857   6.791   2.923   7.420 -1.4759  0.3169  0.8530
  288MOL   H10440858   6.789   3.147   7.342  0.6289  0.6454 -0.2935
  288MOL   H10540859   6.899   3.209   7.470  0.7474 -1.1714  0.1100
  288MOL   H10640860   6.735   3.161   7.510 -0.1847 -2.2618  0.3864
  288MOL   C10740861   7.041   2.862   7.376 -0.3282  0.1544 -0.2600
  288MOL   C10840862   6.981   2.803   7.246  0.0818 -0.4897 -0.3966
  288MOL   O10940863   7.176   2.854   7.345 -0.1298  0.4034 -0.0623
  288MOL   H11040864   7.011   2.795   7.456 -1.2352  1.8716  0.8583
  288MOL   H11140865   6.874   2.787   7.249  0.3178 -2.2477 -0.1947
  288MOL   H11240866   7.028   2.707   7.222  0.1236 -0.8083  0.9224
  288MOL   H11340867   6.997   2.864   7.157 -0.8889 -0.4084 -0.5162
  288MOL   C11440868   7.260   2.917   7.434 -0.2461  0.5770 -0.8803
  288MOL   C11540869   7.291   2.819   7.555  0.0954 -0.3109 -0.1953
  288MOL   O11640870   7.386   2.932   7.367 -0.2742  0.4756  0.3180
  288MOL   H11740871   7.217   3.011   7.469  0.7162  0.5660  0.3846
  288MOL   H11840872   7.351   2.872   7.630 -1.5637 -0.7325  1.4693
  288MOL   H11940873   7.351   2.736   7.520  0.1245  1.1580 -3.7721
  288MOL   H12040874   7.196   2.794   7.603 -0.4207  2.4822  0.3560
  288MOL   C12140875   7.391   3.017   7.260  0.1995  0.2082 -0.8772
  288MOL   C12240876   7.476   3.143   7.311 -0.2189  0.0957 -0.0486
  288MOL   O12340877   7.455   2.965   7.148 -0.1125 -0.3548 -0.2169
  288MOL   H12440878   7.292   3.053   7.232 -0.0535 -0.1656 -0.4658
  288MOL   H12540879   7.557   3.084   7.354 -0.7416 -1.4633 -1.1540
  288MOL   H12640880   7.418   3.198   7.385  2.7907  2.5585  0.5792
  288MOL   H12740881   7.503   3.209   7.229  0.8058 -1.9252 -1.3762
  288MOL   C12840882   7.392   2.847   7.087 -0.3362 -0.1564  0.1873
  288MOL   C12940883   7.347   2.885   6.952 -0.0619 -0.2159 -0.1402
  288MOL   O13040884   7.487   2.746   7.074 -0.2875 -0.3282  0.0083
  288MOL   H13140885   7.303   2.813   7.140  0.4405 -0.9609  0.9938
  288MOL   H13240886   7.269   2.960   6.966 -0.7066 -0.9418  0.1331
  288MOL   H13340887   7.297   2.797   6.912 -1.7965  0.3297  0.7761
  288MOL   H13440888   7.433   2.927   6.899  0.0359 -0.3084 -0.0531
  288MOL   C13540889   7.537   2.702   7.200 -1.1299 -0.2297  0.2558
  288MOL   C13640890   7.577   2.561   7.176  0.0900 -1.1863  0.0236
  288MOL   O13740891   7.649   2.772   7.241 -0.1037 -0.3801 -0.6045
  288MOL   H13840892   7.467   2.704   7.284 -1.1209 -1.4181  0.3087
  288MOL   H13940893   7.487   2.504   7.150 -0.6728 -0.1188  0.2761
  288MOL   H14040894   7.609   2.514   7.270  0.2819 -0.2153  0.4499
  288MOL   H14140895   7.642   2.554   7.089 -0.9230 -1.5244 -0.7160
  288MOL   H14240896   7.614   2.859   7.244  1.1040  0.1632 -1.6821
  289MOL     C140897   7.195   7.345   0.907  0.2560 -0.5068 -0.0973
  289MOL     C240898   7.291   7.272   0.802 -0.6734  0.0770  0.9231
  289MOL     O340899   7.092   7.258   0.950 -0.2190  0.5754 -0.5441
  289MOL     H440900   7.156   7.437   0.864  2.3910  0.1210 -0.7650
  289MOL     H540901   7.339   7.181   0.837  1.0329  1.1082  1.3203
  289MOL     H640902   7.371   7.337   0.769 -0.6942 -0.1016  0.5174
  289MOL     H740903   7.232   7.245   0.714 -0.2379  1.1098  0.3122
  289MOL     H840904   7.249   7.386   0.993 -1.3726 -0.8937  1.1433
  289MOL     C940905   6.997   7.305   1.037  0.8281 -0.0774 -0.0370
  289MOL    C1040906   6.877   7.355   0.956  0.3926 -0.2118 -0.2705
  289MOL    O1140907   6.948   7.205   1.115  0.0741 -0.1891 -0.3367
  289MOL    H1240908   7.024   7.387   1.104  0.3050  0.3129 -0.3066
  289MOL    H1340909   6.904   7.450   0.910  0.9169 -0.7101 -1.0098
  289MOL    H1440910   6.790   7.358   1.021  0.7187 -1.4106  0.2358
  289MOL    H1540911   6.855   7.284   0.877  3.7838 -0.3983 -1.1539
  289MOL    C1640912   7.037   7.150   1.205 -0.5192  0.0078  0.1414
  289MOL    C1740913   6.992   7.191   1.344 -0.0795 -0.0500 -0.7327
  289MOL    O1840914   7.030   7.010   1.203 -0.0775 -0.3351  0.4904
  289MOL    H1940915   7.143   7.176   1.200 -0.3696 -0.5728  0.2217
  289MOL    H2040916   6.995   7.297   1.370 -1.8874 -0.4068  1.0389
  289MOL    H2140917   7.057   7.148   1.420 -1.1406 -0.5338 -0.0722
  289MOL    H2240918   6.890   7.151   1.351  0.9601 -2.7459 -0.6217
  289MOL    C2340919   7.100   6.949   1.099  0.0243 -0.3297 -0.0643
  289MOL    C2440920   7.213   6.874   1.159 -0.2058 -0.2862  0.6588
  289MOL    O2540921   7.026   6.864   1.022  0.0423  0.0167  0.2226
  289MOL    H2640922   7.142   7.027   1.035 -1.6467  2.3078  2.0047
  289MOL    H2740923   7.262   6.822   1.076 -0.5727  1.1776 -0.5044
  289MOL    H2840924   7.179   6.797   1.229 -0.1610  0.6110  1.6808
  289MOL    H2940925   7.284   6.942   1.206  0.3899 -0.2779 -0.2284
  289MOL    C3040926   6.937   6.925   0.929  0.1001  0.6000 -0.3301
  289MOL    C3140927   6.967   6.859   0.793 -0.1221 -0.7482 -0.6991
  289MOL    O3240928   6.803   6.884   0.946 -0.4159  0.5903  0.0144
  289MOL    H3340929   6.949   7.033   0.932  0.9271  0.5218 -0.8655
  289MOL    H3440930   6.905   6.895   0.711  0.9570  2.0416 -0.3425
  289MOL    H3540931   6.938   6.754   0.792  0.2344 -0.8489 -1.5796
  289MOL    H3640932   7.072   6.863   0.762  0.6887 -0.0195  2.0104
  289MOL    C3740933   6.730   6.945   1.045  0.3096 -0.8493  0.2822
  289MOL    C3840934   6.620   7.019   0.972 -0.5869  0.6774  0.0475
  289MOL    O3940935   6.671   6.858   1.131  0.6164  0.1860  0.2273
  289MOL    H4040936   6.799   7.020   1.082  1.8357 -2.4561  0.7813
  289MOL    H4140937   6.560   6.944   0.920  0.4617  0.1128 -0.3469
  289MOL    H4240938   6.661   7.088   0.898 -0.2639  0.9571  0.4803
  289MOL    H4340939   6.557   7.077   1.041 -0.5825  1.2986 -0.4672
  289MOL    C4440940   6.747   6.817   1.236  0.6476 -0.4817 -0.3984
  289MOL    C4540941   6.694   6.871   1.363 -0.2389 -0.3272 -0.3235
  289MOL    O4640942   6.729   6.679   1.242  0.1068 -0.4368  0.6280
  289MOL    H4740943   6.850   6.846   1.215  0.2316  1.5361  0.2131
  289MOL    H4840944   6.594   6.831   1.381  0.6820 -2.8441 -0.6659
  289MOL    H4940945   6.681   6.979   1.350 -0.2406 -0.4290 -1.2362
  289MOL    H5040946   6.761   6.845   1.445 -0.8631 -1.0853 -0.0566
  289MOL    C5140947   6.824   6.602   1.174 -0.3605  0.3907 -0.2999
  289MOL    C5240948   6.906   6.531   1.285  0.6668  0.5615 -0.6331
  289MOL    O5340949   6.768   6.505   1.094 -0.2514  0.1022 -0.1238
  289MOL    H5440950   6.883   6.664   1.106 -0.3631  1.2438  0.4565
  289MOL    H5540951   6.966   6.592   1.353 -0.4059 -1.2773  2.0352
  289MOL    H5640952   6.977   6.453   1.258  0.0507 -0.2741  0.1878
  289MOL    H5740953   6.827   6.483   1.342  0.2029  1.0251 -0.8725
  289MOL    C5840954   6.722   6.556   0.966 -1.1590  0.5900 -0.0911
  289MOL    C5940955   6.807   6.478   0.869  0.1070  0.0022  0.2943
  289MOL    O6040956   6.593   6.516   0.943 -0.2480 -0.0707  0.1239
  289MOL    H6140957   6.730   6.663   0.948 -2.5845  1.1791  2.5338
  289MOL    H6240958   6.801   6.371   0.887 -0.8073  0.3924  2.4917
  289MOL    H6340959   6.913   6.502   0.871  0.6952 -2.5184  0.1217
  289MOL    H6440960   6.780   6.488   0.764  2.3690 -0.7068 -0.3838
  289MOL    C6540961   6.501   6.577   1.020  0.1181 -0.7681  0.5576
  289MOL    C6640962   6.417   6.654   0.921 -0.5329 -0.1906  0.6615
  289MOL    O6740963   6.427   6.480   1.083  0.8421  0.0221  0.3465
  289MOL    H6840964   6.535   6.656   1.087 -1.6398  1.1800 -0.7807
  289MOL    H6940965   6.336   6.705   0.974  0.3294 -0.0642  1.8915
  289MOL    H7040966   6.366   6.582   0.857  0.3820 -1.6605  1.5380
  289MOL    H7140967   6.480   6.728   0.872  0.7108 -0.0324  2.4574
  289MOL    C7240968   6.475   6.440   1.208 -0.0510 -0.2369 -0.1280
  289MOL    C7340969   6.380   6.497   1.315 -0.2669 -0.0734  0.2617
  289MOL    O7440970   6.468   6.303   1.230 -0.0363  0.2968 -0.4464
  289MOL    H7540971   6.573   6.481   1.233 -0.0498  1.2269 -2.4410
  289MOL    H7640972   6.280   6.454   1.308  0.7941 -2.6822  0.5805
  289MOL    H7740973   6.374   6.605   1.304 -0.8748  0.0628  1.6933
  289MOL    H7840974   6.419   6.458   1.409 -1.9547 -2.0731  0.1813
  289MOL    C7940975   6.557   6.238   1.148  0.0548  0.0061 -0.3952
  289MOL    C8040976   6.669   6.175   1.230  0.0715 -0.7417 -0.2281
  289MOL    O8140977   6.505   6.126   1.079 -0.2753  0.2000  0.3789
  289MOL    H8240978   6.588   6.299   1.063  0.5621 -1.3903 -1.2304
  289MOL    H8340979   6.626   6.101   1.298 -4.0312  0.3498 -1.4568
  289MOL    H8440980   6.727   6.246   1.287 -0.1718 -0.5358 -0.2330
  289MOL    H8540981   6.734   6.117   1.165  0.5316  0.3359 -0.7532
  289MOL    C8640982   6.413   6.156   0.972 -0.0242 -0.1958 -0.7402
  289MOL    C8740983   6.478   6.154   0.834  0.0667 -0.3577  0.1167
  289MOL    O8840984   6.319   6.055   0.965 -0.2418 -0.0919 -0.1565
  289MOL    H8940985   6.370   6.250   1.007  1.7724  1.2644 -2.3469
  289MOL    H9040986   6.403   6.193   0.765 -0.5684 -1.8895 -0.0722
  289MOL    H9140987   6.512   6.053   0.811 -3.3688 -1.0503 -2.2957
  289MOL    H9240988   6.563   6.222   0.842 -1.1198  1.2675 -0.8821
  289MOL    C9340989   6.257   6.021   1.083 -0.3094 -1.2215  0.5318
  289MOL    C9440990   6.118   6.083   1.096  0.7243 -0.0562  0.2518
  289MOL    O9540991   6.239   5.886   1.102 -0.3536  0.1289  0.2763
  289MOL    H9640992   6.312   6.063   1.167  1.2822  0.7181 -1.4330
  289MOL    H9740993   6.133   6.191   1.085  1.4047 -0.2687 -1.0308
  289MOL    H9840994   6.065   6.048   1.184  0.9065 -1.9570 -0.3773
  289MOL    H9940995   6.064   6.043   1.010  1.5081 -0.5614 -0.0140
  289MOL   C10040996   6.356   5.820   1.150  0.4293  0.3962 -0.4560
  289MOL   C10140997   6.331   5.780   1.292 -0.3919  0.3810  0.0544
  289MOL   O10240998   6.386   5.704   1.090  0.3687  0.1181 -0.3384
  289MOL   H10340999   6.441   5.889   1.150  2.6089 -2.1969 -1.0321
  289MOL   H10441000   6.253   5.705   1.309  1.7341 -1.3352  2.6025
  289MOL   H10541001   6.280   5.860   1.346  0.0712  0.8220 -0.1638
  289MOL   H10641002   6.419   5.750   1.349 -2.1637 -2.5529  1.3622
  289MOL   C10741003   6.404   5.704   0.958  0.3069  0.5218 -0.5877
  289MOL   C10841004   6.549   5.673   0.933 -0.4637 -0.1888 -0.0048
  289MOL   O10941005   6.332   5.595   0.901 -0.0736 -0.7689 -0.4156
  289MOL   H11041006   6.375   5.794   0.903  1.4011  0.5815 -1.0699
  289MOL   H11141007   6.564   5.651   0.827  1.5851 -0.9162  0.4008
  289MOL   H11241008   6.587   5.600   1.004 -1.2344  1.4049  2.0904
  289MOL   H11341009   6.597   5.771   0.944  0.5118 -0.8842  1.9833
  289MOL   C11441010   6.193   5.617   0.871 -0.5602 -0.0547  0.2084
  289MOL   C11541011   6.178   5.612   0.721 -0.9426 -0.1261 -0.0936
  289MOL   O11641012   6.120   5.518   0.928 -0.4208 -0.6331 -0.4721
  289MOL   H11741013   6.167   5.712   0.917  0.9389  0.4704 -0.0114
  289MOL   H11841014   6.244   5.689   0.681 -1.7390 -0.2408 -1.6467
  289MOL   H11941015   6.077   5.635   0.687 -0.5127  3.5988  0.9125
  289MOL   H12041016   6.222   5.521   0.680 -2.1222 -0.0436 -1.5695
  289MOL   C12141017   6.085   5.536   1.061  0.2994 -0.3575  0.1560
  289MOL   C12241018   5.949   5.596   1.076  1.1878  0.2222  0.2145
  289MOL   O12341019   6.103   5.421   1.141  0.1367  0.0886  0.5156
  289MOL   H12441020   6.157   5.607   1.101 -0.0947 -1.3925  2.7685
  289MOL   H12541021   5.924   5.607   1.182  1.1458  1.3390  0.0912
  289MOL   H12641022   5.874   5.537   1.024 -0.6097  0.7053  2.2121
  289MOL   H12741023   5.954   5.690   1.022 -0.6869  0.0909 -0.2045
  289MOL   C12841024   6.241   5.389   1.171  1.1839 -0.3218  0.2075
  289MOL   C12941025   6.243   5.374   1.322  0.0954  0.3006  0.1304
  289MOL   O13041026   6.279   5.263   1.128  0.5808  0.1301  0.2966
  289MOL   H13141027   6.312   5.465   1.138 -0.9744  1.4520 -0.5203
  289MOL   H13241028   6.206   5.463   1.373  0.7998  0.1009  1.0114
  289MOL   H13341029   6.340   5.353   1.368  0.2097  1.8354  0.5956
  289MOL   H13441030   6.194   5.279   1.343  0.2691 -0.3000 -1.9973
  289MOL   C13541031   6.276   5.243   0.987  0.3464 -0.2771 -0.4637
  289MOL   C13641032   6.390   5.160   0.938  0.5936  0.5204  0.6582
  289MOL   O13741033   6.151   5.190   0.941  0.0356  0.2956 -0.1078
  289MOL   H13841034   6.288   5.340   0.940 -0.2398 -1.1962 -2.5678
  289MOL   H13941035   6.473   5.225   0.967  0.6853  1.4848 -1.5934
  289MOL   H14041036   6.381   5.149   0.830  1.3107  0.6376  0.5822
  289MOL   H14141037   6.396   5.062   0.985 -0.9589 -0.6608 -1.5174
  289MOL   H14241038   6.091   5.263   0.950 -0.4952 -0.1755  0.2440
  290MOL     C141039   0.524   4.822   6.769  0.0072 -0.9693  0.4088
  290MOL     C241040   0.651   4.896   6.751 -0.2201  0.4773 -0.6115
  290MOL     O341041   0.413   4.916   6.776 -0.3113  0.2799  1.0069
  290MOL     H441042   0.532   4.771   6.865  0.1015  0.9574  1.4440
  290MOL     H541043   0.735   4.827   6.741 -1.5206 -1.0491 -1.2920
  290MOL     H641044   0.680   4.962   6.833  1.9929  0.3571 -1.2477
  290MOL     H741045   0.652   4.956   6.660  2.1368  0.2655 -0.7656
  290MOL     H841046   0.510   4.744   6.695 -1.4790 -1.4267  1.1594
  290MOL     C941047   0.298   4.842   6.812  0.2328  0.4494  0.0866
  290MOL    C1041048   0.277   4.856   6.963 -0.5058  0.1174  0.1254
  290MOL    O1141049   0.185   4.889   6.753  0.3056 -0.3440  0.1128
  290MOL    H1241050   0.300   4.737   6.784  1.8594 -0.0611  2.0298
  290MOL    H1341051   0.365   4.902   7.010  1.4644 -2.3394 -1.0367
  290MOL    H1441052   0.270   4.754   7.003 -2.1365 -0.3825 -1.4049
  290MOL    H1541053   0.188   4.917   6.975 -0.6165  0.1609 -0.9439
  290MOL    C1641054   0.187   4.869   6.616  0.2033 -0.8927  0.2144
  290MOL    C1741055   0.091   4.755   6.575 -0.3255  0.1972 -0.0902
  290MOL    O1841056   0.138   4.981   6.546  0.5773  0.0971  0.2815
  290MOL    H1941057   0.285   4.849   6.571  0.5024 -1.0890  0.9410
  290MOL    H2041058   0.050   4.765   6.475  0.1186 -1.1517 -0.4060
  290MOL    H2141059   0.011   4.770   6.648 -0.2592 -0.5082  0.1296
  290MOL    H2241060   0.128   4.656   6.601  1.2256  0.7277 -0.2232
  290MOL    C2341061   0.220   5.099   6.556  0.6356 -0.6269 -0.7782
  290MOL    C2441062   0.329   5.096   6.446 -0.5713  0.7812 -0.1652
  290MOL    O2541063   0.153   5.217   6.529 -0.7703  0.0830  0.1111
  290MOL    H2641064   0.271   5.104   6.652  0.8649 -3.0672 -0.7530
  290MOL    H2741065   0.407   5.023   6.469  0.6325  1.6293 -1.4593
  290MOL    H2841066   0.379   5.192   6.435 -0.6033  0.5486 -2.7477
  290MOL    H2941067   0.276   5.085   6.352 -2.8510  0.5574  1.1072
  290MOL    C3041068   0.045   5.234   6.616 -0.0160 -0.3584  0.1251
  290MOL    C3141069   0.084   5.356   6.700 -0.2365  0.1774 -0.6592
  290MOL    O3241070   7.851   5.280   6.545 -0.7506  0.7002 -0.0376
  290MOL    H3341071   0.009   5.145   6.667  1.4189 -1.6397 -1.0339
  290MOL    H3441072   0.106   5.444   6.640 -1.1924  0.3296 -0.8027
  290MOL    H3541073   0.178   5.335   6.751 -0.8472  0.7382  0.7495
  290MOL    H3641074   0.009   5.370   6.778 -0.5805 -1.1040 -0.7506
  290MOL    C3741075   7.804   5.183   6.452 -0.3367 -0.0805 -0.3143
  290MOL    C3841076   7.685   5.113   6.516  0.5563 -0.0762  0.5356
  290MOL    O3941077   7.760   5.243   6.331 -0.2255  0.5199 -0.8895
  290MOL    H4041078   7.879   5.107   6.431  0.1074 -0.4475  2.5090
  290MOL    H4141079   7.712   5.047   6.598 -3.0741 -3.0755 -0.5375
  290MOL    H4241080   7.634   5.049   6.444 -0.8313  0.8021  0.7272
  290MOL    H4341081   7.618   5.197   6.533  0.8426  0.3326 -0.3388
  290MOL    C4441082   7.868   5.287   6.250  0.1444  0.5122  0.2751
  290MOL    C4541083   7.911   5.176   6.145  0.0924  0.1384  0.3440
  290MOL    O4641084   7.834   5.405   6.181  0.7790 -0.4210 -0.3240
  290MOL    H4741085   0.040   5.318   6.308 -0.3906  3.5560 -0.4773
  290MOL    H4841086   7.831   5.163   6.072  1.4222 -2.9499 -0.6561
  290MOL    H4941087   0.027   5.083   6.193  0.8281  0.2318  0.0802
  290MOL    H5041088   0.085   5.207   6.088  0.8070  1.8335  2.3112
  290MOL    C5141089   7.804   5.512   6.266  0.0393  0.9158  0.1882
  290MOL    C5241090   7.913   5.619   6.243  0.1918 -0.0089 -0.1113
  290MOL    O5341091   7.686   5.574   6.228 -0.2659  0.2856 -0.3404
  290MOL    H5441092   7.805   5.491   6.372  2.0242 -0.1333 -0.0104
  290MOL    H5541093   7.913   5.656   6.140 -1.1647  0.9261  0.2122
  290MOL    H5641094   0.094   5.583   6.283  1.5503  0.0785 -3.0947
  290MOL    H5741095   7.893   5.707   6.304  0.9612 -0.7634  1.2548
  290MOL    C5841096   7.581   5.511   6.297  0.8181  0.0159 -0.3607
  290MOL    C5941097   7.544   5.603   6.417 -0.4089 -0.2172 -0.1957
  290MOL    O6041098   7.465   5.503   6.215 -0.3793 -0.3264 -0.7953
  290MOL    H6141099   7.603   5.411   6.332  0.0646 -0.2545 -0.6594
  290MOL    H6241100   7.559   5.708   6.393  0.4958 -0.1365  0.6505
  290MOL    H6341101   7.623   5.594   6.492 -0.9772 -0.2575  0.4032
  290MOL    H6441102   7.447   5.585   6.462 -0.1109 -1.3360  0.0115
  290MOL    C6541103   7.473   5.375   6.143  0.3986 -0.2933 -0.0041
  290MOL    C6641104   7.368   5.283   6.206  0.5483 -0.2354  0.3776
  290MOL    O6741105   7.442   5.391   6.007  0.1432  0.4823 -0.1707
  290MOL    H6841106   7.568   5.322   6.154 -0.3147 -2.0844 -2.2631
  290MOL    H6941107   7.378   5.286   6.314 -0.2609  1.0251  0.4288
  290MOL    H7041108   7.398   5.185   6.169  1.3783 -0.2616  1.1104
  290MOL    H7141109   7.269   5.313   6.170  0.9406 -0.6361 -1.0781
  290MOL    C7241110   7.534   5.461   5.937 -0.2795 -0.4789  0.1904
  290MOL    C7341111   7.594   5.361   5.841 -0.2703  0.0069  0.1308
  290MOL    O7441112   7.472   5.558   5.850 -0.9214 -0.0280  0.1753
  290MOL    H7541113   7.609   5.511   5.999 -0.7015  1.4814 -0.8280
  290MOL    H7641114   7.682   5.403   5.793  0.0489 -1.4243 -0.5850
  290MOL    H7741115   7.520   5.323   5.770 -1.0482 -0.4297  1.1569
  290MOL    H7841116   7.629   5.273   5.894 -1.4346 -1.9679 -2.2689
  290MOL    C7941117   7.423   5.666   5.923  0.2324  0.7117 -0.2710
  290MOL    C8041118   7.528   5.781   5.906  0.2920 -0.8844  0.9751
  290MOL    O8141119   7.294   5.714   5.876  0.0349 -0.3026 -0.1586
  290MOL    H8241120   7.412   5.652   6.031 -0.4934 -1.1811 -0.5820
  290MOL    H8341121   7.628   5.739   5.913 -0.1177 -2.2849 -1.2335
  290MOL    H8441122   7.510   5.856   5.983  1.0907 -0.1699  0.4763
  290MOL    H8541123   7.529   5.824   5.806 -0.9309 -0.6034  1.0817
  290MOL    C8641124   7.194   5.613   5.875  0.6675 -0.1839 -0.1525
  290MOL    C8741125   7.137   5.617   6.013  0.5014 -0.1686  0.3806
  290MOL    O8841126   7.094   5.642   5.776 -0.2834  0.1043  0.3686
  290MOL    H8941127   7.242   5.517   5.852 -0.5031 -0.2850 -2.2948
  290MOL    H9041128   7.046   5.560   5.999  0.3517  0.3445 -0.8134
  290MOL    H9141129   7.111   5.718   6.045  0.3600 -0.1513  0.2143
  290MOL    H9241130   7.196   5.558   6.083  0.8065  0.4781  0.6736
  290MOL    C9341131   7.143   5.635   5.646 -0.0438 -0.1347  0.6946
  290MOL    C9441132   7.077   5.517   5.573 -0.3942 -0.2083 -0.7034
  290MOL    O9541133   7.114   5.754   5.582 -0.0747  0.1236 -0.2902
  290MOL    H9641134   7.252   5.623   5.645 -0.0904 -0.6925  2.3478
  290MOL    H9741135   7.111   5.509   5.470  2.6246  0.1996  0.2080
  290MOL    H9841136   6.969   5.524   5.588 -0.4406 -0.5365 -0.8912
  290MOL    H9941137   7.111   5.429   5.628  1.0851  0.6769 -0.1711
  290MOL   C10041138   7.220   5.853   5.591  0.0525  0.0835  0.5489
  290MOL   C10141139   7.269   5.871   5.446 -0.5990  0.1354 -0.0892
  290MOL   O10241140   7.169   5.983   5.625  0.1302  0.3345 -0.0839
  290MOL   H10341141   7.302   5.835   5.660 -1.1145  0.4797  2.0768
  290MOL   H10441142   7.183   5.890   5.381 -1.2874 -0.4328  0.6397
  290MOL   H10541143   7.329   5.782   5.425 -1.6820 -0.5204 -0.4747
  290MOL   H10641144   7.322   5.966   5.441 -0.6941  0.2237  0.6086
  290MOL   C10741145   7.091   5.978   5.745 -0.9566 -0.0354 -0.0594
  290MOL   C10841146   7.174   6.016   5.865  0.4293  0.6472  0.3414
  290MOL   O10941147   6.993   6.071   5.733  0.5412 -0.2078 -0.6630
  290MOL   H11041148   7.045   5.883   5.771  1.1058 -0.7829  0.9454
  290MOL   H11141149   7.118   6.000   5.957  0.5140 -0.0701  0.2711
  290MOL   H11241150   7.209   6.119   5.858 -0.9174  1.0317 -0.6939
  290MOL   H11341151   7.265   5.956   5.877  0.8186  1.3098  0.7957
  290MOL   C11441152   6.879   6.010   5.684  0.2868 -0.1949 -0.9001
  290MOL   C11541153   6.785   5.963   5.793 -0.1829 -0.0430  0.6436
  290MOL   O11641154   6.801   6.106   5.614 -0.3118  0.3122 -0.3131
  290MOL   H11741155   6.891   5.929   5.612  0.0742 -2.2409  1.2921
  290MOL   H11841156   6.830   5.871   5.830 -0.3173  0.6964  2.6794
  290MOL   H11941157   6.689   5.950   5.744  0.6770 -2.4538 -0.4970
  290MOL   H12041158   6.783   6.037   5.872 -1.4264  1.5661 -0.8576
  290MOL   C12141159   6.835   6.131   5.481 -0.0246  0.5005  0.2354
  290MOL   C12241160   6.721   6.075   5.397  0.0410  0.5332 -0.1813
  290MOL   O12341161   6.844   6.265   5.453 -0.6488  0.0309  0.1674
  290MOL   H12441162   6.927   6.082   5.449 -0.1339 -0.2238  0.9857
  290MOL   H12541163   6.749   6.079   5.291  2.0326  0.2239  0.3167
  290MOL   H12641164   6.628   6.126   5.422  0.1588  0.4607  0.4096
  290MOL   H12741165   6.715   5.970   5.425  1.8937  0.7449  1.1086
  290MOL   C12841166   6.957   6.326   5.510 -0.6112 -0.1103 -0.3694
  290MOL   C12941167   7.059   6.351   5.401 -0.2189  0.1113  0.2478
  290MOL   O13041168   6.928   6.446   5.568 -0.1569 -0.3630  0.9355
  290MOL   H13141169   7.007   6.266   5.586  0.6724  1.3876 -0.0062
  290MOL   H13241170   7.082   6.257   5.351  1.5783  1.1626 -0.9439
  290MOL   H13341171   7.149   6.399   5.438  0.6333 -1.1189 -0.2335
  290MOL   H13441172   7.027   6.423   5.326  0.7841 -0.7688 -1.0336
  290MOL   C13541173   6.847   6.440   5.685 -0.4654  0.2416 -1.0269
  290MOL   C13641174   6.885   6.559   5.784  0.0454 -0.9506 -0.5794
  290MOL   O13741175   6.710   6.456   5.651 -0.0883 -0.4222 -0.0585
  290MOL   H13841176   6.853   6.342   5.733  1.5135  1.0340  0.3934
  290MOL   H13941177   6.988   6.552   5.818 -0.0476  2.2403  0.5134
  290MOL   H14041178   6.823   6.578   5.872  0.2081 -0.4524 -0.5748
  290MOL   H14141179   6.874   6.653   5.730 -1.1578 -0.5751  0.2867
  290MOL   H14241180   6.682   6.383   5.600 -1.6511 -1.3966  2.1277
  291MOL     C141181   3.001   7.372   0.285 -0.1071 -0.4144  0.1368
  291MOL     C241182   2.942   7.358   0.431 -0.3405 -0.1589  0.2787
  291MOL     O341183   3.128   7.442   0.285 -0.1490 -0.4109 -0.3813
  291MOL     H441184   2.928   7.426   0.224 -0.3635 -2.2037 -1.2058
  291MOL     H541185   2.947   7.448   0.493 -2.3307 -1.7391  2.8082
  291MOL     H641186   2.998   7.291   0.497 -0.4218 -1.7135 -1.2212
  291MOL     H741187   2.838   7.328   0.434 -0.4468  0.1991  0.2490
  291MOL     H841188   2.999   7.275   0.235 -1.6934 -0.7236  0.7651
  291MOL     C941189   3.189   7.443   0.159 -0.2940 -0.2381  0.5717
  291MOL    C1041190   3.305   7.543   0.175 -1.0151 -0.5009  0.0634
  291MOL    O1141191   3.242   7.319   0.129 -0.0627  0.2405  0.2446
  291MOL    H1241192   3.120   7.472   0.080  2.4931  0.3134 -1.7538
  291MOL    H1341193   3.381   7.498   0.239  0.8323  1.0424 -0.9959
  291MOL    H1441194   3.280   7.631   0.233 -0.2811  0.5446 -1.1881
  291MOL    H1541195   3.338   7.573   0.075  1.2203  1.2972  1.3194
  291MOL    C1641196   3.271   7.313   7.910 -1.0754  0.0532 -0.1215
  291MOL    C1741197   3.360   7.189   7.905  1.0771 -0.3441  0.3133
  291MOL    O1841198   3.155   7.303   7.829 -0.0414  0.1212 -0.1778
  291MOL    H1941199   3.332   7.397   7.879  0.1152 -0.4677  0.7845
  291MOL    H2041200   3.391   7.167   7.803  3.0173 -0.3094  0.8843
  291MOL    H2141201   3.301   7.106   0.029  1.2585 -1.0872 -0.9934
  291MOL    H2241202   3.449   7.206   0.051  2.4195  0.7850 -1.9050
  291MOL    C2341203   3.172   7.357   7.702  0.1412 -0.1592 -0.2418
  291MOL    C2441204   3.070   7.293   7.612 -0.0732  0.1526  0.5146
  291MOL    O2541205   3.138   7.496   7.701 -0.1896 -0.2852 -0.0022
  291MOL    H2641206   3.275   7.345   7.667  1.5158  0.3326  3.2978
  291MOL    H2741207   3.119   7.210   7.561  0.7747 -0.4155  2.2090
  291MOL    H2841208   3.042   7.367   7.537 -0.6889  0.4951  1.0751
  291MOL    H2941209   2.989   7.245   7.667 -0.5146 -1.7392 -1.7236
  291MOL    C3041210   3.225   7.594   7.658 -0.1270  0.7878 -0.3879
  291MOL    C3141211   3.147   7.725   7.652  0.5453 -0.0531 -0.0324
  291MOL    O3241212   3.329   7.610   7.745 -0.3397 -0.5563  0.2293
  291MOL    H3341213   3.261   7.576   7.557  0.7017 -2.1157  0.3868
  291MOL    H3441214   3.134   7.763   7.753  0.8121 -0.3164  0.1047
  291MOL    H3541215   3.052   7.716   7.599  1.1530  1.6101 -1.4559
  291MOL    H3641216   3.200   7.796   7.588  2.7360 -1.1669  0.4757
  291MOL    C3741217   3.454   7.606   7.687 -0.2208  0.2038 -0.0037
  291MOL    C3841218   3.547   7.694   7.778 -0.0788 -0.1639  0.0109
  291MOL    O3941219   3.494   7.476   7.702  0.3192  0.0027 -0.0776
  291MOL    H4041220   3.451   7.647   7.586  1.4870 -1.0749 -0.5991
  291MOL    H4141221   3.648   7.692   7.737  0.4177 -0.0577  1.1926
  291MOL    H4241222   3.534   7.661   7.881 -0.5650  0.2127  0.0689
  291MOL    H4341223   3.513   7.797   7.768  3.0605  0.8486 -0.5867
  291MOL    C4441224   3.539   7.428   7.583  0.4526  0.4707  0.0866
  291MOL    C4541225   3.605   7.294   7.617 -0.1724 -0.2465  0.1792
  291MOL    O4641226   3.438   7.412   7.490 -0.4856  0.4899  0.0225
  291MOL    H4741227   3.622   7.489   7.547  2.1851 -2.1169 -0.5062
  291MOL    H4841228   3.682   7.305   7.694 -0.8319 -2.7964  1.2532
  291MOL    H4941229   3.662   7.248   7.536  1.7570 -0.3916  1.5681
  291MOL    H5041230   3.525   7.230   7.655 -0.0436 -1.6491 -1.8216
  291MOL    C5141231   3.481   7.386   7.355  0.3588  0.1119 -0.4367
  291MOL    C5241232   3.382   7.289   7.298  0.8363  0.6390 -0.0499
  291MOL    O5341233   3.469   7.502   7.279  0.8146  0.1913  0.2878
  291MOL    H5441234   3.586   7.354   7.354  0.5595  0.7433  0.1648
  291MOL    H5541235   3.284   7.335   7.302 -0.4638 -2.0989  1.0122
  291MOL    H5641236   3.381   7.196   7.355  0.4201  1.1114  0.7185
  291MOL    H5741237   3.406   7.262   7.195 -0.3495  3.1510 -1.0238
  291MOL    C5841238   3.588   7.554   7.240  0.3307 -0.5725 -0.5472
  291MOL    C5941239   3.559   7.680   7.152 -0.3402 -0.0863  0.7611
  291MOL    O6041240   3.674   7.595   7.346  0.0836 -0.3012 -0.2119
  291MOL    H6141241   3.639   7.476   7.184  0.7218  0.5299 -1.7477
  291MOL    H6241242   3.479   7.670   7.079 -0.7897  0.2739  1.2022
  291MOL    H6341243   3.647   7.701   7.090 -0.5643 -2.8106 -0.5940
  291MOL    H6441244   3.533   7.768   7.210  1.4330  0.8637  0.1554
  291MOL    C6541245   3.810   7.566   7.319 -0.2058  0.1214 -0.0214
  291MOL    C6641246   3.889   7.663   7.403  0.4525 -0.1840  0.7239
  291MOL    O6741247   3.838   7.440   7.357  0.0856  0.3495  0.3193
  291MOL    H6841248   3.823   7.580   7.212  2.1362  0.5709  0.3048
  291MOL    H6941249   3.882   7.768   7.371 -2.1107 -0.7076 -0.5548
  291MOL    H7041250   3.992   7.629   7.399 -0.0971 -1.9930  1.3792
  291MOL    H7141251   3.850   7.658   7.504 -2.2834  1.2807 -0.2085
  291MOL    C7241252   3.945   7.382   7.295 -0.3723 -0.0549 -0.2836
  291MOL    C7341253   3.950   7.250   7.366  0.3994 -0.0871  0.7715
  291MOL    O7441254   3.924   7.357   7.167  0.3703 -0.5189  0.6534
  291MOL    H7541255   4.034   7.438   7.327 -0.6807 -0.7635  1.9117
  291MOL    H7641256   3.854   7.202   7.346  1.0226 -1.4130  0.8755
  291MOL    H7741257   3.980   7.254   7.471  0.8110  0.5467  0.6288
  291MOL    H7841258   4.031   7.186   7.329 -0.3244 -0.3256 -0.4088
  291MOL    C7941259   4.036   7.397   7.089  0.3438 -0.9024 -0.9357
  291MOL    C8041260   4.009   7.348   6.950 -0.3473 -0.6747  0.7296
  291MOL    O8141261   4.040   7.537   7.084 -0.7967  0.1524  0.0895
  291MOL    H8241262   4.121   7.339   7.123 -0.6479 -1.3836  0.7672
  291MOL    H8341263   4.066   7.395   6.870 -0.6283 -0.3222  0.7357
  291MOL    H8441264   3.902   7.362   6.938 -0.2114 -0.6587 -0.4524
  291MOL    H8541265   4.026   7.241   6.942 -0.5449 -0.7116  0.8146
  291MOL    C8641266   4.165   7.598   7.106 -0.3814 -0.1598 -0.2537
  291MOL    C8741267   4.136   7.744   7.058  0.0084  0.6727 -0.4989
  291MOL    O8841268   4.181   7.610   7.247  0.1360  0.0978 -0.3653
  291MOL    H8941269   4.251   7.548   7.060  1.4595  1.8649  0.8955
  291MOL    H9041270   4.222   7.808   7.073 -0.0687  0.8768 -0.9530
  291MOL    H9141271   4.054   7.783   7.118  1.2229  2.0616  0.2964
  291MOL    H9241272   4.109   7.750   6.953  1.1544  0.0616 -0.8418
  291MOL    C9341273   4.303   7.555   7.289  0.3481 -0.1917 -0.1694
  291MOL    C9441274   4.310   7.580   7.438 -0.0653  0.1317 -0.0097
  291MOL    O9541275   4.294   7.419   7.278 -0.0052 -0.0409  0.0286
  291MOL    H9641276   4.387   7.605   7.242 -0.1991 -0.7937 -1.7974
  291MOL    H9741277   4.404   7.535   7.471  0.7278  0.7191 -1.4295
  291MOL    H9841278   4.229   7.516   7.475  1.2135 -2.0761 -0.9401
  291MOL    H9941279   4.296   7.684   7.466 -3.3869 -0.1432 -0.4444
  291MOL   C10041280   4.401   7.351   7.226 -0.1474 -0.5082 -0.1455
  291MOL   C10141281   4.438   7.231   7.315  0.4364 -0.0489  0.2682
  291MOL   O10241282   4.366   7.292   7.099  0.0293 -0.5841  0.7125
  291MOL   H10341283   4.484   7.420   7.221 -0.6915  0.1983  0.3781
  291MOL   H10441284   4.368   7.150   7.297 -1.4881  1.6853 -0.2066
  291MOL   H10541285   4.438   7.274   7.415  0.2853  0.2486  0.1427
  291MOL   H10641286   4.535   7.198   7.278  1.1642  1.2195  0.9830
  291MOL   C10741287   4.471   7.307   7.002  0.0419 -0.0508  0.2502
  291MOL   C10841288   4.415   7.244   6.872 -0.3060 -0.1548 -0.0895
  291MOL   O10941289   4.473   7.447   6.970  0.2883 -0.1511  0.0658
  291MOL   H11041290   4.565   7.259   7.028  0.4873 -0.1125 -1.4180
  291MOL   H11141291   4.328   7.305   6.850 -0.6659 -0.4210  0.5656
  291MOL   H11241292   4.379   7.144   6.894  0.5250 -0.4330  0.0430
  291MOL   H11341293   4.491   7.238   6.794  0.1062 -0.0895  0.3015
  291MOL   C11441294   4.598   7.504   6.970 -0.4220  0.0618 -0.6700
  291MOL   C11541295   4.594   7.627   6.884  0.1972 -0.2147  0.5154
  291MOL   O11641296   4.651   7.533   7.096 -0.1590 -0.5266  0.6001
  291MOL   H11741297   4.666   7.435   6.920  2.0714  1.6746  0.4058
  291MOL   H11841298   4.589   7.590   6.781  0.3583 -2.3451  1.2441
  291MOL   H11941299   4.690   7.675   6.900 -1.1493  3.5009 -1.9390
  291MOL   H12041300   4.506   7.684   6.915 -1.2504 -1.2757 -1.4968
  291MOL   C12141301   4.791   7.511   7.112  0.0017  0.4594 -0.1886
  291MOL   C12241302   4.834   7.568   7.246 -0.1363  0.1777 -0.0758
  291MOL   O12341303   4.824   7.373   7.113 -0.4051  0.3777  0.4802
  291MOL   H12441304   4.843   7.572   7.038 -0.4329  0.9585 -0.0859
  291MOL   H12541305   4.839   7.677   7.246  0.8614  0.1430  0.8662
  291MOL   H12641306   4.934   7.534   7.273 -1.1269 -1.3961  1.7830
  291MOL   H12741307   4.756   7.537   7.316  0.4893 -1.8026 -0.2083
  291MOL   C12841308   4.920   7.329   7.021  0.0743 -0.0147  0.4621
  291MOL   C12941309   4.958   7.186   7.054 -0.6281  0.6170  0.5769
  291MOL   O13041310   4.859   7.331   6.893 -0.2516  0.2739  0.0376
  291MOL   H13141311   5.003   7.399   7.029  0.2353 -0.1979  0.3914
  291MOL   H13241312   4.866   7.133   7.027 -0.3213  0.8652 -0.9921
  291MOL   H13341313   4.993   7.180   7.157 -0.1155  0.6128  0.4017
  291MOL   H13441314   5.042   7.148   6.997 -0.5834  0.6245  0.6398
  291MOL   C13541315   4.943   7.342   6.784 -0.1261  0.3282  0.5217
  291MOL   C13641316   4.849   7.340   6.668 -0.5284  0.0056 -0.2144
  291MOL   O13741317   5.018   7.453   6.784  0.2859 -0.0233 -0.3206
  291MOL   H13841318   5.004   7.252   6.788 -2.3015 -1.3177 -1.4395
  291MOL   H13941319   4.828   7.234   6.653 -2.6652  0.5389 -1.0579
  291MOL   H14041320   4.896   7.368   6.574 -1.1647  2.2754  0.1267
  291MOL   H14141321   4.761   7.400   6.687 -1.0825 -1.3646  1.7143
  291MOL   H14241322   5.103   7.431   6.749  1.3524  2.7084  0.4554
  292MOL     C141323   4.991   6.220   7.705  0.5195 -0.1967  0.4112
  292MOL     C241324   5.073   6.349   7.717 -0.1887  0.3946  0.5409
  292MOL     O341325   5.074   6.139   7.623 -0.3477  0.4626  0.6470
  292MOL     H441326   4.901   6.230   7.645 -1.4725  1.8328  3.6236
  292MOL     H541327   5.007   6.425   7.760 -1.3670  1.4746 -2.9644
  292MOL     H641328   5.119   6.387   7.626 -0.2798  2.6615  1.3977
  292MOL     H741329   5.155   6.338   7.788  0.5295 -0.2492 -0.3899
  292MOL     H841330   4.977   6.171   7.801  1.0930 -1.6807 -0.2390
  292MOL     C941331   5.040   6.006   7.626  0.5764 -0.3854  0.1223
  292MOL    C1041332   4.968   5.976   7.491 -0.3846  0.1356 -0.1461
  292MOL    O1141333   5.152   5.921   7.642  0.0426  0.4148 -0.0266
  292MOL    H1241334   4.965   5.980   7.702 -1.7184 -0.3444 -2.0832
  292MOL    H1341335   4.869   6.021   7.491 -0.8228 -0.7782  1.2794
  292MOL    H1441336   4.952   5.869   7.475  0.7592  0.3175 -2.6623
  292MOL    H1541337   5.028   6.012   7.408 -0.9802  1.0471 -0.1743
  292MOL    C1641338   5.207   5.925   7.771 -0.7233 -0.0250  0.6896
  292MOL    C1741339   5.137   5.827   7.863 -0.0761  0.9263 -0.7793
  292MOL    O1841340   5.335   5.879   7.766 -0.8266 -0.5403  0.5501
  292MOL    H1941341   5.204   6.030   7.799  0.6959  1.0299 -2.8863
  292MOL    H2041342   5.183   5.827   0.048  1.5955  0.8384 -1.5422
  292MOL    H2141343   5.154   5.727   7.823 -1.9674  0.3079 -0.1338
  292MOL    H2241344   5.028   5.838   7.865 -0.0583  1.2461  2.5962
  292MOL    C2341345   5.430   5.964   7.712 -0.2459 -0.8927  0.6478
  292MOL    C2441346   5.496   6.054   7.818  0.3882 -0.2024 -0.0214
  292MOL    O2541347   5.532   5.885   7.667 -0.3172 -1.1545  0.7328
  292MOL    H2641348   5.395   6.028   7.630  0.5967  0.5820  1.4084
  292MOL    H2741349   5.505   6.001   7.913 -1.5394 -1.4509 -0.5061
  292MOL    H2841350   5.438   6.143   7.845  2.6826  1.0213  1.0055
  292MOL    H2941351   5.599   6.076   7.792  1.3835 -4.5162 -0.0818
  292MOL    C3041352   5.501   5.808   7.556  1.1562 -0.5536 -0.5724
  292MOL    C3141353   5.537   5.893   7.431 -0.1163 -0.1197  0.0307
  292MOL    O3241354   5.575   5.690   7.548  0.5047  0.1629 -0.4843
  292MOL    H3341355   5.396   5.786   7.537  0.9704  1.3616 -1.9396
  292MOL    H3441356   5.515   5.840   7.339  1.0375  0.3629 -0.5293
  292MOL    H3541357   5.642   5.923   7.440 -0.4551  1.0325  0.1926
  292MOL    H3641358   5.475   5.983   7.431  0.1101  0.0379  0.3243
  292MOL    C3741359   5.529   5.590   7.638 -0.2155 -0.3307  0.2372
  292MOL    C3841360   5.520   5.463   7.555  0.7673  0.0187 -0.1529
  292MOL    O3941361   5.608   5.570   7.746 -0.2736  0.4554 -0.4940
  292MOL    H4041362   5.427   5.611   7.673  1.2491  4.6326  2.0035
  292MOL    H4141363   5.617   5.446   7.508  1.3266 -0.9724  1.3473
  292MOL    H4241364   5.444   5.470   7.477  0.6154 -2.4691 -0.2583
  292MOL    H4341365   5.491   5.385   7.625  2.1769  1.6582  2.3318
  292MOL    C4441366   5.562   5.624   7.867  0.7536 -0.1051  0.2185
  292MOL    C4541367   5.465   5.522   0.023 -0.0035  0.0630  0.4902
  292MOL    O4641368   5.680   5.631   0.042  0.0397  0.3589  0.1781
  292MOL    H4741369   5.526   5.726   7.860  0.3614 -0.3062 -0.8118
  292MOL    H4841370   5.512   5.431   0.061  3.1613  1.2060 -0.5707
  292MOL    H4941371   5.375   5.502   7.879  0.9035 -4.6322  0.4684
  292MOL    H5041372   5.434   5.573   0.114  0.8919  0.1722  0.7422
  292MOL    C5141373   5.765   5.738   7.907  0.4129  0.3019 -0.1310
  292MOL    C5241374   5.752   5.853   0.096 -0.2832 -0.0120 -0.1939
  292MOL    O5341375   5.894   5.701   7.911 -0.0477 -0.4008  0.0571
  292MOL    H5441376   5.731   5.783   7.814  0.5437  0.8310  0.0773
  292MOL    H5541377   5.647   5.882   0.101  0.2039  1.7773  0.0515
  292MOL    H5641378   5.815   5.934   0.058 -1.1918  0.4217 -0.7984
  292MOL    H5741379   5.794   5.822   0.191  3.1439 -0.5829 -1.8154
  292MOL    C5841380   5.929   5.612   7.806 -0.3143  0.8143  0.2835
  292MOL    C5941381   6.060   5.662   7.754  0.1477 -0.5497 -0.4171
  292MOL    O6041382   5.967   5.486   7.857  0.0804 -0.8118 -0.3144
  292MOL    H6141383   5.858   5.600   7.724  1.2632  2.9211 -1.4750
  292MOL    H6241384   6.117   5.584   7.704  0.5752 -0.6570  0.2256
  292MOL    H6341385   6.116   5.705   7.837 -2.4209 -0.2354  1.2074
  292MOL    H6441386   6.042   5.745   7.686 -1.1909  1.5786  2.4204
  292MOL    C6541387   5.869   5.386   7.856 -0.3591  0.3838 -0.3352
  292MOL    C6641388   5.848   5.333   7.715 -0.3036 -0.4031  0.0490
  292MOL    O6741389   5.904   5.279   0.023  0.7036  0.0872 -0.2005
  292MOL    H6841390   5.770   5.422   7.886 -1.0440 -1.0291 -0.8488
  292MOL    H6941391   5.808   5.404   7.643  2.0416 -0.4385 -1.3617
  292MOL    H7041392   5.778   5.249   7.722  1.3514 -1.9164 -1.0288
  292MOL    H7141393   5.934   5.286   7.666 -0.2138  0.3504 -0.5287
  292MOL    C7241394   5.918   5.313   0.156 -0.1670 -0.8845 -0.6035
  292MOL    C7341395   5.793   5.249   0.231 -0.3695 -0.1039  0.1534
  292MOL    O7441396   6.033   5.257   0.215  0.0580 -0.2652  0.1412
  292MOL    H7541397   5.913   5.421   0.167 -0.1545 -0.9263 -0.1891
  292MOL    H7641398   5.812   5.263   0.338 -1.9283 -1.7600  0.6712
  292MOL    H7741399   5.778   5.150   0.188 -1.5901 -0.5073  1.4720
  292MOL    H7841400   5.706   5.308   0.203  0.0314  0.5431  0.2615
  292MOL    C7941401   6.149   5.313   0.178 -0.5190  0.6221 -0.2333
  292MOL    C8041402   6.199   5.387   0.304  0.5825  0.1506 -0.0023
  292MOL    O8141403   6.246   5.218   0.148 -0.0341  0.1568  0.3150
  292MOL    H8241404   6.139   5.391   0.103 -1.5047  0.8710  0.1417
  292MOL    H8341405   6.286   5.449   0.282  0.1397 -0.1729 -2.8511
  292MOL    H8441406   6.230   5.314   0.379  1.0791  2.1206  1.7318
  292MOL    H8541407   6.120   5.449   0.346 -0.5413 -0.4051 -1.2426
  292MOL    C8641408   6.228   5.134   0.036 -0.0681  0.3037  0.0478
  292MOL    C8741409   6.340   5.176   7.859 -0.4148 -0.0704  0.1586
  292MOL    O8841410   6.227   4.998   0.057 -0.2517  0.1564  0.3404
  292MOL    H8941411   6.141   5.150   7.886  0.9206 -0.1583 -1.4370
  292MOL    H9041412   6.434   5.138   7.899 -0.0264 -1.6593 -2.1536
  292MOL    H9141413   6.343   5.285   7.854  2.0193 -0.1716 -1.6322
  292MOL    H9241414   6.325   5.138   7.757  0.9983 -1.0166  0.2879
  292MOL    C9341415   6.097   4.944   0.101  0.4736 -0.6869  0.0073
  292MOL    C9441416   6.060   4.823   0.012 -0.5134 -0.5464 -0.7192
  292MOL    O9541417   6.101   4.887   0.230 -0.1259 -0.1996  0.1261
  292MOL    H9641418   6.011   5.010   0.107  0.6257 -0.5952  1.2526
  292MOL    H9741419   5.975   4.774   0.059 -0.0704  0.2412  0.9257
  292MOL    H9841420   6.152   4.765   0.011 -0.4924 -0.5188 -0.4427
  292MOL    H9941421   6.037   4.863   7.827 -0.1701  2.8461  0.5290
  292MOL   C10041422   6.124   4.974   0.336  0.5142  0.1808  0.2379
  292MOL   C10141423   5.992   4.973   0.414  0.0275 -0.8039 -0.2395
  292MOL   O10241424   6.221   4.917   0.421 -0.4810  0.1114 -0.2309
  292MOL   H10341425   6.148   5.077   0.308 -1.4831 -0.1570 -2.9368
  292MOL   H10441426   5.916   5.035   0.366  0.5803 -0.4914 -0.7215
  292MOL   H10541427   6.012   5.007   0.515  0.2111  0.9594 -0.8469
  292MOL   H10641428   5.957   4.875   0.444 -1.9557  0.9905  3.6718
  292MOL   C10741429   6.342   4.987   0.418  1.1548 -0.1974 -0.7850
  292MOL   C10841430   6.342   5.064   0.547 -1.0852 -0.2719  0.1335
  292MOL   O10941431   6.455   4.903   0.410 -0.2542 -0.0996 -0.1064
  292MOL   H11041432   6.347   5.054   0.332 -1.3700  0.5627 -0.3955
  292MOL   H11141433   6.333   5.011   0.642  1.1745  1.1780  1.2073
  292MOL   H11241434   6.278   5.151   0.533  1.8953  2.2226  1.1991
  292MOL   H11341435   6.443   5.105   0.559 -0.6885 -1.1268 -0.2723
  292MOL   C11441436   6.471   4.839   0.294  0.8511 -0.0815 -0.3289
  292MOL   C11541437   6.614   4.854   0.236  0.9934  0.0489 -0.1424
  292MOL   O11641438   6.469   4.703   0.317 -0.2746  0.4055 -0.0696
  292MOL   H11741439   6.400   4.868   0.217  0.4166 -0.9100 -0.2349
  292MOL   H11841440   6.691   4.814   0.302 -0.6366 -1.0217  1.1501
  292MOL   H11941441   6.644   4.949   0.191  2.8427 -1.5865 -2.4972
  292MOL   H12041442   6.618   4.785   0.152  0.9980  0.2843 -0.3361
  292MOL   C12141443   6.347   4.643   0.310 -0.1174  0.0651  0.5223
  292MOL   C12241444   6.344   4.576   0.169 -1.0104 -0.4870  0.4804
  292MOL   O12341445   6.325   4.539   0.400  0.6007  0.4994 -0.0264
  292MOL   H12441446   6.262   4.711   0.319 -1.0190 -0.8175 -1.2479
  292MOL   H12541447   6.434   4.522   0.138 -0.5207  1.6650 -2.0059
  292MOL   H12641448   6.341   4.655   0.094 -0.7176 -2.1063 -1.2735
  292MOL   H12741449   6.262   4.506   0.156  0.2664 -1.7714 -0.8856
  292MOL   C12841450   6.339   4.579   0.532 -0.3886 -0.3739 -0.0938
  292MOL   C12941451   6.196   4.579   0.589  0.0252 -0.0662  0.7126
  292MOL   O13041452   6.396   4.491   0.615 -0.6916 -0.1006 -0.0286
  292MOL   H13141453   6.386   4.677   0.544  2.1317 -1.3608 -1.6287
  292MOL   H13241454   6.194   4.596   0.697 -0.4246 -0.3527  0.7518
  292MOL   H13341455   6.148   4.484   0.567  1.0612  0.0704 -2.3406
  292MOL   H13441456   6.139   4.660   0.543  0.3375  1.1847  2.4386
  292MOL   C13541457   6.530   4.477   0.596  0.1907 -0.5391 -0.0610
  292MOL   C13641458   6.606   4.604   0.656 -0.3901  0.0710 -0.2044
  292MOL   O13741459   6.569   4.365   0.671 -0.2712 -0.0099 -0.1221
  292MOL   H13841460   6.558   4.460   0.492 -0.5406  0.3752 -0.4079
  292MOL   H13941461   6.712   4.578   0.653 -0.8903 -2.0263 -0.6855
  292MOL   H14041462   6.580   4.613   0.761  0.2824 -0.7254  0.0347
  292MOL   H14141463   6.589   4.698   0.603  0.6445  0.4773  0.1774
  292MOL   H14241464   6.547   4.289   0.619 -0.8502  1.5609 -2.2167
  293MOL     C141465   4.102   0.986   2.113  0.2884 -0.1501 -0.1671
  293MOL     C241466   4.028   1.116   2.071 -1.4748 -0.1784  0.0608
  293MOL     O341467   4.042   0.937   2.238  0.0767  0.3510 -0.3079
  293MOL     H441468   4.203   1.018   2.137 -0.2818  2.3421 -0.9653
  293MOL     H541469   3.927   1.085   2.043 -2.0436 -1.6229  3.4817
  293MOL     H641470   4.077   1.172   1.991 -1.5645 -1.1379 -0.6795
  293MOL     H741471   4.025   1.184   2.156 -1.7304 -2.8814  2.2724
  293MOL     H841472   4.103   0.908   2.036  0.4468  0.8943 -1.2358
  293MOL     C941473   4.110   0.823   2.293  0.0786 -0.0787 -0.2070
  293MOL    C1041474   4.195   0.874   2.412  0.0697 -0.1324 -0.4032
  293MOL    O1141475   4.014   0.730   2.338 -0.2674  0.7176 -0.3080
  293MOL    H1241476   4.177   0.781   2.217 -0.9377 -1.0333 -0.5883
  293MOL    H1341477   4.274   0.937   2.370  0.6175  0.5150  1.5536
  293MOL    H1441478   4.229   0.788   2.470 -0.4678 -0.9895 -1.3499
  293MOL    H1541479   4.127   0.934   2.473 -0.6177 -0.8536 -0.4540
  293MOL    C1641480   3.941   0.670   2.230  0.9135 -0.1269 -0.5849
  293MOL    C1741481   3.992   0.521   2.207  0.4651 -0.4387 -0.2403
  293MOL    O1841482   3.808   0.665   2.266 -0.0639 -0.1196 -0.1946
  293MOL    H1941483   3.961   0.723   2.137 -1.5393  0.9267 -0.5624
  293MOL    H2041484   4.093   0.519   2.166  0.8089 -0.8467  0.6098
  293MOL    H2141485   3.920   0.485   2.133  0.8970 -1.3334 -0.2345
  293MOL    H2241486   3.977   0.469   2.302  1.3592 -0.8017 -0.2917
  293MOL    C2341487   3.744   0.787   2.242  0.2910 -0.6978  0.4610
  293MOL    C2441488   3.649   0.765   2.121 -0.2088  0.1793 -0.3032
  293MOL    O2541489   3.670   0.830   2.354 -0.1613  0.1477 -0.1445
  293MOL    H2641490   3.810   0.870   2.220 -0.1214 -0.2797  0.7944
  293MOL    H2741491   3.573   0.688   2.130 -0.7970  0.4964 -2.2644
  293MOL    H2841492   3.710   0.751   2.031 -0.6473 -0.8589 -0.4481
  293MOL    H2941493   3.586   0.853   2.109 -1.9749 -1.3569 -2.7247
  293MOL    C3041494   3.744   0.883   2.453 -1.0344 -0.0474 -0.1568
  293MOL    C3141495   3.704   1.025   2.463  0.2356 -0.2508  0.3308
  293MOL    O3241496   3.715   0.824   2.572  0.0578 -0.7490  0.2520
  293MOL    H3341497   3.849   0.894   2.427 -1.1425  2.8987  0.4379
  293MOL    H3441498   3.727   1.073   2.368  2.5866 -0.5377  0.7087
  293MOL    H3541499   3.770   1.069   2.539  0.4167 -0.1880  0.1368
  293MOL    H3641500   3.598   1.036   2.486  0.6607  1.3934  1.6724
  293MOL    C3741501   3.812   0.748   2.624 -0.3053  0.0846  0.4967
  293MOL    C3841502   3.897   0.828   2.717  0.1243  0.5762  0.8533
  293MOL    O3941503   3.753   0.649   2.699  0.7888 -0.3459 -0.1417
  293MOL    H4041504   3.883   0.707   2.552  0.7239  1.5739  0.6432
  293MOL    H4141505   3.988   0.770   2.730  0.9260  1.4061 -0.9758
  293MOL    H4241506   3.842   0.855   2.807 -1.8927 -0.5696 -0.0189
  293MOL    H4341507   3.940   0.918   2.673 -0.7571  2.1855  3.1821
  293MOL    C4441508   3.711   0.539   2.620  0.2740  0.1208  0.1816
  293MOL    C4541509   3.795   0.415   2.662  0.3825 -0.2080 -0.3367
  293MOL    O4641510   3.578   0.507   2.647 -0.2487  0.4154  0.2457
  293MOL    H4741511   3.724   0.560   2.514 -3.8933  0.0465 -0.4037
  293MOL    H4841512   3.773   0.384   2.764 -3.6945  3.3460  0.0451
  293MOL    H4941513   3.895   0.455   2.650  0.0997  0.3843 -0.7558
  293MOL    H5041514   3.771   0.335   2.593 -0.8381  0.2188 -0.4249
  293MOL    C5141515   3.497   0.601   2.586  0.8853 -0.0782  0.4044
  293MOL    C5241516   3.422   0.527   2.484 -0.0029 -0.3214 -0.2986
  293MOL    O5341517   3.400   0.658   2.663 -0.2393 -0.3711 -0.0084
  293MOL    H5441518   3.543   0.684   2.533 -2.2185  0.7191 -1.1817
  293MOL    H5541519   3.486   0.481   2.409  0.3427  0.9034 -0.7644
  293MOL    H5641520   3.353   0.588   2.426  0.7661  1.5033  0.6659
  293MOL    H5741521   3.376   0.451   2.547  0.4798  0.6650  1.2781
  293MOL    C5841522   3.441   0.765   2.744 -0.4454 -0.9688  0.6806
  293MOL    C5941523   3.386   0.892   2.666 -0.4133 -0.1812  0.4732
  293MOL    O6041524   3.394   0.768   2.875  1.0694  0.0187 -0.2460
  293MOL    H6141525   3.550   0.773   2.752 -0.1769 -1.1642 -2.0288
  293MOL    H6241526   3.281   0.878   2.641 -0.5389  0.1533  0.8193
  293MOL    H6341527   3.430   0.895   2.566 -2.7993 -2.8763 -0.7324
  293MOL    H6441528   3.404   0.985   2.720  0.5103  1.1587 -2.0534
  293MOL    C6541529   3.470   0.689   2.960  0.5582 -0.1277 -0.7333
  293MOL    C6641530   3.522   0.777   3.081 -0.0113 -0.2602  0.1299
  293MOL    O6741531   3.393   0.590   3.026 -0.2161 -0.1293 -0.6970
  293MOL    H6841532   3.553   0.630   2.920  1.7053 -1.3037  3.0920
  293MOL    H6941533   3.575   0.865   3.044  0.6161  0.0689  1.7788
  293MOL    H7041534   3.571   0.720   3.159 -2.4681 -2.4884  0.1237
  293MOL    H7141535   3.429   0.823   3.117 -1.2405 -2.2923 -0.3386
  293MOL    C7241536   3.369   0.473   2.939  0.3085  0.3879  0.0358
  293MOL    C7341537   3.449   0.355   2.984 -0.5268  1.0749  0.0661
  293MOL    O7441538   3.232   0.444   2.945  0.5992  0.0433 -0.0144
  293MOL    H7541539   3.389   0.493   2.834  1.3013 -1.0093 -0.0542
  293MOL    H7641540   3.440   0.342   3.092  2.6555  0.2833  0.3037
  293MOL    H7741541   3.557   0.369   2.975 -0.5511  1.1982 -0.0387
  293MOL    H7841542   3.404   0.267   2.938 -2.1909  2.6785 -1.4140
  293MOL    C7941543   3.145   0.537   2.892 -0.0208  0.2360  0.3477
  293MOL    C8041544   3.059   0.469   2.780  0.0289 -0.7044 -0.7909
  293MOL    O8141545   3.054   0.574   2.986 -0.2343  0.5660  0.4828
  293MOL    H8241546   3.209   0.614   2.850  2.8289 -1.5608  1.2392
  293MOL    H8341547   3.119   0.420   2.703  1.9036  0.4589 -0.1293
  293MOL    H8441548   3.001   0.544   2.726  0.6425  0.5488  0.2471
  293MOL    H8541549   2.988   0.406   2.833  0.3262  1.5849  2.4850
  293MOL    C8641550   3.067   0.698   3.042  0.7393  0.6011  0.4990
  293MOL    C8741551   2.972   0.790   2.973  0.0227  0.0813 -0.1236
  293MOL    O8841552   3.030   0.697   3.177 -0.6355  0.0002 -0.2839
  293MOL    H8941553   3.168   0.738   3.033  0.0177  1.9429 -2.2013
  293MOL    H9041554   2.869   0.760   2.994  0.1126  1.4037  2.3598
  293MOL    H9141555   2.993   0.798   2.866  0.3335  0.0572 -0.0649
  293MOL    H9241556   2.982   0.889   3.017  0.7492 -0.4815  0.9738
  293MOL    C9341557   3.119   0.621   3.258  0.0646 -0.2034  0.4691
  293MOL    C9441558   3.177   0.716   3.367 -0.0598 -0.1689 -0.2452
  293MOL    O9541559   3.057   0.524   3.336 -0.6406 -0.2317 -0.1102
  293MOL    H9641560   3.208   0.586   3.206  0.6241 -0.7096  1.7436
  293MOL    H9741561   3.093   0.763   3.417  1.3047  2.1470 -0.0574
  293MOL    H9841562   3.251   0.788   3.331 -1.3793  1.1737 -0.3042
  293MOL    H9941563   3.232   0.656   3.440  1.1364  0.4893 -0.5864
  293MOL   C10041564   3.041   0.395   3.272 -0.1306 -0.2233 -0.4112
  293MOL   C10141565   3.122   0.301   3.363 -0.3876 -0.3629  0.5062
  293MOL   O10241566   2.914   0.348   3.269  0.8541 -0.1437 -0.4404
  293MOL   H10341567   3.076   0.401   3.169  1.5396 -0.9194  0.1008
  293MOL   H10441568   3.221   0.338   3.388 -0.0039 -1.4224  0.5571
  293MOL   H10541569   3.129   0.197   3.333  1.2068 -0.1586  0.1533
  293MOL   H10641570   3.075   0.280   3.459 -0.5833  0.6017  0.6301
  293MOL   C10741571   2.837   0.418   3.176  0.5987  1.5064  0.5427
  293MOL   C10841572   2.800   0.318   3.066  0.2869  0.0418  0.5563
  293MOL   O10941573   2.722   0.452   3.237 -0.0902  0.4685  0.1991
  293MOL   H11041574   2.888   0.506   3.137  0.2553  0.4581 -2.4281
  293MOL   H11141575   2.882   0.284   3.003 -0.3059 -1.7987  0.7534
  293MOL   H11241576   2.746   0.377   2.992  1.4982 -0.0689 -0.4242
  293MOL   H11341577   2.749   0.233   3.111  0.9831 -0.7266 -0.0968
  293MOL   C11441578   2.727   0.563   3.319  0.3164 -0.2300 -0.0815
  293MOL   C11541579   2.631   0.659   3.252 -0.6859  0.6416 -0.7637
  293MOL   O11641580   2.680   0.517   3.446  1.1419 -0.1753  0.5588
  293MOL   H11741581   2.826   0.606   3.331  0.6473 -1.3779  1.4677
  293MOL   H11841582   2.531   0.616   3.239 -1.0883  0.1886  3.3229
  293MOL   H11941583   2.663   0.679   3.150  0.0904  0.1394 -0.6164
  293MOL   H12041584   2.631   0.747   3.316 -1.9263 -0.8361  1.3098
  293MOL   C12141585   2.782   0.459   3.526 -0.3537  0.2736  0.0149
  293MOL   C12241586   2.833   0.565   3.619  0.8362  0.0605 -0.0678
  293MOL   O12341587   2.719   0.360   3.600 -0.1319 -0.0225 -0.0145
  293MOL   H12441588   2.861   0.416   3.464 -0.1642  2.2384 -1.1772
  293MOL   H12541589   2.752   0.617   3.671 -0.1597  0.1020 -1.6484
  293MOL   H12641590   2.887   0.636   3.557  1.2952  1.9056  2.3734
  293MOL   H12741591   2.903   0.518   3.687 -1.7177 -1.3753  1.6749
  293MOL   C12841592   2.650   0.262   3.526  0.3647  0.0781 -0.1499
  293MOL   C12941593   2.707   0.127   3.568 -0.3854 -0.2673 -0.2963
  293MOL   O13041594   2.515   0.246   3.545 -0.0297  0.6852  0.1349
  293MOL   H13141595   2.675   0.272   3.420 -0.1221  1.7224 -0.1247
  293MOL   H13241596   2.681   0.045   3.501  0.7498 -2.9931  2.4828
  293MOL   H13341597   2.661   0.116   3.666 -0.8422  2.7877 -0.1320
  293MOL   H13441598   2.815   0.144   3.574 -0.6696  1.0553  1.6134
  293MOL   C13541599   2.427   0.348   3.500 -0.6205  1.0824  0.2822
  293MOL   C13641600   2.282   0.302   3.503  0.1825  0.1765 -0.1066
  293MOL   O13741601   2.443   0.464   3.579 -0.5113 -0.5462 -1.3636
  293MOL   H13841602   2.452   0.370   3.397  1.3049  0.8819  0.6991
  293MOL   H13941603   2.252   0.261   3.600 -0.8004 -1.6627 -1.1734
  293MOL   H14041604   2.263   0.232   3.422 -1.5488 -0.2916  0.6946
  293MOL   H14141605   2.216   0.383   3.472  0.6292  1.3659  1.8956
  293MOL   H14241606   2.532   0.495   3.574 -0.1038 -1.1408  1.2975
  294MOL     C141607   0.510   1.191   2.902  0.5506  0.4164  0.5055
  294MOL     C241608   0.605   1.298   2.950 -0.2902 -0.0510 -0.3729
  294MOL     O341609   0.599   1.095   2.847  0.1714  0.2726  0.0443
  294MOL     H441610   0.441   1.232   2.828 -0.2756  0.3769  1.2526
  294MOL     H541611   0.536   1.382   2.941 -2.6684 -1.9924 -0.7854
  294MOL     H641612   0.701   1.314   2.902  0.5506 -0.7208  1.0402
  294MOL     H741613   0.633   1.298   3.056  0.4321 -0.4997 -0.5629
  294MOL     H841614   0.456   1.153   2.989 -0.0733  0.3145  0.0772
  294MOL     C941615   0.546   0.975   2.788 -0.5684 -0.4792 -0.1063
  294MOL    C1041616   0.466   0.891   2.886  0.0953  0.5169  0.1655
  294MOL    O1141617   0.461   1.007   2.683  0.7577 -0.4628  0.8408
  294MOL    H1241618   0.630   0.914   2.756  0.6608  2.9150 -3.9252
  294MOL    H1341619   0.528   0.866   2.973 -3.4496 -1.6728  2.2076
  294MOL    H1441620   0.454   0.799   2.829 -0.1105 -0.0353  1.0851
  294MOL    H1541621   0.365   0.923   2.913  0.3520  0.3878  1.3315
  294MOL    C1641622   0.515   1.084   2.579  0.7710 -0.2315 -0.0416
  294MOL    C1741623   0.624   1.011   2.497 -0.2162 -0.0561  0.1730
  294MOL    O1841624   0.416   1.107   2.489  0.2590  0.6965  0.2501
  294MOL    H1941625   0.560   1.179   2.606 -1.4926  1.0020 -0.4516
  294MOL    H2041626   0.718   1.006   2.551  0.5850 -0.5347 -1.2162
  294MOL    H2141627   0.633   1.074   2.408 -0.4618  0.7825  0.7377
  294MOL    H2241628   0.592   0.913   2.460 -2.1731  0.8620 -0.6701
  294MOL    C2341629   0.313   1.195   2.530  0.4114  0.5391 -0.1159
  294MOL    C2441630   0.358   1.340   2.500 -0.0905 -0.5954  0.0250
  294MOL    O2541631   0.195   1.174   2.457 -0.6330  0.0066 -0.7754
  294MOL    H2641632   0.291   1.173   2.634  0.7333 -1.1923 -0.4065
  294MOL    H2741633   0.431   1.366   2.576 -0.0037 -0.1572 -0.2082
  294MOL    H2841634   0.267   1.398   2.512 -0.1767 -0.9703  1.2412
  294MOL    H2941635   0.411   1.343   2.405 -0.8044  0.0646 -0.3556
  294MOL    C3041636   0.133   1.051   2.468 -0.0681  0.4358  0.7256
  294MOL    C3141637   7.907   1.081   2.495  0.1398  0.3985  0.7516
  294MOL    O3241638   0.134   0.995   2.343 -0.4266  0.1992 -0.6331
  294MOL    H3341639   0.171   0.991   2.551 -2.1583  1.0550  2.1697
  294MOL    H3441640   7.868   1.123   2.403  1.7914  1.4094  0.4900
  294MOL    H3541641   7.891   1.155   2.573  1.2666  2.4565 -0.9309
  294MOL    H3641642   7.844   0.994   2.514 -0.8039  0.9622  0.2353
  294MOL    C3741643   0.227   0.898   2.323 -0.8367  0.0255 -0.3395
  294MOL    C3841644   0.164   0.757   2.334  0.2978 -0.9772  0.5883
  294MOL    O3941645   0.283   0.911   2.197  0.3216 -0.3655 -0.1662
  294MOL    H4041646   0.305   0.904   2.399 -1.3979  0.3113  0.2160
  294MOL    H4141647   0.238   0.680   2.354 -0.2049 -1.3711  0.9592
  294MOL    H4241648   0.128   0.737   2.233  0.1499 -1.3454  0.7125
  294MOL    H4341649   0.082   0.744   2.405 -0.0428 -0.0129  0.3876
  294MOL    C4441650   0.346   1.032   2.168  0.0428  0.2859  0.7552
  294MOL    C4541651   0.485   0.986   2.140  0.4805  0.6985 -0.6166
  294MOL    O4641652   0.287   1.090   2.054 -0.5910 -0.2054 -0.3674
  294MOL    H4741653   0.344   1.114   2.241 -1.4217  2.2840 -1.4524
  294MOL    H4841654   0.498   0.919   2.055 -0.6962 -0.9429  0.4581
  294MOL    H4941655   0.525   0.937   2.229  0.8695 -1.6192 -2.0208
  294MOL    H5041656   0.539   1.080   2.130 -2.0726  2.3947  0.9653
  294MOL    C5141657   0.170   1.148   2.082  0.3650  0.0804  0.4847
  294MOL    C5241658   0.193   1.303   2.103 -0.6658  0.1672 -0.0769
  294MOL    O5341659   0.095   1.137   1.965 -0.3561  0.1303  0.7270
  294MOL    H5441660   0.104   1.092   2.148  0.1229 -0.1539  0.0468
  294MOL    H5541661   0.213   1.331   2.207 -0.7842 -0.1618  0.0379
  294MOL    H5641662   0.111   1.358   2.057 -0.4126 -0.4797 -1.3196
  294MOL    H5741663   0.269   1.329   2.030 -0.0819  0.8466  0.7694
  294MOL    C5841664   0.058   1.018   1.914  0.1547  0.0792 -0.1109
  294MOL    C5941665   7.829   0.994   1.966  0.3751  0.4197 -0.1569
  294MOL    O6041666   0.061   1.027   1.771 -0.0683  0.1797  0.0509
  294MOL    H6141667   0.123   0.934   1.938  0.2596  0.5396  1.2125
  294MOL    H6241668   7.845   0.988   2.074  0.3545  0.2504 -0.1617
  294MOL    H6341669   7.792   0.904   1.917  0.1267 -0.1652  1.0771
  294MOL    H6441670   7.762   1.077   1.944 -0.0501  0.7952  2.3596
  294MOL    C6541671   0.183   1.034   1.713 -0.6121  0.1877  0.1862
  294MOL    C6641672   0.205   0.908   1.629  0.4540 -0.7857  0.0156
  294MOL    O6741673   0.193   1.142   1.624  0.7182  0.3828  0.1155
  294MOL    H6841674   0.256   1.049   1.793  1.0604 -1.5401 -0.9514
  294MOL    H6941675   0.305   0.914   1.587  0.9498  1.9566  1.4526
  294MOL    H7041676   0.135   0.902   1.545  2.8169 -2.1586 -1.9064
  294MOL    H7141677   0.186   0.813   1.679 -1.6014  0.9805  2.7518
  294MOL    C7241678   0.189   1.264   1.684 -0.5151 -0.6263 -0.5994
  294MOL    C7341679   0.315   1.334   1.625 -0.2051 -0.2888 -0.1435
  294MOL    O7441680   0.082   1.340   1.636  0.0954 -0.6082  0.6200
  294MOL    H7541681   0.197   1.258   1.792  0.3336 -1.6069 -0.7155
  294MOL    H7641682   0.322   1.433   1.671  2.6915 -0.2253 -0.6070
  294MOL    H7741683   0.315   1.351   1.517  2.8913  0.7007 -0.0357
  294MOL    H7841684   0.401   1.275   1.658  0.9999  0.9537 -0.9971
  294MOL    C7941685   7.877   1.317   1.701 -0.0175 -0.1973  0.4916
  294MOL    C8041686   7.847   1.446   1.781  0.6867 -0.7299  0.1271
  294MOL    O8141687   7.776   1.292   1.615 -0.4511  0.6312 -0.2898
  294MOL    H8241688   7.878   1.232   1.769  1.1712  1.1141  2.1715
  294MOL    H8341689   7.780   1.515   1.728  2.6681  0.8536 -0.3776
  294MOL    H8441690   0.019   1.510   1.801  0.4460 -0.4612  0.2970
  294MOL    H8541691   7.799   1.424   1.876  0.6493  0.5163  0.4116
  294MOL    C8641692   7.760   1.158   1.578  0.0521 -0.4343 -0.2860
  294MOL    C8741693   7.644   1.092   1.667  0.2655 -0.3905  0.5187
  294MOL    O8841694   7.712   1.143   1.451  0.6984  0.5738  0.3006
  294MOL    H8941695   7.852   1.101   1.586 -0.2337 -0.8257  0.2072
  294MOL    H9041696   7.549   1.103   1.615  0.3638 -2.0779 -0.0268
  294MOL    H9141697   7.635   1.134   1.767 -1.4931 -0.8085  0.5568
  294MOL    H9241698   7.665   0.986   1.680 -0.2766 -0.5659 -0.0242
  294MOL    C9341699   7.804   1.190   1.358 -0.2073  0.0838  0.0642
  294MOL    C9441700   7.846   1.062   1.280  0.2368 -0.4535  0.1181
  294MOL    O9541701   7.742   1.274   1.267  0.1337 -0.6476  0.3618
  294MOL    H9641702   7.897   1.232   1.396  0.0447 -0.1072 -0.3411
  294MOL    H9741703   7.879   0.984   1.348 -1.0276  0.0897  1.3555
  294MOL    H9841704   0.006   1.089   1.204  2.0728 -0.2888  1.8954
  294MOL    H9941705   7.757   1.024   1.231  0.5057  1.1090 -1.6574
  294MOL   C10041706   7.757   1.404   1.298  0.1874  0.4290 -0.4737
  294MOL   C10141707   7.854   1.473   1.193  0.1113 -0.1517 -0.6550
  294MOL   O10241708   7.631   1.469   1.275  0.0835 -0.2339 -0.6865
  294MOL   H10341709   7.799   1.416   1.398 -0.3283 -0.7229 -0.1085
  294MOL   H10441710   0.031   1.413   1.190 -0.9409 -1.7671 -0.8666
  294MOL   H10541711   7.879   1.575   1.224  1.0549 -0.5637 -0.0265
  294MOL   H10641712   7.818   1.464   1.090 -1.8708 -3.5328  0.2903
  294MOL   C10741713   7.528   1.421   1.353  1.0361  0.7000 -0.4586
  294MOL   C10841714   7.491   1.533   1.446  0.9120  1.0072  0.2750
  294MOL   O10941715   7.414   1.380   1.277 -0.0408 -0.3938  0.8141
  294MOL   H11041716   7.560   1.342   1.421 -2.5949 -1.3703 -1.0012
  294MOL   H11141717   7.498   1.628   1.394  2.2986  1.0337  0.4866
  294MOL   H11241718   7.565   1.533   1.526 -0.7373 -0.7347  1.8663
  294MOL   H11341719   7.394   1.520   1.494  0.4407 -0.7225 -1.1036
  294MOL   C11441720   7.428   1.253   1.220  0.4921  0.0759  0.5618
  294MOL   C11541721   7.317   1.176   1.281 -0.4465  0.0760  0.0412
  294MOL   O11641722   7.401   1.250   1.082 -0.7941  0.3399 -0.0521
  294MOL   H11741723   7.527   1.211   1.239  1.0014  1.8770  2.0852
  294MOL   H11841724   7.308   1.182   1.389 -0.0901  0.6471  0.0385
  294MOL   H11941725   7.318   1.072   1.246 -0.2710  0.4961 -1.2369
  294MOL   H12041726   7.217   1.213   1.259  0.3997  1.2969 -1.9224
  294MOL   C12141727   7.476   1.340   1.004 -0.1966 -0.4895 -0.2579
  294MOL   C12241728   7.593   1.261   0.948 -0.2074 -0.4112 -0.0899
  294MOL   O12341729   7.404   1.387   0.892  0.2181  0.4246 -0.3155
  294MOL   H12441730   7.512   1.425   1.063 -1.4952 -0.4841  0.5352
  294MOL   H12541731   7.647   1.339   0.893  1.5282 -0.1033  1.9488
  294MOL   H12641732   7.561   1.186   0.876 -1.7266  0.7093 -0.6144
  294MOL   H12741733   7.655   1.220   1.028  0.9730 -0.1730 -0.8628
  294MOL   C12841734   7.303   1.480   0.916  0.9173 -1.2505  0.1052
  294MOL   C12941735   7.338   1.611   0.849  0.7944 -0.0037  0.3786
  294MOL   O13041736   7.187   1.435   0.856 -0.1380 -0.2426 -0.1184
  294MOL   H13141737   7.281   1.498   1.021 -1.1528 -0.6021 -0.4058
  294MOL   H13241738   7.254   1.681   0.850  0.4038 -0.4076 -1.9321
  294MOL   H13341739   7.370   1.607   0.745 -1.0568 -1.3943 -0.1584
  294MOL   H13441740   7.411   1.672   0.904 -0.9940  1.5856  1.0609
  294MOL   C13541741   7.144   1.310   0.915 -0.5521 -0.2368 -0.3241
  294MOL   C13641742   6.994   1.299   0.899 -0.9584  0.5291  0.0232
  294MOL   O13741743   7.206   1.205   0.848 -0.1474 -0.1218  0.2166
  294MOL   H13841744   7.190   1.310   1.014  1.4050  2.1016 -1.1899
  294MOL   H13941745   6.949   1.375   0.963 -2.3672 -0.7266  0.5616
  294MOL   H14041746   6.957   1.199   0.924 -1.8836  1.1384  1.1720
  294MOL   H14141747   6.967   1.322   0.797 -0.6609 -0.6898 -0.3449
  294MOL   H14241748   7.297   1.196   0.869 -0.3476 -0.8060  0.8310
  295MOL     C141749   1.925   0.872   1.287 -0.7477 -0.0634  0.7870
  295MOL     C241750   2.033   0.756   1.294 -0.0120 -0.2771 -0.0405
  295MOL     O341751   1.997   0.962   1.198 -0.0776  0.3869 -0.1086
  295MOL     H441752   1.921   0.907   1.390  1.0278  2.6548 -0.0185
  295MOL     H541753   2.003   0.664   1.344  1.5213 -0.0390  1.3455
  295MOL     H641754   2.115   0.802   1.347  0.1944  0.5571 -1.0683
  295MOL     H741755   2.074   0.725   1.197 -0.5419 -1.5052  0.1055
  295MOL     H841756   1.829   0.834   1.254 -0.3372  1.0906 -1.8413
  295MOL     C941757   1.927   1.080   1.171 -0.3975 -0.4939 -0.6675
  295MOL    C1041758   1.893   1.166   1.297 -0.1046  0.7247 -0.5146
  295MOL    O1141759   2.008   1.156   1.088 -0.1510  0.1151  0.4203
  295MOL    H1241760   1.835   1.051   1.120  0.0031 -1.3293 -0.9316
  295MOL    H1341761   1.822   1.126   1.369 -1.1744  2.0477 -0.8074
  295MOL    H1441762   1.855   1.265   1.271  0.7461  1.0772 -0.4444
  295MOL    H1541763   1.985   1.189   1.351  0.7010  0.6500 -1.8238
  295MOL    C1641764   2.020   1.107   0.952  0.6142 -0.7914 -0.0094
  295MOL    C1741765   1.930   1.198   0.867 -0.9390  0.1520 -0.1939
  295MOL    O1841766   2.150   1.102   0.896 -0.5306  0.0452  0.1120
  295MOL    H1941767   1.973   1.009   0.945  0.0344 -0.4624 -0.9055
  295MOL    H2041768   1.951   1.179   0.761  0.6411 -0.5406  0.2195
  295MOL    H2141769   1.956   1.301   0.892 -0.2370 -0.2049  0.5658
  295MOL    H2241770   1.832   1.170   0.907 -0.2593 -2.3872 -0.2085
  295MOL    C2341771   2.234   1.008   0.947  0.2465 -0.1614 -0.2765
  295MOL    C2441772   2.287   0.928   0.836  0.2419 -0.3475  0.1870
  295MOL    O2541773   2.349   1.072   1.008  0.1466  0.2727  0.3803
  295MOL    H2641774   2.185   0.944   1.021  1.4432  0.2846  0.9308
  295MOL    H2741775   2.357   0.853   0.874 -1.2319 -2.5161 -1.2703
  295MOL    H2841776   2.342   0.997   0.772 -1.0533  1.9129  1.4378
  295MOL    H2941777   2.203   0.888   0.779 -0.3450 -1.0024  1.4880
  295MOL    C3041778   2.330   1.106   1.147  0.5215 -0.6827  0.2644
  295MOL    C3141779   2.422   1.007   1.226  0.3717 -0.1819  0.4919
  295MOL    O3241780   2.386   1.235   1.168 -0.5255  0.8055 -0.1838
  295MOL    H3341781   2.226   1.104   1.180 -0.1138 -0.9668 -1.7042
  295MOL    H3441782   2.380   0.908   1.205 -0.6292  0.4256 -0.4417
  295MOL    H3541783   2.424   1.032   1.332  0.5912 -1.8853  0.9035
  295MOL    H3641784   2.524   1.010   1.188  0.3433 -1.0241  0.3308
  295MOL    C3741785   2.308   1.329   1.098 -0.1779  0.5071  0.3905
  295MOL    C3841786   2.235   1.414   1.196 -0.9805 -0.3133  0.3976
  295MOL    O3941787   2.382   1.413   1.005 -0.0346 -0.2648  0.6619
  295MOL    H4041788   2.237   1.287   1.027 -2.2274  0.2390  2.5484
  295MOL    H4141789   2.171   1.473   1.131  0.1140 -0.2560 -0.6420
  295MOL    H4241790   2.308   1.470   1.255 -1.1932  0.9979 -0.5503
  295MOL    H4341791   2.188   1.345   1.266 -2.1961 -1.6354 -1.6830
  295MOL    C4441792   2.429   1.358   0.889  0.4431  0.2531 -0.1174
  295MOL    C4541793   2.361   1.434   0.777  0.6105  0.0093 -0.1205
  295MOL    O4641794   2.564   1.389   0.877  0.1943  0.3795 -0.4190
  295MOL    H4741795   2.422   1.250   0.875 -0.2646  0.4613 -1.4341
  295MOL    H4841796   2.376   1.389   0.679  0.6345  3.4065 -1.7598
  295MOL    H4941797   2.401   1.536   0.782  1.2259 -0.2408  0.0316
  295MOL    H5041798   2.253   1.441   0.794  0.8217 -0.3695  1.3698
  295MOL    C5141799   2.648   1.317   0.972  0.1126 -0.0513  0.2405
  295MOL    C5241800   2.714   1.201   0.903 -0.5738 -0.1548 -0.5062
  295MOL    O5341801   2.759   1.401   0.990  0.0644  0.1316  0.2024
  295MOL    H5441802   2.596   1.288   1.063  0.7769 -1.1724  0.2703
  295MOL    H5541803   2.638   1.128   0.873 -1.5708  0.6793 -0.0394
  295MOL    H5641804   2.781   1.157   0.976 -0.5968 -0.0623 -0.4296
  295MOL    H5741805   2.766   1.245   0.818  0.9167 -1.8259 -0.4918
  295MOL    C5841806   2.726   1.525   1.047 -0.7030  0.0108 -0.3547
  295MOL    C5941807   2.741   1.519   1.200 -0.6049  0.1603 -0.5252
  295MOL    O6041808   2.803   1.630   1.000  0.2813  0.0717 -0.9824
  295MOL    H6141809   2.622   1.553   1.033 -1.2413 -1.1293  1.2399
  295MOL    H6241810   2.656   1.471   1.247 -1.1700  0.1755 -1.5047
  295MOL    H6341811   2.750   1.614   1.252 -1.7311 -0.3245  0.5715
  295MOL    H6441812   2.826   1.458   1.231 -0.0517  0.2880 -1.7551
  295MOL    C6541813   2.781   1.671   0.870 -0.5259 -0.1520 -0.9992
  295MOL    C6641814   2.695   1.797   0.873 -0.3152 -0.3063 -0.4633
  295MOL    O6741815   2.904   1.697   0.801 -0.3611  0.2550 -0.2700
  295MOL    H6841816   2.741   1.598   0.799  1.0815 -0.0394 -2.0350
  295MOL    H6941817   2.722   1.872   0.947 -0.5954  1.0023 -1.6582
  295MOL    H7041818   2.599   1.755   0.902  0.4620 -1.3739  0.6571
  295MOL    H7141819   2.676   1.823   0.769 -0.6729 -1.0023 -0.5765
  295MOL    C7241820   2.978   1.586   0.771 -0.8656 -0.4864  0.4318
  295MOL    C7341821   3.003   1.602   0.624  0.9355  0.3871  0.1858
  295MOL    O7441822   3.110   1.608   0.822  0.4646 -0.3166  0.8638
  295MOL    H7541823   2.940   1.486   0.795 -0.4378 -1.1743 -1.5856
  295MOL    H7641824   2.920   1.655   0.577  0.8466  1.1930  1.2411
  295MOL    H7741825   3.008   1.502   0.580  0.3418  0.3723  0.1522
  295MOL    H7841826   3.097   1.652   0.603  0.9646  0.2115 -0.1089
  295MOL    C7941827   3.120   1.572   0.959 -0.4724 -0.5528 -0.7592
  295MOL    C8041828   3.201   1.445   0.968  0.4708 -0.0251 -0.4573
  295MOL    O8141829   3.193   1.673   1.027 -0.7216 -0.4265 -0.2904
  295MOL    H8241830   3.023   1.560   1.007 -0.5324  1.8955 -0.2253
  295MOL    H8341831   3.307   1.467   0.954  0.9577 -0.2292  2.6201
  295MOL    H8441832   3.167   1.363   0.905  0.9608 -0.5275 -0.0722
  295MOL    H8541833   3.198   1.413   1.072 -1.7883  2.7924  0.4097
  295MOL    C8641834   3.114   1.771   1.082 -0.2094  0.1861  0.3594
  295MOL    C8741835   3.101   1.745   1.230  0.3865  0.0366  0.9168
  295MOL    O8841836   3.166   1.898   1.055 -0.8699 -0.0033 -0.1219
  295MOL    H8941837   3.014   1.758   1.042 -0.3225 -1.4008  1.0949
  295MOL    H9041838   3.067   1.642   1.239  1.4644 -0.3575  0.4634
  295MOL    H9141839   3.031   1.811   1.283 -0.9723  0.3050 -1.1195
  295MOL    H9241840   3.194   1.739   1.285  2.1349  1.5767 -1.7566
  295MOL    C9341841   3.142   1.934   0.924 -0.0028 -0.0708 -0.3578
  295MOL    C9441842   3.048   2.049   0.919 -0.2573  0.2859  0.1985
  295MOL    O9541843   3.259   1.975   0.859 -0.4640  0.0138  0.0246
  295MOL    H9641844   3.106   1.859   0.854  1.4843 -0.5688 -0.6075
  295MOL    H9741845   3.075   2.135   0.980 -1.0295  0.6675  0.0098
  295MOL    H9841846   2.950   2.012   0.951 -1.1388  1.5891 -0.9274
  295MOL    H9941847   3.041   2.082   0.815 -1.4804  2.2701  0.8977
  295MOL   C10041848   3.338   1.868   0.806  0.1921  0.0614 -0.4912
  295MOL   C10141849   3.332   1.886   0.655  0.1836  0.1459  0.2367
  295MOL   O10241850   3.478   1.882   0.832 -0.0222  0.4992 -0.3545
  295MOL   H10341851   3.292   1.771   0.825 -0.1616 -0.0376 -1.7826
  295MOL   H10441852   3.403   1.815   0.612  0.3247 -0.1923  1.0252
  295MOL   H10541853   3.368   1.984   0.626  0.0607 -0.0542 -0.6180
  295MOL   H10641854   3.233   1.864   0.615  0.7372 -0.5703 -0.7850
  295MOL   C10741855   3.512   1.823   0.952  0.1331 -0.1033 -0.5467
  295MOL   C10841856   3.573   1.686   0.920 -0.3225  0.2175 -0.5594
  295MOL   O10941857   3.617   1.886   1.015 -0.3392 -0.2429 -0.0854
  295MOL   H11041858   3.434   1.806   1.026 -2.7577  3.7517 -2.5215
  295MOL   H11141859   3.506   1.634   0.852 -0.2114 -0.0356 -0.4754
  295MOL   H11241860   3.583   1.626   1.010 -0.6516  0.5645 -0.2918
  295MOL   H11341861   3.674   1.687   0.878  0.2728 -0.9276  0.7765
  295MOL   C11441862   3.581   1.985   1.101  0.9352  0.3980  0.4292
  295MOL   C11541863   3.545   1.923   1.231  0.1969 -0.2304 -0.5479
  295MOL   O11641864   3.686   2.076   1.117  0.4448  0.0673  0.0600
  295MOL   H11741865   3.499   2.044   1.060 -1.9519 -2.9087  1.2188
  295MOL   H11841866   3.517   1.997   1.306 -1.5472  0.0495 -1.4542
  295MOL   H11941867   3.640   1.885   1.270  0.5505  0.4658 -0.7269
  295MOL   H12041868   3.473   1.841   1.230 -0.4018  0.3004 -0.9817
  295MOL   C12141869   3.717   2.153   1.002  0.6909  0.9522  0.0407
  295MOL   C12241870   3.676   2.296   1.022  0.0844 -0.2446 -0.5915
  295MOL   O12341871   3.852   2.152   0.975  0.2098  0.8191 -0.7425
  295MOL   H12441872   3.669   2.110   0.914  0.5770  0.3894  0.3703
  295MOL   H12541873   3.572   2.298   1.055  0.9589 -0.9387  2.4117
  295MOL   H12641874   3.704   2.359   0.938  1.8795 -0.0328  0.1599
  295MOL   H12741875   3.736   2.346   1.098  0.7681  0.0424 -1.3227
  295MOL   C12841876   3.912   2.021   0.964 -0.3749 -0.2114  0.5245
  295MOL   C12941877   3.979   2.010   0.823  0.3368 -0.0902  0.1137
  295MOL   O13041878   4.019   2.014   1.051 -0.5364 -0.7259 -0.0610
  295MOL   H13141879   3.852   1.934   0.988 -1.6367  0.2914 -0.7174
  295MOL   H13241880   3.898   2.007   0.750  0.5552 -0.1244 -0.1260
  295MOL   H13341881   4.034   1.916   0.815  1.5036  0.6160 -0.1937
  295MOL   H13441882   4.039   2.098   0.799  2.5147 -2.2006 -2.4589
  295MOL   C13541883   3.990   2.002   1.187 -0.0482 -0.1148  0.3406
  295MOL   C13641884   3.961   1.861   1.224 -0.0244  0.3298 -0.4741
  295MOL   O13741885   4.105   2.045   1.259  0.8981 -0.1469  0.6121
  295MOL   H13841886   3.905   2.065   1.215 -0.9224  0.2965 -2.9684
  295MOL   H13941887   4.040   1.798   1.184 -1.0765 -1.6709  0.5334
  295MOL   H14041888   3.865   1.824   1.188 -0.4638  0.5961  0.4041
  295MOL   H14141889   3.960   1.852   1.332 -3.6783  0.6219 -0.4230
  295MOL   H14241890   4.110   2.139   1.249  1.2486 -0.2198  0.1141
  296MOL     C141891   0.413   6.479   5.432 -0.4225 -0.9077  0.0687
  296MOL     C241892   0.374   6.491   5.574 -0.0781 -0.5428 -0.2675
  296MOL     O341893   0.306   6.533   5.352 -0.1669 -0.3404 -0.6175
  296MOL     H441894   0.429   6.377   5.396 -0.1366 -1.1601  0.9045
  296MOL     H541895   0.394   6.590   5.616 -2.3466  0.0160 -0.4458
  296MOL     H641896   0.449   6.436   5.631  0.5049 -2.8762 -3.1625
  296MOL     H741897   0.273   6.457   5.594  0.7519 -2.0076  1.5582
  296MOL     H841898   0.502   6.541   5.427 -0.3701 -0.9416  0.6388
  296MOL     C941899   0.335   6.539   5.219  0.1272  0.8883  0.3559
  296MOL    C1041900   0.277   6.416   5.154 -0.1638  0.0740  0.0142
  296MOL    O1141901   0.264   6.643   5.156 -0.2982 -0.1060 -0.0135
  296MOL    H1241902   0.442   6.539   5.202 -0.2760 -0.6415 -2.4616
  296MOL    H1341903   0.318   6.330   5.207  0.2545  2.6455  4.0598
  296MOL    H1441904   0.302   6.415   5.048  2.8956  0.7848  0.6918
  296MOL    H1541905   0.173   6.414   5.187 -0.2119 -1.7383 -0.1617
  296MOL    C1641906   0.340   6.760   5.146 -0.0055  0.1344  0.5278
  296MOL    C1741907   0.400   6.764   5.005  0.8215 -0.1649 -1.0936
  296MOL    O1841908   0.262   6.865   5.177 -0.0942  0.3247 -0.0548
  296MOL    H1941909   0.428   6.766   5.210  0.2329 -3.1227  0.5612
  296MOL    H2041910   0.435   6.863   4.974 -0.4430  0.4773 -0.5215
  296MOL    H2141911   0.311   6.759   4.943  0.3192 -0.8932 -0.3187
  296MOL    H2241912   0.473   6.686   4.983  2.6147  0.4649  2.1686
  296MOL    C2341913   0.234   6.868   5.314 -0.3770  0.5982 -0.0752
  296MOL    C2441914   0.332   6.981   5.362  0.4282  0.8589 -0.2863
  296MOL    O2541915   0.108   6.910   5.347 -0.0991 -0.2683  0.4604
  296MOL    H2641916   0.257   6.778   5.370 -0.0182 -0.3995 -1.7994
  296MOL    H2741917   0.316   7.071   5.303  0.0659  0.9214 -0.0988
  296MOL    H2841918   0.434   6.946   5.348 -0.2742 -1.2096 -0.4370
  296MOL    H2941919   0.314   7.001   5.468  0.8140  0.0775 -0.0698
  296MOL    C3041920   0.012   6.806   5.325  0.2353 -0.3378  0.2257
  296MOL    C3141921   7.901   6.730   5.452 -0.2748  0.1350  0.6387
  296MOL    O3241922   7.805   6.868   5.291  0.2824 -0.3661  0.0489
  296MOL    H3341923   0.036   6.734   5.247  4.7480 -0.5522  1.6509
  296MOL    H3441924   7.873   6.800   5.531  1.3623  3.1155 -1.3509
  296MOL    H3541925   0.082   6.693   5.491 -0.2802 -0.4184  0.1350
  296MOL    H3641926   7.827   6.650   5.442 -0.2723  0.3119 -0.8233
  296MOL    C3741927   7.806   6.927   5.167 -0.0228 -1.0308  0.4043
  296MOL    C3841928   7.738   6.824   5.077 -0.9084  0.6349  0.2544
  296MOL    O3941929   7.720   7.038   5.165 -0.6120 -0.3194 -0.5184
  296MOL    H4041930   7.906   6.957   5.139 -0.8003  0.9214 -0.3540
  296MOL    H4141931   7.767   6.847   4.974  0.4290 -0.8693  0.2746
  296MOL    H4241932   7.629   6.817   5.078 -0.8186 -1.3283 -1.6864
  296MOL    H4341933   7.771   6.722   5.092 -3.6809 -0.4520 -0.7315
  296MOL    C4441934   7.766   7.131   5.257 -0.0485  0.3026  0.3825
  296MOL    C4541935   7.840   7.243   5.176 -0.2266 -0.2329 -0.4365
  296MOL    O4641936   7.662   7.191   5.328  0.0310  0.2615 -0.0908
  296MOL    H4741937   7.836   7.089   5.330  1.9326 -0.0637 -1.6580
  296MOL    H4841938   7.868   7.329   5.237  1.4989  0.8819 -2.7138
  296MOL    H4941939   7.766   7.292   5.112  1.0668  2.4222  0.0582
  296MOL    H5041940   0.013   7.211   5.118  1.0485  0.4896  1.0316
  296MOL    C5141941   7.600   7.098   5.415  0.4427 -0.2832 -1.0143
  296MOL    C5241942   7.637   7.143   5.558  0.3842  0.1516  0.3224
  296MOL    O5341943   7.458   7.106   5.409  0.3670 -0.4661  0.1768
  296MOL    H5441944   7.628   6.993   5.408 -0.8192 -0.7983  1.0477
  296MOL    H5541945   7.643   7.050   5.615  0.3983  0.0598  0.1751
  296MOL    H5641946   7.567   7.215   5.600  0.6949  1.1527 -0.8382
  296MOL    H5741947   7.735   7.185   5.578 -0.2355  1.2266  1.1326
  296MOL    C5841948   7.398   7.061   5.293 -0.1617 -0.5538 -0.0463
  296MOL    C5941949   7.321   6.930   5.338  0.4663  0.2512  0.2541
  296MOL    O6041950   7.315   7.158   5.233  0.7226  0.5703 -0.2770
  296MOL    H6141951   7.471   7.032   5.217  1.1520  2.8122 -0.1340
  296MOL    H6241952   7.250   6.900   5.261  1.0659 -1.0487  0.1934
  296MOL    H6341953   7.264   6.948   5.429 -2.3105  0.2430 -1.4313
  296MOL    H6441954   7.385   6.846   5.367 -2.1878 -1.7053  0.6055
  296MOL    C6541955   7.382   7.268   5.176 -0.1236 -0.4078 -0.2438
  296MOL    C6641956   7.391   7.248   5.025  0.0213  0.3134 -0.4501
  296MOL    O6741957   7.312   7.391   5.206  0.0933 -0.4669 -0.1190
  296MOL    H6841958   7.482   7.270   5.219 -0.0826 -1.6384 -0.2518
  296MOL    H6941959   7.452   7.163   4.997 -0.8068 -0.4681  0.1010
  296MOL    H7041960   7.444   7.337   4.991 -1.0706  2.1855  2.5009
  296MOL    H7141961   7.290   7.247   4.983 -0.2610 -0.0831  0.2313
  296MOL    C7241962   7.331   7.426   5.340  0.4811 -0.5334 -0.0535
  296MOL    C7341963   7.448   7.520   5.346  0.1566  0.4613 -0.2584
  296MOL    O7441964   7.214   7.492   5.385  1.1960 -0.4161 -0.0986
  296MOL    H7541965   7.353   7.339   5.401  2.0684  0.0832  0.2643
  296MOL    H7641966   7.543   7.484   5.308  0.2974 -0.6445  1.0987
  296MOL    H7741967   7.471   7.540   5.451  2.3545  0.1952 -0.6622
  296MOL    H7841968   7.437   7.619   5.303 -0.9737  0.3557 -0.2433
  296MOL    C7941969   7.106   7.402   5.397  0.3311  0.3808 -0.3581
  296MOL    C8041970   7.102   7.367   5.541  0.3166 -0.2902  0.8536
  296MOL    O8141971   6.987   7.472   5.375  0.2160 -0.8019  0.3535
  296MOL    H8241972   7.112   7.312   5.335 -1.1285  0.0765 -0.1011
  296MOL    H8341973   7.033   7.285   5.560 -0.9563  0.8606  1.2349
  296MOL    H8441974   7.066   7.455   5.594 -2.9588  0.2851 -2.1568
  296MOL    H8541975   7.200   7.341   5.582  1.3864  0.6903 -0.9649
  296MOL    C8641976   6.981   7.520   5.239  0.3757 -0.4458 -0.5998
  296MOL    C8741977   6.886   7.427   5.174  0.5809 -1.2500  0.1021
  296MOL    O8841978   6.925   7.651   5.253 -0.2516 -0.3168  0.1357
  296MOL    H8941979   7.079   7.538   5.195 -0.4038  0.8437 -1.8527
  296MOL    H9041980   6.788   7.429   5.222 -0.9122 -1.2652 -2.8430
  296MOL    H9141981   6.918   7.323   5.168  1.6583 -0.9264  0.1001
  296MOL    H9241982   6.873   7.460   5.071  0.3767  0.5444  0.6764
  296MOL    C9341983   7.015   7.748   5.294  0.2619 -1.0111  0.3626
  296MOL    C9441984   7.065   7.807   5.162  0.2743  0.3639 -0.1896
  296MOL    O9541985   6.944   7.855   5.359  0.2828  0.0792 -1.0766
  296MOL    H9641986   7.087   7.707   5.364 -2.3574  0.1761  3.8922
  296MOL    H9741987   6.980   7.839   5.102 -0.7816  1.2231  1.7360
  296MOL    H9841988   7.124   7.741   5.098  0.6531 -1.5475  2.0561
  296MOL    H9941989   7.130   7.893   5.184  0.6458  0.5050 -1.7836
  296MOL   C10041990   6.911   7.822   5.495 -0.4267 -0.4911  0.0865
  296MOL   C10141991   6.993   7.907   5.588 -0.3178  0.2050  0.0304
  296MOL   O10241992   6.773   7.848   5.530  0.4102  0.6868  0.0245
  296MOL   H10341993   6.936   7.720   5.522  0.0466 -0.0046  1.5039
  296MOL   H10441994   6.968   7.888   5.693  0.4240 -0.6977  0.0422
  296MOL   H10541995   6.965   0.097   5.569 -1.3652 -0.0044  0.3491
  296MOL   H10641996   7.100   7.900   5.571 -0.2179  0.9172  0.3507
  296MOL   C10741997   6.697   7.740   5.482 -0.1847 -0.9340  0.6994
  296MOL   C10841998   6.649   7.649   5.593  0.5453  0.2601 -0.1509
  296MOL   O10941999   6.589   7.780   5.397  0.3450  0.5128 -0.2833
  296MOL   H11042000   6.749   7.668   5.419 -0.6501 -0.7023  0.0457
  296MOL   H11142001   6.715   7.611   5.672 -0.0739 -1.8104 -0.6060
  296MOL   H11242002   6.604   7.555   5.561  1.8650  0.2433 -2.0313
  296MOL   H11342003   6.590   7.711   5.661 -1.1405  0.2449 -1.5835
  296MOL   C11442004   6.612   7.792   5.257  0.4206 -0.3055  0.0149
  296MOL   C11542005   6.518   7.695   5.190 -0.1586  0.2903  0.2842
  296MOL   O11642006   6.564   0.005   5.216  0.1935  0.4824 -0.2989
  296MOL   H11742007   6.712   7.777   5.216  1.5527 -1.0507  2.9196
  296MOL   H11842008   6.414   7.720   5.214  0.0563  0.0969  1.4211
  296MOL   H11942009   6.544   7.591   5.210 -0.6859  0.1519  0.2585
  296MOL   H12042010   6.535   7.705   5.082  1.6246 -0.7409  0.4656
  296MOL   C12142011   6.657   0.104   5.242 -0.5641  0.6975  0.3457
  296MOL   C12242012   6.730   0.125   5.110  0.1232  0.4003 -0.3945
  296MOL   O12342013   6.585   0.219   5.279  0.0539 -0.1889  0.1245
  296MOL   H12442014   6.723   0.081   5.325 -1.3083  0.4980  0.8836
  296MOL   H12542015   6.791   0.037   5.089 -1.4924 -0.6625 -0.6732
  296MOL   H12642016   6.794   0.212   5.127  1.6580 -0.8074  0.0784
  296MOL   H12742017   6.666   0.156   5.027  1.8928  2.5959 -1.0051
  296MOL   C12842018   6.536   0.225   5.412  0.0086  1.0094  0.5078
  296MOL   C12942019   6.619   0.337   5.471 -0.8630 -0.3321 -0.1592
  296MOL   O13042020   6.403   0.255   5.420 -0.3301 -0.2518 -0.2152
  296MOL   H13142021   6.553   0.133   5.469 -0.7751  0.0325 -0.8107
  296MOL   H13242022   6.714   0.286   5.485 -0.1038  0.1907 -3.0518
  296MOL   H13342023   6.574   0.370   5.564 -1.3940 -0.8205 -0.2430
  296MOL   H13442024   6.624   0.425   5.407 -0.6215 -0.8403 -0.8450
  296MOL   C13542025   6.319   0.141   5.417 -0.4017  0.2513 -0.1804
  296MOL   C13642026   6.177   0.196   5.447 -0.5400  0.4769  0.2529
  296MOL   O13742027   6.318   0.082   5.290  0.5483  0.4984 -0.4580
  296MOL   H13842028   6.352   0.065   5.487 -2.2642 -0.4872 -0.0555
  296MOL   H13942029   6.181   0.234   5.549  0.3464  0.9991  0.0339
  296MOL   H14042030   6.092   0.128   5.442 -0.8585  0.9379 -1.0753
  296MOL   H14142031   6.163   0.275   5.373 -2.9900 -0.1047  0.0379
  296MOL   H14242032   6.410   0.071   5.270  0.2681  0.7446 -1.8789
  297MOL     C142033   0.203   2.328   5.962 -0.6373  0.2380 -0.8492
  297MOL     C242034   0.186   2.428   5.851  0.1694  0.7460  0.3735
  297MOL     O342035   0.336   2.272   5.951 -0.0096 -0.0779 -0.4080
  297MOL     H442036   0.125   2.253   5.945 -0.6124 -0.0153  0.0892
  297MOL     H542037   0.201   2.378   5.756  0.4777  2.0507 -0.2797
  297MOL     H642038   0.248   2.518   5.859 -0.8056  1.2932  2.1201
  297MOL     H742039   0.094   2.483   5.875  0.7802  1.6069  0.7857
  297MOL     H842040   0.181   2.367   6.062 -1.4241  0.7006 -1.2028
  297MOL     C942041   0.361   2.166   6.031 -0.3874 -0.9091  0.3317
  297MOL    C1042042   0.491   2.105   5.985  1.0554 -0.3666  0.0134
  297MOL    O1142043   0.367   2.208   6.165  0.7548 -0.5516  0.1755
  297MOL    H1242044   0.282   2.092   6.016 -1.2567 -0.5476  2.9188
  297MOL    H1342045   0.473   2.060   5.888 -0.5917  1.2542 -0.4489
  297MOL    H1442046   0.513   2.014   6.042  0.8849 -0.2386  0.2846
  297MOL    H1542047   0.566   2.184   5.986 -2.3685  3.1194 -2.3739
  297MOL    C1642048   0.367   2.111   6.266  0.4165  0.4177 -0.1771
  297MOL    C1742049   0.330   2.185   6.395 -1.1820  0.1061  0.2357
  297MOL    O1842050   0.282   2.003   6.238 -0.1130  0.7423  0.7129
  297MOL    H1942051   0.470   2.076   6.274  1.0607  2.1110 -0.7762
  297MOL    H2042052   0.419   2.244   6.419 -2.1542  0.5615  2.8624
  297MOL    H2142053   0.318   2.108   6.471 -0.2940  1.2074  1.5040
  297MOL    H2242054   0.242   2.250   6.396  0.1229  1.9377 -1.0282
  297MOL    C2342055   0.328   1.876   6.272  0.1967 -0.0738 -0.4863
  297MOL    C2442056   0.205   1.778   6.249 -0.0247 -0.5667  0.1037
  297MOL    O2542057   0.435   1.829   6.198 -0.2138  0.1356 -0.4194
  297MOL    H2642058   0.354   1.889   6.377  0.9496  1.9730 -0.8958
  297MOL    H2742059   0.236   1.676   6.275 -2.4598 -1.1532  0.8287
  297MOL    H2842060   0.167   1.770   6.147  0.8184  0.1188 -0.2702
  297MOL    H2942061   0.132   1.815   6.320  2.0940  0.4970  1.8050
  297MOL    C3042062   0.547   1.769   6.259 -0.7585  0.2129  1.0429
  297MOL    C3142063   0.607   1.685   6.141  0.2460 -0.5608 -0.1979
  297MOL    O3242064   0.640   1.869   6.292  0.5411  0.3771 -0.0819
  297MOL    H3342065   0.523   1.697   6.338 -2.0447 -0.3758  0.1489
  297MOL    H3442066   0.533   1.610   6.115  0.1747 -1.1507  1.5802
  297MOL    H3542067   0.698   1.637   6.178 -0.1466 -1.1018  0.0840
  297MOL    H3642068   0.638   1.745   6.056  3.1354 -1.5628  0.0858
  297MOL    C3742069   0.664   1.867   6.433 -0.1109 -0.1356  0.6308
  297MOL    C3842070   0.740   1.993   6.469 -1.2894  0.5287  0.3160
  297MOL    O3942071   0.545   1.865   6.511  0.2162  0.2744 -0.6737
  297MOL    H4042072   0.734   1.788   6.458 -1.0259 -1.2263 -0.2078
  297MOL    H4142073   0.826   2.014   6.405  0.3766 -3.0484  1.2691
  297MOL    H4242074   0.775   1.981   6.572 -0.1670  1.3450  0.0392
  297MOL    H4342075   0.663   2.071   6.471 -1.7541  0.0568  3.3044
  297MOL    C4442076   0.567   1.799   6.631 -0.0011  0.1690 -0.5514
  297MOL    C4542077   0.430   1.786   6.706 -0.1993 -0.7180  0.4284
  297MOL    O4642078   0.601   1.663   6.617 -0.3392  0.2681 -0.3945
  297MOL    H4742079   0.639   1.863   6.682 -0.8529 -0.4205  1.4244
  297MOL    H4842080   0.371   1.877   6.709 -0.3731 -0.8778  2.3437
  297MOL    H4942081   0.451   1.755   6.808 -0.5832 -0.2636  0.6466
  297MOL    H5042082   0.377   1.708   6.652  1.4555 -1.1653 -0.5933
  297MOL    C5142083   0.693   1.629   6.720  1.2724  0.5949 -0.1605
  297MOL    C5242084   0.740   1.481   6.716  0.6671 -0.0705 -0.6344
  297MOL    O5342085   0.816   1.704   6.705 -0.4014  0.5855  0.8043
  297MOL    H5442086   0.650   1.638   6.820 -0.8698 -2.6081 -0.7299
  297MOL    H5542087   0.802   1.468   6.628  0.0569  1.4892 -1.2988
  297MOL    H5642088   0.653   1.416   6.721  0.7530 -0.1263  0.3134
  297MOL    H5742089   0.793   1.452   6.808  0.2273 -0.1755 -0.4146
  297MOL    C5842090   0.872   1.745   6.823  0.6142  0.4988  0.2050
  297MOL    C5942091   0.996   1.824   6.790  0.0348 -0.5552 -0.2853
  297MOL    O6042092   0.790   1.825   6.901 -0.6810 -0.5518  0.1377
  297MOL    H6142093   0.900   1.649   6.867  1.1928  0.5420 -0.0504
  297MOL    H6242094   0.964   1.915   6.739 -1.3002  0.4962  2.3180
  297MOL    H6342095   1.050   1.769   6.713  1.3522 -0.4078  0.5129
  297MOL    H6442096   1.051   1.856   6.878 -0.3126  0.7031 -0.5108
  297MOL    C6542097   0.797   1.799   7.038  0.0140 -0.3890 -0.4346
  297MOL    C6642098   0.731   1.906   7.111 -0.3580 -0.2712  0.1567
  297MOL    O6742099   0.731   1.679   7.073  0.1690  0.7176 -0.5112
  297MOL    H6842100   0.903   1.795   7.064 -0.4700 -0.6475  1.5893
  297MOL    H6942101   0.750   1.917   7.218 -1.6424 -0.2008  0.3804
  297MOL    H7042102   0.623   1.902   7.097 -0.1909  0.7132 -1.5584
  297MOL    H7142103   0.771   1.999   7.070  1.7125 -1.7932 -1.3581
  297MOL    C7242104   0.814   1.600   7.149 -0.3753 -0.1569 -0.0084
  297MOL    C7342105   0.726   1.484   7.195  0.2210  0.2387  0.0640
  297MOL    O7442106   0.925   1.545   7.074 -0.4731  1.1361 -0.9895
  297MOL    H7542107   0.849   1.661   7.232 -0.6267  1.0554 -0.7744
  297MOL    H7642108   0.785   1.407   7.245 -1.1957 -0.5081  0.6107
  297MOL    H7742109   0.691   1.435   7.104  2.0254 -0.4085 -0.2903
  297MOL    H7842110   0.638   1.511   7.255 -0.8116 -0.9097 -0.9010
  297MOL    C7942111   1.048   1.562   7.128  0.2574  0.1071 -0.0158
  297MOL    C8042112   1.142   1.451   7.083  0.8232 -0.1688  0.8573
  297MOL    O8142113   1.111   1.679   7.105  0.6427 -0.4643  0.3379
  297MOL    H8242114   1.044   1.549   7.236  0.6973  2.2958  0.3010
  297MOL    H8342115   1.102   1.350   7.080  0.7446 -0.2325  3.1610
  297MOL    H8442116   1.245   1.463   7.118  1.1244  0.5510 -0.2497
  297MOL    H8542117   1.145   1.470   6.976  0.7415 -0.9396  0.7191
  297MOL    C8642118   1.160   1.755   7.210 -0.0775 -0.2175 -0.7416
  297MOL    C8742119   1.217   1.883   7.150  0.0001 -0.2546 -0.5838
  297MOL    O8842120   1.052   1.782   7.299  0.0811  0.5721 -0.7978
  297MOL    H8942121   1.242   1.697   7.253 -0.2472  0.6684  0.8164
  297MOL    H9042122   1.309   1.851   7.100  0.5624 -0.4245  0.5568
  297MOL    H9142123   1.247   1.951   7.229 -2.5180 -1.5516  1.5679
  297MOL    H9242124   1.149   1.922   7.073 -0.4888  2.6013  1.2169
  297MOL    C9342125   1.083   1.768   7.437 -0.3587  0.0346 -0.4059
  297MOL    C9442126   0.962   1.825   7.517 -0.4795  0.1392  0.7010
  297MOL    O9542127   1.095   1.630   7.471  0.3097 -0.0852 -0.0010
  297MOL    H9642128   1.172   1.825   7.466  0.2597 -1.5799  0.9617
  297MOL    H9742129   0.875   1.791   7.460 -0.0491  0.0502  0.0871
  297MOL    H9842130   0.969   1.934   7.518  0.1755  0.0930  2.8728
  297MOL    H9942131   0.946   1.779   7.614 -2.9829  1.1254  0.7972
  297MOL   C10042132   1.210   1.581   7.531 -0.0420  0.0909  0.0507
  297MOL   C10142133   1.179   1.448   7.602 -0.5259  0.0068 -0.3320
  297MOL   O10242134   1.315   1.556   7.435  0.2753 -0.2252 -0.0839
  297MOL   H10342135   1.244   1.645   7.613  1.9846 -0.4635 -0.3158
  297MOL   H10442136   1.080   1.467   7.642  0.3044 -0.2040  1.8544
  297MOL   H10542137   1.255   1.421   7.675  0.1538 -1.4766 -1.5580
  297MOL   H10642138   1.181   1.372   7.524  0.6431  2.6674 -3.0363
  297MOL   C10742139   1.431   1.633   7.449  0.9395 -0.4130  0.1367
  297MOL   C10842140   1.527   1.578   7.343  0.3669  0.0814  0.0795
  297MOL   O10942141   1.401   1.769   7.418 -0.4669  0.1115 -0.4474
  297MOL   H11042142   1.480   1.619   7.545  1.7544 -3.3565 -0.6641
  297MOL   H11142143   1.483   1.573   7.243 -0.8617 -0.5713  0.6349
  297MOL   H11242144   1.539   1.474   7.371  0.2697  0.2443  0.7458
  297MOL   H11342145   1.623   1.629   7.347  0.2769  0.4608 -2.0981
  297MOL   C11442146   1.464   1.862   7.506  0.3235 -0.4405 -0.5551
  297MOL   C11542147   1.429   2.009   7.460 -0.1158 -0.3713  0.6409
  297MOL   O11642148   1.421   1.847   7.643  0.4267 -0.3109 -0.0912
  297MOL   H11742149   1.571   1.843   7.498  0.3519  0.0783 -1.4736
  297MOL   H11842150   1.471   2.018   7.360  1.9319 -1.6607  1.3475
  297MOL   H11942151   1.472   2.087   7.523  1.2056  0.4172 -1.1753
  297MOL   H12042152   1.323   2.032   7.455  0.0907  0.5425  0.4281
  297MOL   C12142153   1.519   1.871   7.735  0.2584 -0.2450 -0.5215
  297MOL   C12242154   1.455   1.904   7.871 -0.0724 -0.2863 -0.0404
  297MOL   O12342155   1.592   1.762   7.751  0.3679  1.0768 -0.6266
  297MOL   H12442156   1.571   1.960   7.702  0.8247 -0.3542  0.0635
  297MOL   H12542157   1.392   1.993   7.869 -0.9418 -0.9090 -0.8397
  297MOL   H12642158   1.536   1.916   0.030 -1.2677 -3.7465  1.9702
  297MOL   H12742159   1.391   1.825   7.911  0.1979 -1.1321 -1.2507
  297MOL   C12842160   1.726   1.773   7.781  0.0149  0.0106 -0.0628
  297MOL   C12942161   1.763   1.633   7.828 -0.3066  0.1391 -0.5766
  297MOL   O13042162   1.804   1.802   7.664  0.6922 -0.4533  0.9213
  297MOL   H13142163   1.728   1.853   7.854 -3.1777  0.6670 -0.5912
  297MOL   H13242164   1.756   1.567   7.741  0.6676  2.0449 -2.1481
  297MOL   H13342165   1.694   1.616   7.910  0.5162  0.3613  0.1737
  297MOL   H13442166   1.864   1.628   7.869  0.5652  0.2342 -2.6349
  297MOL   C13542167   1.927   1.860   7.691 -0.0843  0.4707  0.5693
  297MOL   C13642168   2.022   1.838   7.580  0.0485  0.1884 -0.2112
  297MOL   O13742169   1.909   2.004   7.707 -0.1533 -0.0602  0.3716
  297MOL   H13842170   1.967   1.817   7.782 -0.2911  1.5662  1.1880
  297MOL   H13942171   2.111   1.894   7.608  0.2937  0.1020 -0.8182
  297MOL   H14042172   1.990   1.873   7.481 -1.5978  0.5067  0.4200
  297MOL   H14142173   2.039   1.731   7.575  2.3919  0.5889 -1.6415
  297MOL   H14242174   1.987   2.044   7.742  0.5081 -0.2360 -0.8822
  298MOL     C142175   0.170   2.980   0.003  0.6061 -0.0972  0.3289
  298MOL     C242176   0.124   2.831   0.028 -0.2332  0.0808 -0.2766
  298MOL     O342177   0.043   3.049   0.021 -0.0933 -0.5092  0.5895
  298MOL     H442178   0.193   2.999   7.813 -0.6926 -0.3409 -0.0181
  298MOL     H542179   0.043   2.811   7.872  0.8314  0.2037 -1.5760
  298MOL     H642180   0.092   2.806   0.129  0.1701  0.4765 -0.0479
  298MOL     H742181   0.202   2.760   0.001 -1.2128 -1.4936  0.9538
  298MOL     H842182   0.256   3.020   0.057  1.0501 -1.1918  0.4310
  298MOL     C942183   0.018   3.098   0.148 -0.7267  0.3574  0.5081
  298MOL    C1042184   0.069   3.243   0.153  0.2924 -0.1914 -0.2536
  298MOL    O1142185   7.793   3.114   0.163  0.1884 -0.0417 -0.6604
  298MOL    H1242186   0.066   3.046   0.231 -0.0962  1.4534  0.8415
  298MOL    H1342187   0.031   3.283   0.247  1.4201 -1.9810  0.9920
  298MOL    H1442188   0.010   3.295   0.077  0.7952 -2.1414 -2.0306
  298MOL    H1542189   0.178   3.243   0.145  0.1578 -1.4689 -2.5864
  298MOL    C1642190   7.727   2.994   0.191 -0.1883  0.4044  0.3834
  298MOL    C1742191   7.721   2.979   0.344 -0.0601  0.4668 -0.3006
  298MOL    O1842192   7.597   2.993   0.134 -0.4769 -0.7098  0.3361
  298MOL    H1942193   7.776   2.904   0.153 -1.0062 -0.0956  0.4850
  298MOL    H2042194   7.679   3.062   0.401  1.6074  0.1579  1.4094
  298MOL    H2142195   7.822   2.961   0.381 -0.7707  0.0346  1.4600
  298MOL    H2242196   7.668   2.887   0.369 -0.1905  1.1182  1.9515
  298MOL    C2342197   7.607   2.954   7.910 -0.4606  0.0361  0.1426
  298MOL    C2442198   7.528   2.817   7.891  0.0707 -0.0598  1.1877
  298MOL    O2542199   7.544   3.044   7.827 -0.4912  0.1245 -0.5148
  298MOL    H2642200   7.706   2.925   7.874 -1.4703 -2.5324 -0.6971
  298MOL    H2742201   7.426   2.817   0.017 -1.1725 -1.0865 -1.8903
  298MOL    H2842202   7.591   2.742   0.026  1.5839 -0.4820 -1.3543
  298MOL    H2942203   7.519   2.780   7.789 -1.2177  2.5773  0.3135
  298MOL    C3042204   7.620   3.156   7.803  0.8207 -1.0281 -0.2386
  298MOL    C3142205   7.665   3.149   7.664 -0.2683 -0.1223  0.1709
  298MOL    O3242206   7.542   3.269   7.809 -0.1085 -0.4046 -0.8016
  298MOL    H3342207   7.716   3.162   7.855  0.6674 -0.2322 -0.0525
  298MOL    H3442208   7.576   3.139   7.602 -1.2790  0.3619  1.5046
  298MOL    H3542209   7.732   3.063   7.658 -1.6810 -1.5151  2.9397
  298MOL    H3642210   7.707   3.247   7.641 -1.2025  0.1327 -0.4838
  298MOL    C3742211   7.513   3.305   0.028  0.1271  0.3185  0.6545
  298MOL    C3842212   7.589   3.435   0.055  0.1931  0.5221  0.0178
  298MOL    O3942213   7.381   3.336   0.038  0.4698  0.4165 -0.3920
  298MOL    H4042214   7.531   3.230   0.105 -2.4917  0.3857  1.3684
  298MOL    H4142215   7.559   3.511   7.897  0.1367  1.1089  0.6490
  298MOL    H4242216   7.696   3.417   0.050  0.2833  1.3609 -1.5413
  298MOL    H4342217   7.563   3.483   0.149  0.8995 -0.2196  0.5998
  298MOL    C4442218   7.299   3.220   0.035  0.4376 -0.2942  0.1302
  298MOL    C4542219   7.277   3.167   0.176  0.1679 -0.4420 -0.1249
  298MOL    O4642220   7.174   3.246   7.896  0.2502  0.2993 -0.0322
  298MOL    H4742221   7.346   3.143   7.887  2.7076  0.8564  0.3544
  298MOL    H4842222   7.372   3.128   0.213 -0.4462  1.3800  3.6988
  298MOL    H4942223   7.197   3.093   0.182 -0.2384 -0.0544 -0.7004
  298MOL    H5042224   7.244   3.251   0.238 -0.8935 -1.1373  0.2652
  298MOL    C5142225   7.167   3.283   7.763 -0.3629  0.5104 -0.4081
  298MOL    C5242226   7.108   3.166   7.683 -0.4702  0.5378  0.0940
  298MOL    O5342227   7.090   3.396   7.747 -0.3804 -0.2744  0.2735
  298MOL    H5442228   7.264   3.304   7.717  0.8728 -0.2265  1.7462
  298MOL    H5542229   7.107   3.173   7.574 -1.9327 -0.1951  0.0401
  298MOL    H5642230   7.006   3.142   7.716 -0.5101  0.3347 -0.1757
  298MOL    H5742231   7.153   3.070   7.705 -1.1854 -0.7159 -3.5375
  298MOL    C5842232   7.160   3.522   7.754 -0.0500  0.0131 -0.4426
  298MOL    C5942233   7.149   3.587   7.622 -0.9464 -0.3044  0.6752
  298MOL    O6042234   7.103   3.603   7.850 -0.0366 -0.0633 -0.1310
  298MOL    H6142235   7.267   3.514   7.776  0.4572  1.2980 -2.2941
  298MOL    H6242236   7.192   3.517   7.551 -2.0042 -0.2805  0.0022
  298MOL    H6342237   7.212   3.676   7.617 -1.3264 -0.0725  0.0266
  298MOL    H6442238   7.047   3.617   7.599 -1.0669  1.4952  3.2853
  298MOL    C6542239   7.128   3.568   0.073 -0.1754 -0.7321  0.8089
  298MOL    C6642240   7.238   3.666   0.114  0.5675 -0.4806 -0.2532
  298MOL    O6742241   7.011   3.598   0.143  0.8680 -0.2061 -0.2942
  298MOL    H6842242   7.148   3.461   0.084 -1.4072 -0.9915  0.5572
  298MOL    H6942243   7.332   3.634   0.071  0.3823  0.1626 -1.1396
  298MOL    H7042244   7.260   3.667   0.221 -0.2708  1.3485 -0.0612
  298MOL    H7142245   7.218   3.766   0.074  0.2515  0.3022  1.7568
  298MOL    C7242246   6.901   3.516   0.107 -0.2351  0.7455 -0.5837
  298MOL    C7342247   6.884   3.404   0.216 -0.0252 -0.5883 -0.1175
  298MOL    O7442248   6.782   3.586   0.115 -0.2788 -0.1504  0.5455
  298MOL    H7542249   6.908   3.480   0.004 -1.5452 -1.5642  0.1034
  298MOL    H7642250   6.980   3.359   0.242  0.5075  0.7995  0.3274
  298MOL    H7742251   6.803   3.336   0.187 -0.3804 -0.1826 -0.0808
  298MOL    H7842252   6.847   3.449   0.308  1.0821 -0.0076  0.0582
  298MOL    C7942253   6.784   3.692   0.028 -0.1117  0.0598 -0.4317
  298MOL    C8042254   6.699   3.654   7.822 -0.2606 -0.4303  0.0670
  298MOL    O8142255   6.732   3.815   0.086 -0.3126 -0.1962 -0.0413
  298MOL    H8242256   6.882   3.720   7.903  1.7552 -1.4569  3.0369
  298MOL    H8342257   6.709   3.731   7.747  0.6043 -0.1496  0.4608
  298MOL    H8442258   6.596   3.647   7.857  0.2607 -1.0720  1.5279
  298MOL    H8542259   6.732   3.556   7.786  1.0798  0.1834 -0.3908
  298MOL    C8642260   6.817   3.860   0.192 -0.5753  0.2647  1.0284
  298MOL    C8742261   6.875   3.994   0.147  0.0892  0.4245 -0.1143
  298MOL    O8842262   6.756   3.887   0.309 -0.8863 -0.2162  0.0488
  298MOL    H8942263   6.904   3.800   0.220  1.9449  2.9121 -0.8618
  298MOL    H9042264   6.931   3.983   0.054 -1.5891 -0.1055 -1.0846
  298MOL    H9142265   6.942   4.029   0.226 -1.6424  2.0292  0.6808
  298MOL    H9242266   6.794   4.067   0.147 -1.5646 -1.3524  1.0989
  298MOL    C9342267   6.694   3.785   0.380 -0.5324 -0.4519  0.0271
  298MOL    C9442268   6.792   3.743   0.489  0.2107 -0.7296 -0.0313
  298MOL    O9542269   6.580   3.828   0.444 -0.1031 -0.0687 -0.1066
  298MOL    H9642270   6.667   3.702   0.314  0.5925 -0.4325 -0.4709
  298MOL    H9742271   6.756   3.659   0.549 -1.4865 -1.1323 -1.5792
  298MOL    H9842272   6.815   3.826   0.556 -2.1206 -0.2454  0.2192
  298MOL    H9942273   6.891   3.712   0.453  0.9400  0.7399  0.6799
  298MOL   C10042274   6.471   3.871   0.359  0.2338  0.1138  0.8852
  298MOL   C10142275   6.374   3.753   0.350  0.4118  0.2687 -0.1283
  298MOL   O10242276   6.396   3.976   0.423 -0.2561  0.3195 -0.0667
  298MOL   H10342277   6.504   3.909   0.262  1.3941  0.1133  1.2683
  298MOL   H10442278   6.418   3.670   0.294 -0.4166  0.1718 -0.6554
  298MOL   H10542279   6.287   3.793   0.298  0.3672  0.3043 -0.0254
  298MOL   H10642280   6.347   3.728   0.453 -1.0962  0.4313 -0.4783
  298MOL   C10742281   6.480   4.083   0.453  0.3938  0.1747  0.2239
  298MOL   C10842282   6.431   4.200   0.367  0.2002 -0.1311 -0.3095
  298MOL   O10942283   6.470   4.133   0.589 -0.2559  1.0191 -0.2438
  298MOL   H11042284   6.587   4.080   0.432  0.3562  0.9313 -0.0689
  298MOL   H11142285   6.452   4.187   0.261 -1.7876  0.4871 -0.8075
  298MOL   H11242286   6.479   4.296   0.388  1.2285 -1.0188  1.5094
  298MOL   H11342287   6.322   4.204   0.364  0.1081  0.8770  2.4562
  298MOL   C11442288   6.494   4.039   0.691  0.5685  0.3732 -0.8011
  298MOL   C11542289   6.640   4.047   0.720  0.3407  0.7591 -0.8856
  298MOL   O11642290   6.419   4.075   0.806  0.1609 -0.2743 -0.0721
  298MOL   H11742291   6.468   3.940   0.652 -0.1336  0.5964 -0.9184
  298MOL   H11842292   6.699   4.047   0.628  2.5726 -0.3469  0.5075
  298MOL   H11942293   6.680   3.957   0.765 -0.5052  0.5165 -0.6265
  298MOL   H12042294   6.668   4.134   0.779  2.1203 -0.3661 -0.0163
  298MOL   C12142295   6.279   4.056   0.784  0.6817 -0.2482 -0.1970
  298MOL   C12242296   6.254   3.917   0.831 -0.4658  0.8197 -0.0194
  298MOL   O12342297   6.208   4.144   0.868  0.1448 -0.1249  0.3225
  298MOL   H12442298   6.255   4.065   0.678  1.3822  1.4950 -0.2211
  298MOL   H12542299   6.302   3.853   0.757 -0.7708  1.6527 -0.9434
  298MOL   H12642300   6.145   3.911   0.831 -0.5799  2.4864  0.9739
  298MOL   H12742301   6.296   3.902   0.931 -0.9805  3.1173  0.5791
  298MOL   C12842302   6.186   4.267   0.809 -0.2940  0.1793  0.5071
  298MOL   C12942303   6.035   4.278   0.775  0.3624 -0.3291  1.1225
  298MOL   O13042304   6.212   4.360   0.910  0.2488 -0.3486  0.0990
  298MOL   H13142305   6.247   4.302   0.725 -0.1861  2.6895  1.5974
  298MOL   H13242306   6.006   4.225   0.684 -0.2229  1.1920  0.4172
  298MOL   H13342307   6.015   4.384   0.762  1.6156 -0.0787  1.1836
  298MOL   H13442308   5.976   4.257   0.864  0.4799  1.6876  1.7002
  298MOL   C13542309   6.348   4.364   0.953  0.4823  0.6121  0.4249
  298MOL   C13642310   6.384   4.509   0.993  0.4348  0.4153 -0.1051
  298MOL   O13742311   6.366   4.287   1.067  0.5687 -0.1961 -0.8127
  298MOL   H13842312   6.418   4.337   0.875 -1.4012 -0.2961 -1.0102
  298MOL   H13942313   6.371   4.555   0.895  2.2228  1.3311  0.0624
  298MOL   H14042314   6.488   4.531   1.018  0.5522  0.4073 -0.5706
  298MOL   H14142315   6.314   4.537   1.072  1.6305  1.0516  0.7371
  298MOL   H14242316   6.365   4.196   1.042 -2.2252 -0.4415 -0.0052
  299MOL     C142317   1.061   4.109   6.605 -0.1622  0.6511 -0.6475
  299MOL     C242318   1.189   4.042   6.645 -0.3390 -0.0612  0.9190
  299MOL     O342319   1.041   4.227   6.689  0.4411 -0.5506 -0.0972
  299MOL     H442320   0.980   4.036   6.602 -0.1790  0.7059 -1.7805
  299MOL     H542321   1.265   4.117   6.667  0.7945 -1.3928  1.5791
  299MOL     H642322   1.222   3.958   6.583 -0.0628 -0.8569  2.1391
  299MOL     H742323   1.188   3.994   6.742 -0.5272  0.0843  0.9894
  299MOL     H842324   1.058   4.151   6.504 -1.0724  1.4488 -0.2914
  299MOL     C942325   0.934   4.303   6.653  0.2856 -0.1066  0.2688
  299MOL    C1042326   0.918   4.418   6.756  0.6726 -0.7177  0.2754
  299MOL    O1142327   0.958   4.363   6.527  0.1186  0.5990  0.2942
  299MOL    H1242328   0.848   4.236   6.660 -0.6611  0.7751 -2.2699
  299MOL    H1342329   0.982   4.503   6.732 -0.6507  0.1762 -0.1393
  299MOL    H1442330   0.932   4.381   6.857  0.1974  0.8301  0.9299
  299MOL    H1542331   0.819   4.464   6.756  0.3329 -1.3819 -1.5705
  299MOL    C1642332   0.838   4.395   6.452  0.1546  0.1847  0.5141
  299MOL    C1742333   0.893   4.430   6.308 -0.7592 -0.0733 -0.9192
  299MOL    O1842334   0.771   4.273   6.433 -1.0292 -0.4057 -0.5682
  299MOL    H1942335   0.776   4.470   6.501 -1.4666 -0.0089 -1.1685
  299MOL    H2042336   0.969   4.354   6.287  0.5123  1.0113 -0.3595
  299MOL    H2142337   0.929   4.533   6.303 -1.3767  0.2228  0.5493
  299MOL    H2242338   0.816   4.429   6.231 -1.3958 -0.7808 -0.2783
  299MOL    C2342339   0.630   4.287   6.437 -0.5747 -0.3269 -0.5717
  299MOL    C2442340   0.584   4.148   6.406 -0.0215  0.1488  0.1997
  299MOL    O2542341   0.576   4.322   6.557  0.0833  0.2590 -0.8778
  299MOL    H2642342   0.608   4.352   6.352 -0.7434  1.5318  0.8682
  299MOL    H2742343   0.627   4.120   6.311  0.9267  0.6642  0.4643
  299MOL    H2842344   0.476   4.151   6.398  0.0134 -0.9181 -0.7014
  299MOL    H2942345   0.597   4.066   6.476  0.1049  0.5263  0.6266
  299MOL    C3042346   0.483   4.423   6.539  0.2344 -0.1568  0.5076
  299MOL    C3142347   0.426   4.467   6.674 -0.6564 -0.2291  0.4021
  299MOL    O3242348   0.539   4.540   6.481 -0.1086 -0.4738 -0.0288
  299MOL    H3342349   0.405   4.380   6.476  2.0655  0.7020 -2.4458
  299MOL    H3442350   0.394   4.383   6.736  2.9600 -0.2235  2.4024
  299MOL    H3542351   0.342   4.536   6.667  0.2113  0.9304  1.3653
  299MOL    H3642352   0.509   4.513   6.727 -0.3965  0.7402 -0.8263
  299MOL    C3742353   0.462   4.589   6.377 -0.5376 -0.4284 -0.1497
  299MOL    C3842354   0.503   4.732   6.387  0.0807 -0.7648  0.4030
  299MOL    O3942355   0.515   4.548   6.253 -0.1941  0.1828  0.3426
  299MOL    H4042356   0.354   4.574   6.390 -0.3888 -2.2116 -0.8171
  299MOL    H4142357   0.470   4.766   6.485 -0.0790  0.0291  0.0752
  299MOL    H4242358   0.466   4.792   6.304  0.3638  1.0031  1.5255
  299MOL    H4342359   0.610   4.748   6.397 -0.2560 -0.3428  4.0106
  299MOL    C4442360   0.422   4.507   6.165 -0.3642 -0.7550 -0.6430
  299MOL    C4542361   0.495   4.517   6.029 -0.0016  0.0143 -0.2961
  299MOL    O4642362   0.401   4.371   6.195 -0.0537 -0.2246  0.0561
  299MOL    H4742363   0.336   4.574   6.165 -0.3342 -0.7117  0.6039
  299MOL    H4842364   0.516   4.622   6.009 -1.2423  0.1625 -0.8553
  299MOL    H4942365   0.432   4.488   5.945  0.2193 -1.5709  0.0863
  299MOL    H5042366   0.587   4.459   6.030  0.0592  0.1147  0.3083
  299MOL    C5142367   0.268   4.335   6.188  1.3344 -0.0561 -0.5315
  299MOL    C5242368   0.259   4.188   6.171  0.0394 -0.1363 -0.6215
  299MOL    O5342369   0.207   4.368   6.306 -1.0060  0.6449 -0.0973
  299MOL    H5442370   0.228   4.374   6.094  0.0525 -1.3476 -0.5410
  299MOL    H5542371   0.316   4.155   6.084  2.8819  2.0432  0.3362
  299MOL    H5642372   0.157   4.160   6.145 -0.4694  0.6857  0.4490
  299MOL    H5742373   0.304   4.127   6.250 -1.0598  0.5771  0.5792
  299MOL    C5842374   0.087   4.444   6.286  0.5598 -0.0399  0.7956
  299MOL    C5942375   0.009   4.428   6.422 -0.0359  0.5641  0.1605
  299MOL    O6042376   0.122   4.579   6.282  0.3108 -0.0674  0.3388
  299MOL    H6142377   0.026   4.412   6.202 -0.6029  2.6122  0.5888
  299MOL    H6242378   0.080   4.432   6.505  2.2425  0.3111 -1.7086
  299MOL    H6342379   7.882   4.328   6.412 -2.0711  1.3996 -0.0380
  299MOL    H6442380   7.844   4.503   6.416 -0.9524 -0.3942  0.1061
  299MOL    C6542381   0.073   4.652   6.169 -0.5376  0.1815  0.2418
  299MOL    C6642382   0.132   4.792   6.177  0.3656 -0.4908  0.2249
  299MOL    O6742383   0.097   4.595   6.046 -0.6042  0.2234 -0.3487
  299MOL    H6842384   7.881   4.640   6.193 -0.4341 -1.8743 -0.1963
  299MOL    H6942385   0.109   4.852   6.089  2.1322 -0.3593 -0.1683
  299MOL    H7042386   0.240   4.785   6.183  0.3566 -0.9101 -0.0288
  299MOL    H7142387   0.104   4.841   6.270 -3.9951 -2.3596  0.0464
  299MOL    C7242388   7.908   4.626   5.959 -0.4815  0.4148  0.9993
  299MOL    C7342389   0.032   4.568   5.821 -0.2736  0.7820 -0.1382
  299MOL    O7442390   7.788   4.566   5.998 -0.5916  0.2154  0.6874
  299MOL    H7542391   7.907   4.735   5.952  1.9374  0.3622 -1.4978
  299MOL    H7642392   7.886   4.615   5.743  1.9779  1.0453 -1.7896
  299MOL    H7742393   0.025   4.460   5.831  1.1286  0.5666 -1.2663
  299MOL    H7842394   0.137   4.575   5.790 -0.0305 -1.3110  0.1041
  299MOL    C7942395   7.678   4.639   5.958  0.2933 -0.3609 -0.0918
  299MOL    C8042396   7.561   4.545   5.972 -0.1804  0.0450  0.9187
  299MOL    O8142397   7.671   4.753   6.042  0.4685 -0.5039 -0.8204
  299MOL    H8242398   7.684   4.659   5.851  1.7639  1.5974  0.3197
  299MOL    H8342399   7.475   4.605   5.939  0.3216 -0.5510 -1.5664
  299MOL    H8442400   7.555   4.519   6.077 -2.4379 -1.5641  0.4315
  299MOL    H8542401   7.573   4.458   5.908 -0.1550  1.0737 -0.5190
  299MOL    C8642402   7.646   4.876   5.975  0.0656 -0.8081 -0.5879
  299MOL    C8742403   7.593   4.974   6.081  0.0448 -0.2812 -0.4759
  299MOL    O8842404   7.770   4.921   5.926 -0.2551  0.1003 -0.5776
  299MOL    H8942405   7.574   4.860   5.895 -0.0340  0.6015 -0.7976
  299MOL    H9042406   7.495   4.934   6.108 -0.1352 -0.5239 -1.4567
  299MOL    H9142407   7.566   5.070   6.038  0.3909  0.0058 -0.0517
  299MOL    H9242408   7.659   4.984   6.167 -2.0039 -0.1401  1.1160
  299MOL    C9342409   7.761   4.986   5.799  0.3182  0.1406  0.4103
  299MOL    C9442410   7.877   5.093   5.791 -0.7856 -0.7774  0.4942
  299MOL    O9542411   7.776   4.904   5.683 -0.2630  0.1220  0.0989
  299MOL    H9642412   7.670   5.045   5.787  1.0961  2.0593  3.3035
  299MOL    H9742413   0.056   5.040   5.813 -0.1652 -0.1623 -0.6076
  299MOL    H9842414   7.852   5.172   5.861  2.2909  2.4125 -1.8764
  299MOL    H9942415   7.884   5.145   5.695 -1.0243  0.5648  1.1907
  299MOL   C10042416   7.665   4.884   5.605 -0.6620  0.0742 -0.3647
  299MOL   C10142417   7.711   4.813   5.484  1.1612  0.2082 -0.3407
  299MOL   O10242418   7.574   4.795   5.658  0.2794 -0.0376 -0.2623
  299MOL   H10342419   7.620   4.976   5.569  3.5014  2.5788  0.4289
  299MOL   H10442420   7.630   4.805   5.412  1.8031 -0.4892 -1.0052
  299MOL   H10542421   7.733   4.708   5.506  1.1155  0.4031  0.6775
  299MOL   H10642422   7.796   4.866   5.440  1.9799 -2.7743 -2.5082
  299MOL   C10742423   7.442   4.825   5.637 -0.0793  0.2454  0.2758
  299MOL   C10842424   7.358   4.696   5.630 -0.4823 -0.0232  0.1005
  299MOL   O10942425   7.389   4.896   5.745 -0.1179 -0.9627 -0.6413
  299MOL   H11042426   7.425   4.869   5.539 -0.2146  0.7921  0.5457
  299MOL   H11142427   7.395   4.631   5.551  0.5600 -0.5503  1.0075
  299MOL   H11242428   7.250   4.705   5.622 -0.6743 -2.1245  0.0460
  299MOL   H11342429   7.378   4.634   5.718 -1.0292  0.6160  0.6745
  299MOL   C11442430   7.329   5.020   5.709 -0.0391  0.5777  0.4974
  299MOL   C11542431   7.269   5.087   5.836 -0.3633 -0.1613 -0.0219
  299MOL   O11642432   7.427   5.108   5.663  0.4999  0.0482  0.1642
  299MOL   H11742433   7.252   4.993   5.638 -0.4939 -2.3963  2.0562
  299MOL   H11842434   7.347   5.096   5.912 -0.5644 -0.9546  0.2837
  299MOL   H11942435   7.185   5.038   5.886 -1.1545  2.1829  1.0801
  299MOL   H12042436   7.241   5.191   5.815  0.7106  0.1224 -0.0779
  299MOL   C12142437   7.397   5.162   5.540 -0.1473  0.0147  0.2827
  299MOL   C12242438   7.467   5.291   5.531  0.1540  0.0754 -0.4289
  299MOL   O12342439   7.448   5.077   5.435  0.2377 -0.0040  0.5901
  299MOL   H12442440   7.290   5.185   5.537 -0.1092  0.9338  3.7833
  299MOL   H12542441   7.464   5.320   5.426 -1.6354  0.1676 -0.3648
  299MOL   H12642442   7.568   5.286   5.570 -0.0941  0.8807  0.3259
  299MOL   H12742443   7.404   5.366   5.579 -0.7998  1.0682 -3.1290
  299MOL   C12842444   7.383   5.093   5.309  1.4468 -0.7111  0.4555
  299MOL   C12942445   7.421   4.980   5.219 -0.7040  0.1370  0.1332
  299MOL   O13042446   7.245   5.076   5.323  0.2393  0.0184  0.1765
  299MOL   H13142447   7.431   5.182   5.267  1.0701 -1.9002 -2.6391
  299MOL   H13242448   7.367   4.886   5.229  0.6455 -0.9049 -2.0263
  299MOL   H13342449   7.527   4.952   5.220 -0.3379  1.5059  0.9710
  299MOL   H13442450   7.416   5.007   5.113  1.4287  0.1126 -0.0050
  299MOL   C13542451   7.175   5.175   5.252 -0.0105  0.3430  0.1339
  299MOL   C13642452   7.027   5.158   5.277  0.4060  0.2447 -0.2138
  299MOL   O13742453   7.211   5.306   5.301  0.7879 -0.2894  0.3326
  299MOL   H13842454   7.198   5.172   5.146  3.1567 -2.6975  0.8416
  299MOL   H13942455   6.986   5.057   5.267  1.3666 -0.0771 -0.9358
  299MOL   H14042456   6.963   5.225   5.219  1.1211 -0.6769 -2.0921
  299MOL   H14142457   7.008   5.177   5.383 -0.9622 -2.8778  0.1542
  299MOL   H14242458   7.271   5.345   5.239  0.7979 -2.1545 -0.8673
  300MOL     C142459   5.860   6.145   7.420 -0.6048 -0.7763  0.2482
  300MOL     C242460   5.867   6.085   7.558  0.1327  0.1700 -0.7305
  300MOL     O342461   5.936   6.057   7.338  0.0458  0.0248  0.2788
  300MOL     H442462   5.888   6.250   7.425  0.9018 -1.2412  2.2324
  300MOL     H542463   5.969   6.097   7.595 -0.9102 -1.5461  2.8794
  300MOL     H642464   5.846   5.978   7.549  0.7425 -0.3568  3.4062
  300MOL     H742465   5.801   6.134   7.629  0.3904 -1.2586  0.5247
  300MOL     H842466   5.757   6.140   7.385 -1.0115 -1.1868  1.4754
  300MOL     C942467   5.924   6.068   7.199  0.0244 -0.5767 -0.7644
  300MOL    C1042468   6.022   6.182   7.158 -0.5590  0.4782 -1.1255
  300MOL    O1142469   5.979   5.955   7.138  0.4028 -0.4510  0.2069
  300MOL    H1242470   5.823   6.094   7.167  0.5655  3.2056  0.3568
  300MOL    H1342471   5.969   6.271   7.193 -2.5543 -1.5490  1.2331
  300MOL    H1442472   6.028   6.188   7.049  2.6673 -2.3160 -1.1673
  300MOL    H1542473   6.126   6.172   7.190 -0.4734  2.6243 -0.6436
  300MOL    C1642474   5.884   5.852   7.153  0.4215  0.2600 -0.3441
  300MOL    C1742475   5.812   5.841   7.017  1.1237  0.6825 -0.0566
  300MOL    O1842476   5.941   5.729   7.178  0.2422 -0.5393  0.4707
  300MOL    H1942477   5.803   5.878   7.221  3.0733  0.5263  2.8293
  300MOL    H2042478   5.752   5.930   6.999  0.5239  0.3389  0.2398
  300MOL    H2142479   5.751   5.755   6.993  1.9178 -0.4012  1.6618
  300MOL    H2242480   5.892   5.840   6.943  1.2388 -3.4555 -0.0086
  300MOL    C2342481   5.961   5.702   7.310 -0.2847  0.4131  0.7098
  300MOL    C2442482   5.872   5.590   7.360  0.1847  0.1563  0.0365
  300MOL    O2542483   6.094   5.643   7.313  0.0754 -0.3311 -0.2673
  300MOL    H2642484   5.942   5.791   7.370  2.4282  1.9310 -0.5976
  300MOL    H2742485   5.905   5.554   7.457 -3.4256 -1.4297  0.7655
  300MOL    H2842486   5.880   5.502   7.297  1.2621  1.8246 -2.2130
  300MOL    H2942487   5.768   5.625   7.356  0.3648  0.8466  1.0976
  300MOL    C3042488   6.199   5.727   7.285  0.0606 -0.0059  0.6314
  300MOL    C3142489   6.232   5.802   7.417 -0.5355  0.3168  0.4414
  300MOL    O3242490   6.303   5.656   7.246  0.0026  0.5101  0.2430
  300MOL    H3342491   6.181   5.798   7.203  2.0094 -0.6841 -0.4092
  300MOL    H3442492   6.138   5.848   7.449 -0.0452 -0.7005  3.4878
  300MOL    H3542493   6.320   5.865   7.403 -1.7407  1.3150 -3.2402
  300MOL    H3642494   6.260   5.736   7.499 -1.5793 -0.0619  0.4948
  300MOL    C3742495   6.300   5.613   7.111  0.6037 -0.2524 -0.3021
  300MOL    C3842496   6.415   5.680   7.041 -0.1510  0.4755  0.6939
  300MOL    O3942497   6.317   5.478   7.099  0.6586  0.3327  0.1834
  300MOL    H4042498   6.209   5.646   7.060  0.7267  1.2939  0.4472
  300MOL    H4142499   6.504   5.673   7.104 -0.1132  2.2414  0.8462
  300MOL    H4242500   6.412   5.789   7.037  0.4780  0.4722  0.0759
  300MOL    H4342501   6.429   5.631   6.945  0.5780 -0.8594  1.4639
  300MOL    C4442502   6.194   5.408   7.121 -0.7456 -0.2944 -0.0171
  300MOL    C4542503   6.143   5.359   6.986  0.1225 -0.5518  0.7955
  300MOL    O4642504   6.213   5.292   7.194 -0.1090  0.0698 -0.9831
  300MOL    H4742505   6.110   5.460   7.167  0.5344  1.6554  0.1926
  300MOL    H4842506   6.048   5.309   7.004 -1.4064  1.3827 -1.5562
  300MOL    H4942507   6.217   5.287   6.951  1.2154 -0.3074  2.5279
  300MOL    H5042508   6.125   5.440   6.915  0.7909 -0.1591  1.0724
  300MOL    C5142509   6.227   5.307   7.330 -0.0378  0.4054  0.0926
  300MOL    C5242510   6.110   5.229   7.394  0.5266  0.5383 -0.1506
  300MOL    O5342511   6.342   5.240   7.371 -0.1151 -0.0147  0.0157
  300MOL    H5442512   6.218   5.412   7.357 -0.1522  0.5789 -0.6126
  300MOL    H5542513   6.109   5.131   7.347 -0.6534 -0.0414  1.0607
  300MOL    H5642514   6.018   5.284   7.375  0.0402 -0.1388  0.2330
  300MOL    H5742515   6.130   5.228   7.501  4.1731  1.1246 -0.7585
  300MOL    C5842516   6.457   5.312   7.376 -0.7368 -0.7097 -0.1546
  300MOL    C5942517   6.472   5.339   7.524 -0.2501 -0.3088  0.0996
  300MOL    O6042518   6.572   5.252   7.329 -0.8629  0.1391 -0.3371
  300MOL    H6142519   6.447   5.408   7.325 -1.7916 -0.2214  0.9359
  300MOL    H6242520   6.486   5.241   7.568 -1.0482 -2.4809 -4.1729
  300MOL    H6342521   6.382   5.382   7.569 -1.2962 -0.1948 -2.0257
  300MOL    H6442522   6.559   5.402   7.543 -0.6086  0.7993 -1.7756
  300MOL    C6542523   6.575   5.252   7.186  0.1663 -0.9079 -0.0901
  300MOL    C6642524   6.672   5.356   7.134 -0.2423 -0.5785 -0.0531
  300MOL    O6742525   6.629   5.130   7.139 -0.3955  0.4339  0.1847
  300MOL    H6842526   6.480   5.278   7.141 -0.8959 -0.2776  2.4589
  300MOL    H6942527   6.647   5.447   7.188  1.0693 -0.9211  1.1480
  300MOL    H7042528   6.672   5.361   7.025  2.7680  0.7390 -0.0332
  300MOL    H7142529   6.772   5.334   7.172 -0.6281  1.1447  2.0194
  300MOL    C7242530   6.536   5.029   7.144  0.3740 -0.0573 -0.5852
  300MOL    C7342531   6.461   5.004   7.018  0.1447  1.1002 -0.0454
  300MOL    O7442532   6.602   4.908   7.167 -0.0227 -0.2021 -0.3882
  300MOL    H7542533   6.463   5.042   7.223  1.1265 -0.3716  0.1660
  300MOL    H7642534   6.397   5.086   6.986  1.6028  1.9661 -0.8090
  300MOL    H7742535   6.392   4.921   7.036 -1.2104  1.4491 -3.4137
  300MOL    H7842536   6.524   4.965   6.939  1.3913  0.3186  1.2993
  300MOL    C7942537   6.637   4.895   7.299 -0.2483  0.5089  0.2245
  300MOL    C8042538   6.539   4.806   7.367  0.1329  0.1115 -0.3929
  300MOL    O8142539   6.765   4.834   7.303 -0.1944 -0.9632 -0.2985
  300MOL    H8242540   6.640   4.994   7.344 -0.7462  1.0501 -0.9056
  300MOL    H8342541   6.592   4.774   7.457 -1.5780  1.7828  1.2414
  300MOL    H8442542   6.527   4.722   7.298  0.8038 -0.5164  0.2362
  300MOL    H8542543   6.441   4.850   7.388 -0.9841 -1.9728 -1.0995
  300MOL    C8642544   6.869   4.919   7.263  0.0461  0.0682 -0.2843
  300MOL    C8742545   6.956   4.937   7.387 -0.5063 -0.1206 -0.2032
  300MOL    O8842546   6.946   4.851   7.163 -0.5445 -0.6451 -0.3593
  300MOL    H8942547   6.849   5.016   7.217 -3.5248 -0.1571  0.6317
  300MOL    H9042548   6.887   4.944   7.472  0.3180  1.6037  0.3480
  300MOL    H9142549   7.021   5.025   7.385  0.5765 -0.9031  0.0578
  300MOL    H9242550   7.015   4.848   7.408 -1.1159 -0.6078 -0.5467
  300MOL    C9342551   6.888   4.840   7.040 -0.4464 -0.0673  0.1917
  300MOL    C9442552   6.958   4.942   6.951 -0.2640  0.0231 -0.1810
  300MOL    O9542553   6.914   4.714   6.988 -0.0698 -0.4201  0.3546
  300MOL    H9642554   6.780   4.849   7.051 -0.4607 -0.3474  0.2874
  300MOL    H9742555   6.926   4.904   6.854  1.6566 -4.3805  0.7865
  300MOL    H9842556   7.066   4.941   6.937 -0.6014  2.0118 -3.7015
  300MOL    H9942557   6.916   5.039   6.976 -3.8791 -1.5234  0.1088
  300MOL   C10042558   6.891   4.608   7.076 -0.1622  0.3350 -0.2040
  300MOL   C10142559   6.779   4.531   7.020  1.0379  0.0562 -0.7049
  300MOL   O10242560   7.001   4.522   7.072  0.7553  0.3589  0.2162
  300MOL   H10342561   6.868   4.635   7.179 -1.2031  1.3602 -0.6905
  300MOL   H10442562   6.799   4.509   6.916  0.7438 -1.0690 -0.5270
  300MOL   H10542563   6.695   4.600   7.026  0.2514 -0.9458  0.0495
  300MOL   H10642564   6.761   4.439   7.076  1.6515  0.2879 -0.1032
  300MOL   C10742565   7.116   4.567   7.136  0.8291  0.2542 -0.2874
  300MOL   C10842566   7.100   4.505   7.282 -0.3026  0.0849  0.2727
  300MOL   O10942567   7.230   4.526   7.071 -0.2861  0.0502 -0.5240
  300MOL   H11042568   7.118   4.676   7.145 -1.5065  0.2847  0.1972
  300MOL   H11142569   7.116   4.399   7.265  1.9436  0.4305 -0.0262
  300MOL   H11242570   7.008   4.538   7.330  1.6305  1.0759  3.5374
  300MOL   H11342571   7.177   4.548   7.347 -0.5884  1.7194 -0.4537
  300MOL   C11442572   7.247   4.562   6.935  0.3899  0.8132 -0.0473
  300MOL   C11542573   7.302   4.700   6.923 -0.2349 -0.8615 -0.1442
  300MOL   O11642574   7.342   4.471   6.881 -0.4842 -0.1168  0.0743
  300MOL   H11742575   7.155   4.552   6.877  0.3350  0.7430  0.0511
  300MOL   H11842576   7.368   4.712   7.009  0.0821  0.6520 -0.5874
  300MOL   H11942577   7.217   4.767   6.927  0.4230 -0.1236  1.7588
  300MOL   H12042578   7.356   4.708   6.828 -0.6609  1.2841 -0.2274
  300MOL   C12142579   7.301   4.333   6.869  0.3670  0.6589  0.1447
  300MOL   C12242580   7.214   4.319   6.741  0.4861 -0.2076 -0.7944
  300MOL   O12342581   7.410   4.254   6.846 -0.6173  0.2961  0.0217
  300MOL   H12442582   7.239   4.301   6.952  0.4675  2.8789  1.1089
  300MOL   H12542583   7.110   4.340   6.767 -0.1422 -2.6602 -1.2193
  300MOL   H12642584   7.210   4.212   6.718  0.6667 -0.6855  1.2645
  300MOL   H12742585   7.240   4.391   6.663 -0.4805 -0.7525 -1.6355
  300MOL   C12842586   7.495   4.240   6.960 -0.3276 -0.4396  0.3682
  300MOL   C12942587   7.480   4.104   7.023 -0.3077  0.7173  0.4794
  300MOL   O13042588   7.634   4.247   6.926  0.3760 -0.0735  0.3309
  300MOL   H13142589   7.476   4.320   7.031 -0.7456 -1.7839  1.7973
  300MOL   H13242590   7.375   4.089   7.046 -0.6042  2.1362  0.0603
  300MOL   H13342591   7.539   4.091   7.114 -1.3650  1.5205  1.2886
  300MOL   H13442592   7.522   4.034   6.950  0.4080 -0.2331  1.7749
  300MOL   C13542593   7.673   4.368   6.872  0.5685  0.0653 -0.0171
  300MOL   C13642594   7.727   4.454   6.988  0.6466 -0.1381 -0.0531
  300MOL   O13742595   7.779   4.355   6.784 -0.2118  0.3350 -0.8010
  300MOL   H13842596   7.588   4.417   6.824  0.3872 -1.5171 -1.3526
  300MOL   H13942597   7.794   4.538   6.969 -0.6921  1.1960  0.9822
  300MOL   H14042598   7.800   4.389   7.037  0.4459 -0.4044 -0.1079
  300MOL   H14142599   7.640   4.474   7.050  1.4601  0.0660  1.0553
  300MOL   H14242600   7.751   4.323   6.699  0.5158  1.6221 -1.5560
  301MOL     C142601   3.550   6.167   7.352 -0.0794  0.1073  0.1461
  301MOL     C242602   3.413   6.117   7.377 -0.2259 -0.6429  0.7993
  301MOL     O342603   3.643   6.073   7.402 -0.2916 -0.3355  0.0296
  301MOL     H442604   3.562   6.271   7.383 -1.2251  1.0472 -2.4239
  301MOL     H542605   3.395   6.013   7.351 -1.5195 -0.8467  2.3939
  301MOL     H642606   3.339   6.169   7.314 -1.1327 -2.0685  0.6634
  301MOL     H742607   3.388   6.136   7.481 -1.3839 -2.1440  0.8040
  301MOL     H842608   3.570   6.181   7.246 -2.0131 -1.5064 -0.4796
  301MOL     C942609   3.775   6.118   7.398  0.1619 -0.5474 -0.5656
  301MOL    C1042610   3.847   5.990   7.449 -0.2856 -0.0941  0.1151
  301MOL    O1142611   3.810   6.141   7.267 -0.6869 -0.4316  0.4384
  301MOL    H1242612   3.787   6.205   7.463  1.1998 -1.9065  1.1205
  301MOL    H1342613   3.954   6.001   7.468  0.1985 -0.6122 -2.1475
  301MOL    H1442614   3.832   5.919   7.368  0.9092 -1.2240  0.8804
  301MOL    H1542615   3.806   5.952   7.542  1.2197  0.1468  0.8820
  301MOL    C1642616   3.927   6.224   7.250 -0.7754 -0.2945 -0.5857
  301MOL    C1742617   3.964   6.199   7.100 -0.5700  0.3019 -1.0445
  301MOL    O1842618   3.922   6.367   7.264  0.0136  0.2111  0.0488
  301MOL    H1942619   4.009   6.181   7.307 -0.7798 -2.1355 -1.9461
  301MOL    H2042620   3.958   6.092   7.078  1.5872 -0.1986  0.6331
  301MOL    H2142621   4.062   6.237   7.073  0.0453  0.2843  1.1377
  301MOL    H2242622   3.897   6.261   7.040 -0.9414 -1.3877 -2.4304
  301MOL    C2342623   4.016   6.427   7.338  0.2205 -0.3616 -0.3600
  301MOL    C2442624   3.982   6.574   7.346 -0.1650  0.5216  0.2662
  301MOL    O2542625   4.023   6.377   7.471  0.5463 -0.1046 -0.2869
  301MOL    H2642626   4.114   6.411   7.293  0.5209  2.1914 -0.6784
  301MOL    H2742627   3.882   6.581   7.388 -0.1717 -0.8198  0.5125
  301MOL    H2842628   3.974   6.626   7.251 -1.3353  0.9540  0.5909
  301MOL    H2942629   4.044   6.627   7.418 -0.6392  1.1997  0.1804
  301MOL    C3042630   4.150   6.339   7.516 -0.4010  0.2173  0.0926
  301MOL    C3142631   4.153   6.340   7.673 -0.0857 -0.0146  0.6271
  301MOL    O3242632   4.171   6.209   7.477 -0.1712 -0.2239  0.0601
  301MOL    H3342633   4.223   6.402   7.465 -3.4325  1.2850 -3.1519
  301MOL    H3442634   4.250   6.303   7.707 -1.0669 -1.9380  1.4149
  301MOL    H3542635   4.079   6.270   7.711 -0.6983  0.5509  0.4801
  301MOL    H3642636   4.126   6.434   7.720  1.2625  0.7826 -0.1693
  301MOL    C3742637   4.300   6.179   7.431 -0.5166 -1.2966  0.4692
  301MOL    C3842638   4.308   6.030   7.463  0.0638  0.7798  0.2828
  301MOL    O3942639   4.307   6.194   7.292  0.2864 -0.3833  0.7746
  301MOL    H4042640   4.382   6.228   7.484  0.4483 -0.5924 -1.6052
  301MOL    H4142641   4.213   5.982   7.437  1.4864 -2.7081  1.2791
  301MOL    H4242642   4.326   6.027   7.570  1.8336  1.4344  0.0169
  301MOL    H4342643   4.390   5.978   7.413  0.1463  0.5463  0.6617
  301MOL    C4442644   4.398   6.297   7.247 -0.1318 -0.0676 -0.8693
  301MOL    C4542645   4.405   6.297   7.093  0.7277  0.0124 -0.3601
  301MOL    O4642646   4.351   6.419   7.292 -0.2553  0.3820 -0.1875
  301MOL    H4742647   4.498   6.283   7.289  0.0470  0.0432 -1.2479
  301MOL    H4842648   4.457   6.388   7.064  1.8752 -1.3335 -2.6553
  301MOL    H4942649   4.304   6.303   7.052  0.1280 -1.3999  0.8514
  301MOL    H5042650   4.463   6.211   7.061  0.6395 -0.4500  0.6886
  301MOL    C5142651   4.451   6.500   7.340 -0.2689 -0.0602  0.4805
  301MOL    C5242652   4.387   6.635   7.353  0.4646 -0.5086  0.0404
  301MOL    O5342653   4.484   6.449   7.458 -0.2299 -0.1006 -0.1092
  301MOL    H5442654   4.538   6.510   7.275 -0.6762  1.9071  0.2258
  301MOL    H5542655   4.345   6.632   7.453  0.6181  1.3371  0.1796
  301MOL    H5642656   4.320   6.649   7.268  0.6039  0.7245  0.1239
  301MOL    H5742657   4.456   6.719   7.353 -1.1360  0.8958 -3.3999
  301MOL    C5842658   4.619   6.460   7.498 -0.3113 -0.5768 -0.3259
  301MOL    C5942659   4.636   6.414   7.638  0.4150  0.2345 -0.2305
  301MOL    O6042660   4.701   6.370   7.414  0.5300 -0.6209  0.4924
  301MOL    H6142661   4.654   6.561   7.478 -2.3455  0.2983  0.3636
  301MOL    H6242662   4.629   6.306   7.654  0.0306 -0.1275 -2.6411
  301MOL    H6342663   4.565   6.458   7.707  2.2801  2.5508  0.2527
  301MOL    H6442664   4.738   6.439   7.664  0.5300 -0.4105 -0.0489
  301MOL    C6542665   4.819   6.422   7.359  0.8609 -0.2154 -1.0665
  301MOL    C6642666   4.904   6.298   7.333 -0.9244  0.3109 -0.0401
  301MOL    O6742667   4.796   6.490   7.231  0.4727 -0.0297  0.2183
  301MOL    H6842668   4.887   6.484   7.417 -1.1851  1.3652 -0.3159
  301MOL    H6942669   4.989   6.330   7.271 -0.8428  0.7593  0.2971
  301MOL    H7042670   4.845   6.226   7.276 -1.2472  1.1857 -0.8217
  301MOL    H7142671   4.931   6.254   7.429 -1.9663 -0.7594 -0.2396
  301MOL    C7242672   4.844   6.620   7.224  0.2364  0.8709  0.7095
  301MOL    C7342673   4.798   6.673   7.090 -0.4600 -0.1004  0.7427
  301MOL    O7442674   4.797   6.704   7.319 -0.2737 -0.2660  0.2222
  301MOL    H7542675   4.952   6.613   7.232  0.1406 -1.1760  0.6200
  301MOL    H7642676   4.867   6.647   7.009  0.3892  1.4773  0.9376
  301MOL    H7742677   4.794   6.782   7.090  3.5436  0.1510  1.4189
  301MOL    H7842678   4.695   6.642   7.072 -0.3307  0.3455 -0.8627
  301MOL    C7942679   4.886   6.796   7.373  0.1648  0.7374 -0.5905
  301MOL    C8042680   4.805   6.911   7.434 -0.4865  0.2723  0.5098
  301MOL    O8142681   4.961   6.744   7.474 -0.3954 -0.1614  0.2263
  301MOL    H8242682   4.948   6.828   7.289 -0.1182 -0.2914 -1.2018
  301MOL    H8342683   4.865   6.958   7.512 -1.6047  2.6737 -0.0404
  301MOL    H8442684   4.720   6.872   7.491 -1.6592  1.2266 -0.5547
  301MOL    H8542685   4.764   6.977   7.358 -2.9874  0.2611  1.7634
  301MOL    C8642686   5.097   6.754   7.455 -0.3822  0.8051  0.3040
  301MOL    C8742687   5.163   6.743   7.592 -0.1585 -0.6076 -0.0611
  301MOL    O8842688   5.152   6.649   7.371  0.2784 -0.7752 -0.1364
  301MOL    H8942689   5.121   6.855   7.421  1.1438 -0.4864 -2.5913
  301MOL    H9042690   5.168   6.639   7.625  0.6646 -0.3389  0.6394
  301MOL    H9142691   5.092   6.784   7.664  0.7979  1.3852 -0.2436
  301MOL    H9242692   5.257   6.796   7.595 -0.2348 -0.4574 -0.3102
  301MOL    C9342693   5.238   6.696   7.276 -0.4250  0.1117  0.2845
  301MOL    C9442694   5.320   6.573   7.220  0.5427  0.5328 -0.4344
  301MOL    O9542695   5.176   6.749   7.160 -0.1826  0.3424  0.3196
  301MOL    H9642696   5.299   6.771   7.328 -0.2571  0.6591 -0.6936
  301MOL    H9742697   5.369   6.512   7.296  3.2111  0.8314 -1.8292
  301MOL    H9842698   5.409   6.608   7.166  0.0551  1.2642 -0.7809
  301MOL    H9942699   5.245   6.518   7.163  0.9161 -2.2283  1.6559
  301MOL   C10042700   5.239   6.865   7.106 -0.0932 -0.4591 -0.4580
  301MOL   C10142701   5.176   6.884   6.970  0.1868 -0.5563  0.3783
  301MOL   O10242702   5.196   6.976   7.185 -0.0094 -0.1911 -0.1242
  301MOL   H10342703   5.347   6.852   7.098  0.3796  2.4243  0.7293
  301MOL   H10442704   5.193   6.796   6.908  0.4970 -0.3495  0.1710
  301MOL   H10542705   5.219   6.975   6.927 -0.6767  0.5469  1.8161
  301MOL   H10642706   5.068   6.902   6.971  0.0392 -1.3526  2.9304
  301MOL   C10742707   5.308   7.059   7.211 -0.8935 -0.4916  0.6596
  301MOL   C10842708   5.258   7.195   7.263 -0.4078 -0.1987 -0.0647
  301MOL   O10942709   5.388   6.998   7.314 -0.1788  0.6695 -0.1468
  301MOL   H11042710   5.369   7.070   7.121 -0.9002 -1.7237  0.4898
  301MOL   H11142711   5.202   7.178   7.355 -0.0404 -0.0843  0.1802
  301MOL   H11242712   5.193   7.248   7.194  0.0878 -0.0270 -0.4021
  301MOL   H11342713   5.337   7.266   7.287 -1.5301  1.4558 -1.1553
  301MOL   C11442714   5.522   6.988   7.282 -0.0036 -0.8829  0.2307
  301MOL   C11542715   5.600   6.951   7.405 -0.2038 -1.0165  0.2619
  301MOL   O11642716   5.550   6.880   7.200 -0.4969  0.3950  0.6645
  301MOL   H11742717   5.554   7.082   7.237 -0.1190 -1.4385 -1.0195
  301MOL   H11842718   5.702   6.923   7.382  0.2943  0.6776  0.3491
  301MOL   H11942719   5.558   6.859   7.446 -1.6660 -1.6140 -2.4604
  301MOL   H12042720   5.598   7.041   7.467 -0.2074 -0.5995 -0.3359
  301MOL   C12142721   5.651   6.907   7.108 -0.5030  0.3957 -0.2919
  301MOL   C12242722   5.711   6.776   7.043 -0.4729  0.0355 -0.4946
  301MOL   O12342723   5.598   6.985   7.008  0.6142  0.1579  0.3241
  301MOL   H12442724   5.728   6.957   7.167  0.7113 -2.0139  0.2058
  301MOL   H12542725   5.727   6.698   7.117  2.3013 -0.6824 -1.8080
  301MOL   H12642726   5.802   6.786   6.985  1.3980 -2.6685  1.8487
  301MOL   H12742727   5.636   6.733   6.977  0.8935  1.1308 -2.7974
  301MOL   C12842728   5.678   7.091   6.966  0.1571 -0.2629  0.5974
  301MOL   C12942729   5.651   7.116   6.825 -0.0341 -0.6286 -0.5735
  301MOL   O13042730   5.653   7.202   7.043 -0.1715  0.0739 -0.0975
  301MOL   H13142731   5.781   7.055   6.976 -0.3404 -1.7409  0.5313
  301MOL   H13242732   5.548   7.147   6.808 -0.5814  0.2673  3.8995
  301MOL   H13342733   5.681   7.027   6.770  1.7886 -0.4815  0.1461
  301MOL   H13442734   5.704   7.202   6.784 -1.3549  0.7482  0.5401
  301MOL   C13542735   5.765   7.268   7.095  0.5805  0.2194 -0.6883
  301MOL   C13642736   5.716   7.400   7.152  0.1915 -0.1049  0.0183
  301MOL   O13742737   5.830   7.195   7.196 -0.6733  0.4532 -0.2723
  301MOL   H13842738   5.845   7.291   7.025  1.8683  0.8774  0.9571
  301MOL   H13942739   5.635   7.386   7.224 -0.1788 -0.4307 -0.4639
  301MOL   H14042740   5.674   7.461   7.072 -1.0146  1.8192  2.0535
  301MOL   H14142741   5.799   7.461   7.188  0.6916 -0.9246  0.2753
  301MOL   H14242742   5.907   7.161   7.153  0.5040  1.6396  0.8732
  302MOL     C142743   0.045   7.654   2.988  0.2947 -0.2940  0.2329
  302MOL     C242744   0.113   7.762   3.069  0.0023 -0.1648 -0.3011
  302MOL     O342745   7.828   7.694   2.939 -0.0386  1.1233 -0.7834
  302MOL     H442746   0.035   7.567   3.053 -0.8607 -0.4983 -0.1968
  302MOL     H542747   0.134   7.849   3.007  0.4896  0.7485  1.1178
  302MOL     H642748   0.205   7.738   3.121  0.1304  1.5359  0.2938
  302MOL     H742749   0.043   7.800   3.144  0.2566  0.4450 -0.3719
  302MOL     H842750   0.100   7.635   2.896  0.8904  2.0538  0.0623
  302MOL     C942751   7.752   7.588   2.891  0.2596 -0.5046  0.3316
  302MOL    C1042752   7.665   7.519   2.995 -0.0365  0.0570  0.2771
  302MOL    O1142753   7.666   7.639   2.788  0.0967  0.7076 -0.5163
  302MOL    H1242754   7.818   7.520   2.836  1.1922 -0.0365  0.8598
  302MOL    H1342755   7.599   7.594   3.039 -0.3445  1.5874 -2.6637
  302MOL    H1442756   7.731   7.482   3.073  0.6333 -2.1360 -1.3074
  302MOL    H1542757   7.611   7.433   2.956 -0.3432 -0.2810  1.4326
  302MOL    C1642758   7.734   7.658   2.669  0.6833  0.0742 -0.3904
  302MOL    C1742759   7.713   7.546   2.570 -0.0429 -0.4303  0.0505
  302MOL    O1842760   7.687   7.778   2.605  0.7429 -0.3059 -0.1749
  302MOL    H1942761   7.840   7.670   2.693  0.4645 -0.0572  0.6952
  302MOL    H2042762   7.755   7.461   2.625  3.1551  0.3833 -1.0227
  302MOL    H2142763   7.776   7.580   2.488 -0.5559  2.8051  0.9323
  302MOL    H2242764   7.608   7.548   2.542 -0.3843  2.0452  1.3901
  302MOL    C2342765   7.711   7.896   2.686 -0.1331 -0.8031 -0.1957
  302MOL    C2442766   7.851   0.041   2.655 -0.0668  0.0871  0.0785
  302MOL    O2542767   7.615   0.083   2.678  0.1476 -0.3810  0.2768
  302MOL    H2642768   7.714   7.864   2.790  0.0036  0.3250  0.1557
  302MOL    H2742769   0.007   7.872   2.647  1.3129  1.2124  0.2742
  302MOL    H2842770   7.873   0.108   2.739  0.6028  1.3850 -1.1002
  302MOL    H2942771   7.863   0.089   2.558  2.7945  0.1554  0.4157
  302MOL    C3042772   7.492   0.055   2.736  0.5501 -1.2047 -0.6963
  302MOL    C3142773   7.447   0.180   2.820  0.8423 -0.4818  0.5182
  302MOL    O3242774   7.396   0.040   2.640 -0.7683  0.2102 -0.5215
  302MOL    H3342775   7.498   7.886   2.807 -0.5708 -0.2545  0.5298
  302MOL    H3442776   7.391   0.248   2.756  3.3151  1.8094  0.6778
  302MOL    H3542777   7.535   0.236   2.850  2.0631 -2.5209  0.8119
  302MOL    H3642778   7.384   0.155   2.906  0.2118 -2.0527 -0.3768
  302MOL    C3742779   7.354   7.820   2.606  0.3139  0.2462 -0.7851
  302MOL    C3842780   7.225   7.789   2.690  0.3630 -0.2040 -0.1774
  302MOL    O3942781   7.321   7.804   2.475  0.3247 -0.2473  0.7067
  302MOL    H4042782   7.423   7.742   2.638  0.3470  0.1020 -1.2067
  302MOL    H4142783   7.254   7.795   2.795 -0.5365 -0.9948  0.1278
  302MOL    H4242784   7.183   7.695   2.654  0.8303  0.3966 -2.3234
  302MOL    H4342785   7.155   7.870   2.674  0.0474 -0.3839  0.2590
  302MOL    C4442786   7.424   7.815   2.382  0.7603 -0.0593 -0.7939
  302MOL    C4542787   7.433   7.686   2.314 -0.0447 -0.0788 -0.4578
  302MOL    O4642788   7.399   7.908   2.278 -0.3293  0.3554  0.0656
  302MOL    H4742789   7.519   7.849   2.423 -0.6398  0.0458  2.6264
  302MOL    H4842790   7.347   7.667   2.249  2.2159 -0.4113 -3.4913
  302MOL    H4942791   7.459   7.603   2.380 -3.6820 -0.7478  0.2141
  302MOL    H5042792   7.509   7.682   2.235 -0.1560  2.4543 -0.7094
  302MOL    C5142793   7.404   0.124   2.316  0.0076 -0.0130  0.0334
  302MOL    C5242794   7.514   0.186   2.229 -0.5600 -0.0986  0.2896
  302MOL    O5342795   7.286   0.200   2.287 -0.1782  0.1316  0.2672
  302MOL    H5442796   7.417   0.141   2.423 -0.8469  2.3436 -0.2038
  302MOL    H5542797   7.527   0.293   2.246  1.1098 -0.1991 -0.2974
  302MOL    H5642798   7.483   0.169   2.125 -0.2257 -0.4139  0.2405
  302MOL    H5742799   7.612   0.144   2.249 -0.4302 -0.7818 -1.6484
  302MOL    C5842800   7.188   0.192   2.385 -0.0419  0.1351 -0.2694
  302MOL    C5942801   7.155   0.328   2.439  0.4147  0.0011  0.3243
  302MOL    O6042802   7.072   0.145   2.328 -0.1992 -0.6876  0.1747
  302MOL    H6142803   7.224   0.125   2.464  0.7726 -0.5630 -1.2247
  302MOL    H6242804   7.156   0.397   2.354 -0.9511 -0.3778 -0.0213
  302MOL    H6342805   7.226   0.356   2.516 -0.7982 -0.7636  1.7485
  302MOL    H6442806   7.061   0.341   2.492  0.3856  4.1148 -0.5609
  302MOL    C6542807   7.075   0.013   2.299  0.9078  0.9553  0.7912
  302MOL    C6642808   6.985   7.863   2.399  0.8644 -0.0617 -0.2102
  302MOL    O6742809   7.022   7.896   2.175 -0.2323  0.0017  0.5123
  302MOL    H6842810   7.171   7.876   2.305  0.5752  0.5680  3.0633
  302MOL    H6942811   7.031   7.879   2.497  0.5535 -0.1311 -0.0506
  302MOL    H7042812   6.989   7.756   2.381 -0.1857 -0.1601  0.1123
  302MOL    H7142813   6.883   7.903   2.395  0.5085 -1.0568 -1.1390
  302MOL    C7242814   7.098   0.003   2.066 -0.1111  0.4460  0.2488
  302MOL    C7342815   7.101   7.781   1.995  0.3011 -0.3360  0.0785
  302MOL    O7442816   7.020   0.084   1.983  0.3390 -0.1361  0.0523
  302MOL    H7542817   7.196   0.047   2.088 -0.2993  0.6507  0.6744
  302MOL    H7642818   7.153   7.781   1.900  0.8606  1.1165  0.3638
  302MOL    H7742819   6.999   7.745   1.980 -0.2045  1.6746 -1.6350
  302MOL    H7842820   7.161   7.718   2.059  3.9519  1.5351 -1.3470
  302MOL    C7942821   7.032   0.217   2.013  0.3483  0.3279 -0.2748
  302MOL    C8042822   7.140   0.280   1.923 -0.2898 -0.5768 -0.0497
  302MOL    O8142823   6.913   0.279   1.978 -0.1768 -0.1054  0.0517
  302MOL    H8242824   7.051   0.243   2.117 -0.4265 -1.9334  0.4579
  302MOL    H8342825   7.134   0.256   1.817 -0.6246 -1.4560  0.1630
  302MOL    H8442826   7.233   0.250   1.972  0.0616 -1.2971 -1.1276
  302MOL    H8542827   7.126   0.387   1.930  1.7177 -0.3319  0.4767
  302MOL    C8642828   6.822   0.268   2.082  0.0105  0.4223 -0.3364
  302MOL    C8742829   6.831   0.398   2.150 -0.5090  0.5493  1.0168
  302MOL    O8842830   6.694   0.246   2.030 -0.4451  0.0082  0.0048
  302MOL    H8942831   6.843   0.197   2.162  0.3503  2.8602  1.7915
  302MOL    H9042832   6.771   0.380   2.239  0.6581  0.8363  1.8627
  302MOL    H9142833   6.801   0.476   2.080 -0.5624  0.3250  0.7874
  302MOL    H9242834   6.924   0.424   2.199 -0.4138 -0.8750  1.5933
  302MOL    C9342835   6.671   0.118   1.980  0.2396 -0.2185  0.7713
  302MOL    C9442836   6.572   0.052   2.080 -0.0325  0.2939 -0.1824
  302MOL    O9542837   6.625   0.113   1.851  0.5018 -0.3081  0.4836
  302MOL    H9642838   6.760   0.056   1.978  1.5595  1.6574 -0.9716
  302MOL    H9742839   6.478   0.107   2.074 -1.4437 -1.9504  0.7479
  302MOL    H9842840   6.609   0.057   2.182 -0.2157  0.8666 -0.1389
  302MOL    H9942841   6.554   7.863   2.049  0.9030  0.3745 -1.0300
  302MOL   C10042842   6.723   0.129   1.756 -0.2993 -0.0601  0.3870
  302MOL   C10142843   6.744   7.898   1.702  0.3023  0.0089  0.5267
  302MOL   O10242844   6.698   0.221   1.653 -0.3717 -0.1931 -0.0047
  302MOL   H10342845   6.811   0.162   1.810 -0.7872  0.0459  1.1298
  302MOL   H10442846   6.822   7.896   1.626 -1.4860 -4.5583 -1.3927
  302MOL   H10542847   6.665   7.851   1.643  1.3606 -0.1925 -0.7263
  302MOL   H10642848   6.753   7.837   1.792 -2.1582 -1.5085 -0.2113
  302MOL   C10742849   6.701   0.356   1.699 -0.5517  0.3000 -0.4447
  302MOL   C10842850   6.815   0.425   1.619 -0.2571  0.3376  0.1736
  302MOL   O10942851   6.581   0.417   1.671  0.0114  0.2406  0.5665
  302MOL   H11042852   6.721   0.369   1.805 -2.3297  2.8924 -0.3924
  302MOL   H11142853   6.816   0.395   1.514 -0.4074 -0.8996  0.5200
  302MOL   H11242854   6.915   0.408   1.659  0.0566  0.3173 -0.6120
  302MOL   H11342855   6.796   0.532   1.628  0.1978  0.4835 -0.5050
  302MOL   C11442856   6.489   0.400   1.777 -0.6578 -0.0182 -0.3347
  302MOL   C11542857   6.472   0.538   1.835  0.8059 -0.1721 -0.1987
  302MOL   O11642858   6.370   0.361   1.724 -0.0049  0.2304 -0.2756
  302MOL   H11742859   6.522   0.331   1.854 -1.2797  0.3566  0.2737
  302MOL   H11842860   6.559   0.583   1.883  1.1867 -1.1911  0.0852
  302MOL   H11942861   6.396   0.534   1.914 -0.1766 -0.0203 -1.1320
  302MOL   H12042862   6.441   0.606   1.756 -1.2260 -1.4139 -0.4887
  302MOL   C12142863   6.337   0.224   1.727  0.1728 -0.3817 -0.4260
  302MOL   C12242864   6.271   0.187   1.857 -0.2675  0.1777  0.4824
  302MOL   O12342865   6.257   0.191   1.623  0.8346 -0.5569  0.2441
  302MOL   H12442866   6.422   0.156   1.717 -0.4445 -1.4078  1.2023
  302MOL   H12542867   6.241   0.082   1.846  0.7725  0.0138 -0.9543
  302MOL   H12642868   6.175   0.236   1.873 -1.5597 -2.3513  0.8538
  302MOL   H12742869   6.340   0.191   1.941 -0.9062 -1.7937  1.1481
  302MOL   C12842870   6.325   0.175   1.498  0.6523 -0.8370  0.4413
  302MOL   C12942871   6.296   0.028   1.449  0.4159 -0.0667  0.0599
  302MOL   O13042872   6.266   0.260   1.411  0.2265  0.3393 -1.3850
  302MOL   H13142873   6.431   0.198   1.492 -0.1752  3.2240 -0.1625
  302MOL   H13242874   6.374   7.881   1.494 -1.1388 -1.0687  1.4600
  302MOL   H13342875   6.306   0.016   1.341  1.9882  0.7562  0.0937
  302MOL   H13442876   6.200   7.903   1.484  0.8667  0.1320  1.5228
  302MOL   C13542877   6.320   0.384   1.403  0.3156 -0.4773 -0.7346
  302MOL   C13642878   6.274   0.442   1.276 -0.5978  0.0419  0.3368
  302MOL   O13742879   6.280   0.466   1.509 -0.3481  0.5774 -0.8298
  302MOL   H13842880   6.429   0.390   1.403  0.2347  1.5411 -0.2674
  302MOL   H13942881   6.320   0.386   1.194  0.9443  1.0897  0.4829
  302MOL   H14042882   6.295   0.548   1.264 -2.2577  0.5623  1.8772
  302MOL   H14142883   6.166   0.425   1.271 -0.5473 -0.5910  1.3646
  302MOL   H14242884   6.322   0.434   1.587 -1.3203 -0.4078 -0.6976
  303MOL     C142885   1.282   6.422   5.334 -0.6427 -0.2853 -0.8158
  303MOL     C242886   1.168   6.491   5.395  0.5059  0.5177 -0.5715
  303MOL     O342887   1.232   6.383   5.209  0.0519 -0.0864 -0.5747
  303MOL     H442888   1.296   6.332   5.394  1.2665 -0.9319 -2.1961
  303MOL     H542889   1.154   6.586   5.345 -0.5980  1.0009  0.6171
  303MOL     H642890   1.191   6.514   5.499 -1.9177 -0.6419  0.2882
  303MOL     H742891   1.080   6.427   5.382  0.5688 -0.2538  2.4354
  303MOL     H842892   1.369   6.485   5.320 -0.4383  0.0360  1.7617
  303MOL     C942893   1.308   6.284   5.152 -0.0973 -0.0682  0.2484
  303MOL    C1042894   1.251   6.256   5.013 -0.0628  0.2155 -0.2331
  303MOL    O1142895   1.441   6.330   5.129 -0.0145  0.1861 -0.1933
  303MOL    H1242896   1.310   6.200   5.221  3.7034 -1.0556 -0.9079
  303MOL    H1342897   1.310   6.180   4.961  3.7103  2.9719 -0.2533
  303MOL    H1442898   1.259   6.349   4.957  0.5976 -0.0563 -0.5938
  303MOL    H1542899   1.149   6.219   5.015  0.0447 -0.1264 -0.8863
  303MOL    C1642900   1.538   6.231   5.141  0.0259  0.2378  0.4684
  303MOL    C1742901   1.679   6.286   5.089  0.2583  0.0674  0.6988
  303MOL    O1842902   1.549   6.196   5.278  0.3770 -0.6916 -0.1195
  303MOL    H1942903   1.504   6.141   5.090  1.0229  0.7215 -1.0876
  303MOL    H2042904   1.751   6.206   5.075  1.3366  0.9760  1.0195
  303MOL    H2142905   1.709   6.367   5.156  0.7479  0.5162 -0.0573
  303MOL    H2242906   1.659   6.326   4.989 -2.4246 -0.2849  1.0584
  303MOL    C2342907   1.576   6.055   5.300  0.1611 -0.0105  0.6714
  303MOL    C2442908   1.633   6.048   5.438  0.3016  0.1261  0.0254
  303MOL    O2542909   1.461   5.977   5.296 -0.2911  0.5533  0.3447
  303MOL    H2642910   1.655   6.015   5.236  0.2759  1.1393  0.0676
  303MOL    H2742911   1.554   6.075   5.507 -1.7619 -2.8760 -1.0734
  303MOL    H2842912   1.719   6.116   5.443  1.0657 -0.8251 -0.0102
  303MOL    H2942913   1.672   5.949   5.464 -1.2110 -0.3168  0.6329
  303MOL    C3042914   1.473   5.853   5.223  0.0094  0.6319  0.1998
  303MOL    C3142915   1.375   5.760   5.287 -0.1281  0.1397 -0.8562
  303MOL    O3242916   1.439   5.869   5.092 -0.3616 -0.0176 -0.4606
  303MOL    H3342917   1.572   5.811   5.243 -1.2290 -2.5656 -0.1801
  303MOL    H3442918   1.276   5.805   5.286  2.0133  5.2826 -0.4019
  303MOL    H3542919   1.398   5.743   5.392  0.3496  2.4209 -0.5560
  303MOL    H3642920   1.375   5.671   5.223  0.6578 -0.4774 -0.0100
  303MOL    C3742921   1.532   5.824   4.996 -0.6298  0.4780 -0.0699
  303MOL    C3842922   1.465   5.851   4.855  0.5126  0.2443  0.1827
  303MOL    O3942923   1.648   5.902   4.999 -0.1564 -0.5034 -0.8543
  303MOL    H4042924   1.545   5.717   5.010  0.2458  0.5900 -0.0069
  303MOL    H4142925   1.533   5.823   4.774  0.9438  0.1240  0.5869
  303MOL    H4242926   1.438   5.956   4.847  1.2969  0.4519  0.2075
  303MOL    H4342927   1.370   5.803   4.832 -0.7047  1.8143  1.7988
  303MOL    C4442928   1.768   5.827   5.015 -1.0354  0.7578 -0.2675
  303MOL    C4542929   1.879   5.929   4.978  0.0055 -0.4731 -0.2216
  303MOL    O4642930   1.781   5.801   5.146 -0.2283 -0.7460  0.1171
  303MOL    H4742931   1.774   5.742   4.947 -1.7143  0.6568 -0.2026
  303MOL    H4842932   1.845   5.964   4.881 -2.1594  0.3661  0.7984
  303MOL    H4942933   1.977   5.882   4.973  1.6165  2.5330  1.7291
  303MOL    H5042934   1.895   6.003   5.056 -0.9912 -1.8794  1.3650
  303MOL    C5142935   1.796   5.671   5.173 -0.9260 -0.2643  0.0039
  303MOL    C5242936   1.837   5.662   5.324 -0.0042  0.4968  0.3745
  303MOL    O5342937   1.678   5.598   5.160 -1.1965  0.1162  0.3166
  303MOL    H5442938   1.880   5.626   5.120  0.1235  1.0653  0.5070
  303MOL    H5542939   1.803   5.562   5.351 -2.2396  1.0816 -0.1653
  303MOL    H5642940   1.779   5.730   5.387  0.3577  0.8667  0.3080
  303MOL    H5742941   1.940   5.678   5.353 -0.3209  0.7582  1.3900
  303MOL    C5842942   1.694   5.470   5.106 -0.4174  0.4343 -0.4113
  303MOL    C5942943   1.552   5.402   5.136  0.9257  0.6306  0.3521
  303MOL    O6042944   1.704   5.487   4.973  0.1030  0.0164  0.3572
  303MOL    H6142945   1.776   5.420   5.158 -1.9807 -0.1352  1.5368
  303MOL    H6242946   1.472   5.472   5.112  0.4484  0.1298  0.4715
  303MOL    H6342947   1.550   5.387   5.244  0.6375 -0.7354  0.1579
  303MOL    H6442948   1.539   5.310   5.081 -0.2282 -0.4490  2.3763
  303MOL    C6542949   1.824   5.440   4.919 -1.0777  1.1720  0.4427
  303MOL    C6642950   1.790   5.377   4.785 -0.4938 -0.1772 -0.3921
  303MOL    O6742951   1.905   5.547   4.885 -0.1125  0.0937 -0.0445
  303MOL    H6842952   1.887   5.370   4.975 -0.7038 -0.2616 -1.7032
  303MOL    H6942953   1.883   5.362   4.730 -0.2609  0.1790 -0.0953
  303MOL    H7042954   1.744   5.452   4.720  1.9906  1.5781 -0.1912
  303MOL    H7142955   1.745   5.279   4.792 -1.2824  0.2654  0.8041
  303MOL    C7242956   2.038   5.529   4.893 -0.0631 -1.0693  0.7712
  303MOL    C7342957   2.100   5.634   4.804 -0.1921 -0.2085  0.3886
  303MOL    O7442958   2.088   5.558   5.020  0.1452 -0.3468 -0.1731
  303MOL    H7542959   2.074   5.432   4.859  1.6367 -0.7818  1.6996
  303MOL    H7642960   2.207   5.612   4.802  0.3852  2.3838  1.1743
  303MOL    H7742961   2.087   5.735   4.843  1.6127  0.3801 -0.4485
  303MOL    H7842962   2.058   5.618   4.705  1.6223 -0.5673 -0.3559
  303MOL    C7942963   2.155   5.446   5.072 -0.2722  0.1704  0.4361
  303MOL    C8042964   2.217   5.509   5.197 -0.3663 -0.2513 -0.8915
  303MOL    O8142965   2.066   5.349   5.109  0.4638 -0.7031 -0.4915
  303MOL    H8242966   2.230   5.418   4.998 -1.6140 -1.0437 -0.4860
  303MOL    H8342967   2.140   5.559   5.257  1.0422 -0.2213  0.9143
  303MOL    H8442968   2.298   5.578   5.176 -1.7726  1.5463 -0.5734
  303MOL    H8542969   2.239   5.421   5.257 -0.9245 -0.4145 -0.9235
  303MOL    C8642970   2.104   5.219   5.078 -0.1879  0.1469 -0.7127
  303MOL    C8742971   2.024   5.138   5.176 -0.2369 -0.0843  0.2462
  303MOL    O8842972   2.064   5.187   4.949 -0.2713 -0.1678  0.2860
  303MOL    H8942973   2.209   5.198   5.097 -0.9842 -2.4107  1.0550
  303MOL    H9042974   2.048   5.180   5.274 -1.0516  1.2474 -0.1078
  303MOL    H9142975   2.043   5.031   5.174  0.1642  0.0125 -1.8739
  303MOL    H9242976   1.918   5.143   5.150 -0.7185  4.6877  2.4829
  303MOL    C9342977   2.154   5.124   4.868  0.1550  0.9537 -0.5943
  303MOL    C9442978   2.067   5.049   4.759  0.1070 -0.3162 -0.8718
  303MOL    O9542979   2.232   5.219   4.796 -0.3857  0.5927 -1.1071
  303MOL    H9642980   2.213   5.048   4.919  0.2011  2.3424  1.4769
  303MOL    H9742981   2.009   4.966   4.799  0.0598 -0.6511 -1.6222
  303MOL    H9842982   2.135   5.001   4.688  0.4883 -1.3005  0.1523
  303MOL    H9942983   2.010   5.124   4.703 -2.2989 -1.1694  0.3775
  303MOL   C10042984   2.366   5.195   4.825 -0.0517 -0.5957  0.3629
  303MOL   C10142985   2.441   5.292   4.735 -0.5553  0.4337  0.1140
  303MOL   O10242986   2.391   5.226   4.951 -0.2342 -0.6536 -0.3453
  303MOL   H10342987   2.395   5.096   4.790 -0.3460 -0.5521 -0.0133
  303MOL   H10442988   2.411   5.394   4.759 -0.1894  1.0796 -2.1295
  303MOL   H10542989   2.408   5.272   4.633 -1.9796  0.2499  0.6036
  303MOL   H10642990   2.550   5.289   4.744 -0.5186 -2.0452 -0.7968
  303MOL   C10742991   2.497   5.161   5.008 -0.4629  0.2020  0.5454
  303MOL   C10842992   2.531   5.256   5.121  0.2123 -1.2561 -0.3116
  303MOL   O10942993   2.455   5.039   5.059  0.2626  0.0869 -0.2711
  303MOL   H11042994   2.586   5.160   4.946 -1.0240 -0.7370 -0.2603
  303MOL   H11142995   2.592   5.331   5.072 -3.9624  2.9256  0.6085
  303MOL   H11242996   2.597   5.209   5.195 -2.8644  1.3894  4.3411
  303MOL   H11342997   2.445   5.297   5.174  0.0412 -1.9012 -0.0834
  303MOL   C11442998   2.499   4.929   4.983  0.1935 -0.4293  0.3067
  303MOL   C11542999   2.533   4.817   5.082  0.5801  0.1784 -0.3492
  303MOL   O11643000   2.385   4.883   4.915 -0.2526  0.1026  0.4184
  303MOL   H11743001   2.589   4.942   4.923  0.1968 -1.1612  0.1459
  303MOL   H11843002   2.549   4.723   5.029  0.5956 -0.0413  0.0494
  303MOL   H11943003   2.459   4.809   5.161 -0.3197  2.4258 -0.9196
  303MOL   H12043004   2.624   4.834   5.139  0.3119 -2.3384  0.8915
  303MOL   C12143005   2.409   4.811   4.802  0.6761 -0.0531 -0.0753
  303MOL   C12243006   2.281   4.718   4.781 -0.4375  0.0165  0.2178
  303MOL   O12343007   2.420   4.891   4.686 -0.3691 -0.8196  0.4490
  303MOL   H12443008   2.496   4.747   4.811  0.1802 -0.9998 -1.7258
  303MOL   H12543009   2.290   4.673   4.682  2.1908  3.6330 -1.3176
  303MOL   H12643010   2.191   4.778   4.791  0.0610  0.7558  0.2751
  303MOL   H12743011   2.276   4.633   4.848 -2.9609 -0.7667 -0.9059
  303MOL   C12843012   2.542   4.915   4.625 -0.3805 -0.6730 -0.1001
  303MOL   C12943013   2.513   4.987   4.491  0.1961 -0.3563 -0.8798
  303MOL   O13043014   2.622   5.002   4.707  0.1091  0.1139  0.3839
  303MOL   H13143015   2.586   4.818   4.603  1.1364  0.4597 -2.2249
  303MOL   H13243016   2.443   4.929   4.432 -1.0212 -1.2284  1.3793
  303MOL   H13343017   2.594   5.019   4.425  0.3583  0.0852 -0.4704
  303MOL   H13443018   2.463   5.080   4.517  1.2194 -0.8789  3.3616
  303MOL   C13543019   2.754   4.996   4.684  0.5260 -0.4376  0.2991
  303MOL   C13643020   2.817   5.124   4.722  0.0191  0.1563  0.4776
  303MOL   O13743021   2.811   4.896   4.767  0.4357 -0.3515  0.0692
  303MOL   H13843022   2.783   4.966   4.584 -1.4174 -1.4901  0.0220
  303MOL   H13943023   2.922   5.114   4.693  0.2817  2.3133  0.5598
  303MOL   H14043024   2.802   5.139   4.829  0.0898  1.1971  0.3463
  303MOL   H14143025   2.767   5.201   4.662 -1.7807  1.0454  3.0190
  303MOL   H14243026   2.899   4.889   4.733  0.6012 -3.6880  1.0268
  304MOL     C143027   0.332   0.536   5.588 -0.2828  0.4744 -0.0513
  304MOL     C243028   0.242   0.460   5.504  0.4524 -0.3739 -0.2220
  304MOL     O343029   0.416   0.445   5.655 -0.2107  0.1707  0.3109
  304MOL     H443030   0.281   0.591   5.667  1.2966  1.7089  0.1403
  304MOL     H543031   0.191   0.380   5.558  0.3472  0.1550  0.4576
  304MOL     H643032   0.304   0.408   5.431  2.1227  0.0954  0.8440
  304MOL     H743033   0.174   0.522   5.446 -0.0414 -2.0695 -1.5117
  304MOL     H843034   0.386   0.611   5.530  1.7123 -2.0960 -1.6334
  304MOL     C943035   0.513   0.504   5.743  0.3685  0.5146 -0.1141
  304MOL    C1043036   0.589   0.382   5.812  0.3339 -0.3097 -0.2377
  304MOL    O1143037   0.615   0.575   5.670  0.5133  0.2211 -0.3898
  304MOL    H1243038   0.458   0.573   5.807  0.9745  0.5405  0.3825
  304MOL    H1343039   0.662   0.433   5.874  0.0883  2.2676 -1.9644
  304MOL    H1443040   0.633   0.307   5.746  1.3375  0.0273  0.0351
  304MOL    H1543041   0.520   0.338   5.884  0.0053  1.7548  0.7495
  304MOL    C1643042   0.639   0.698   5.734  0.0509  0.3311  0.9502
  304MOL    C1743043   0.775   0.742   5.672  0.3057  0.0233 -0.0579
  304MOL    O1843044   0.540   0.786   5.709  0.4826 -0.4940 -0.0967
  304MOL    H1943045   0.654   0.670   5.838  0.2855 -0.1604  0.7876
  304MOL    H2043046   0.850   0.667   5.696  1.9519  1.3300 -0.9355
  304MOL    H2143047   0.805   0.840   5.709  2.8086 -0.5042 -0.5673
  304MOL    H2243048   0.765   0.748   5.563 -2.8489  0.9652  0.2444
  304MOL    C2343049   0.524   0.869   5.820 -0.1185 -0.2411 -0.3019
  304MOL    C2443050   0.413   0.964   5.784  0.6168 -0.0891  0.2172
  304MOL    O2543051   0.473   0.798   5.933 -0.1704 -0.3452 -0.3740
  304MOL    H2643052   0.612   0.930   5.836  0.9413 -1.7231 -0.3044
  304MOL    H2743053   0.388   1.033   5.865 -0.2246 -0.3969  0.2327
  304MOL    H2843054   0.322   0.918   5.744 -1.3093  1.7893  2.3052
  304MOL    H2943055   0.451   1.038   5.714 -1.1784 -2.2031 -3.1273
  304MOL    C3043056   0.528   0.841   6.054  0.8434 -0.2568 -0.4376
  304MOL    C3143057   0.420   0.810   6.163 -0.6214 -0.1932  0.0589
  304MOL    O3243058   0.638   0.766   6.079 -0.1251  0.4471 -0.0609
  304MOL    H3343059   0.543   0.948   6.050  1.9010 -0.3714  0.3219
  304MOL    H3443060   0.326   0.854   6.131 -0.2845  0.8494  0.4473
  304MOL    H3543061   0.459   0.861   6.251  1.5104 -0.8627 -0.4525
  304MOL    H3643062   0.402   0.704   6.178  1.3446 -0.4451  0.8254
  304MOL    C3743063   0.747   0.840   6.120  0.1342  0.3148 -0.1020
  304MOL    C3843064   0.863   0.738   6.144  0.7940  0.5572 -0.5342
  304MOL    O3943065   0.782   0.926   6.017  0.0421 -0.7548 -0.0909
  304MOL    H4043066   0.726   0.894   6.212 -0.4208  0.1193 -0.1154
  304MOL    H4143067   0.955   0.783   6.181  1.0055 -0.0182 -0.3525
  304MOL    H4243068   0.887   0.686   6.052 -1.1778  1.4203 -1.5600
  304MOL    H4343069   0.833   0.654   6.207  2.4929  0.0699 -0.3492
  304MOL    C4443070   0.820   1.053   6.058 -0.1942 -0.6267  0.4294
  304MOL    C4543071   0.888   1.119   5.941  0.2921 -0.3934  0.5667
  304MOL    O4643072   0.701   1.130   6.089  0.1099  0.2178  0.4350
  304MOL    H4743073   0.893   1.036   6.137 -0.2045 -0.9724  0.3644
  304MOL    H4843074   0.924   1.220   5.962  2.2455 -0.5249 -1.8784
  304MOL    H4943075   0.818   1.128   5.858  1.0093  1.6529  0.1481
  304MOL    H5043076   0.975   1.058   5.917 -0.1922 -0.9723  0.2859
  304MOL    C5143077   0.729   1.213   6.199 -0.2641 -0.1444 -0.2086
  304MOL    C5243078   0.606   1.294   6.227  0.5273 -0.3913 -0.3505
  304MOL    O5343079   0.738   1.142   6.318 -0.0226 -0.7811  0.4972
  304MOL    H5443080   0.804   1.288   6.174 -1.2790  0.6934 -0.8098
  304MOL    H5543081   0.558   1.337   6.139 -0.7594  0.0987  0.5714
  304MOL    H5643082   0.626   1.384   6.285 -3.5229  0.6094 -0.3718
  304MOL    H5743083   0.523   1.237   6.268 -0.6950  0.3552 -1.7440
  304MOL    C5843084   0.843   1.184   6.392 -0.8962  0.0649 -0.4222
  304MOL    C5943085   0.817   1.155   6.541 -0.5077  0.2034  0.2517
  304MOL    O6043086   0.956   1.106   6.359  0.3234  0.6344  0.0205
  304MOL    H6143087   0.852   1.292   6.379 -1.0481  0.1815  0.4282
  304MOL    H6243088   0.787   1.052   6.559 -4.8548  1.2209 -0.5578
  304MOL    H6343089   0.736   1.219   6.575  0.7242  1.2751  1.2209
  304MOL    H6443090   0.910   1.180   6.593  0.9519  1.6265 -2.9103
  304MOL    C6543091   1.073   1.175   6.338  0.0324 -0.2801 -0.2491
  304MOL    C6643092   1.190   1.082   6.355 -0.2812  0.4451  0.1328
  304MOL    O6743093   1.057   1.238   6.215 -0.0188 -0.0044  0.4529
  304MOL    H6843094   1.078   1.254   6.413  3.8549  0.6034 -1.3066
  304MOL    H6943095   1.199   1.066   6.463 -2.6198  0.5904  0.3748
  304MOL    H7043096   1.284   1.134   6.336  0.7320 -1.4992 -0.2714
  304MOL    H7143097   1.181   0.985   6.307 -1.5664  1.5997 -2.0292
  304MOL    C7243098   1.108   1.360   6.216  0.8927 -0.7850  0.4163
  304MOL    C7343099   1.135   1.410   6.070 -0.1542  0.0679  0.5398
  304MOL    O7443100   1.012   1.443   6.269 -0.3653  0.2160  0.0212
  304MOL    H7543101   1.199   1.357   6.276  0.5998 -1.2752  0.8364
  304MOL    H7643102   1.163   1.515   6.077  1.4051 -0.5024  4.1473
  304MOL    H7743103   1.047   1.411   6.006  1.0018  0.0736 -1.0859
  304MOL    H7843104   1.219   1.357   6.026 -0.8587 -1.5830  1.1468
  304MOL    C7943105   1.060   1.529   6.371 -0.1940  0.2310  0.6257
  304MOL    C8043106   0.957   1.639   6.372  0.5794  0.0142 -0.6400
  304MOL    O8143107   1.052   1.465   6.491  0.2376  0.4648 -0.3009
  304MOL    H8243108   1.153   1.562   6.324  0.4973 -0.7563  1.3029
  304MOL    H8343109   0.979   1.710   6.451 -0.5036  1.4026 -1.5762
  304MOL    H8443110   0.860   1.590   6.378  0.2407  0.8250  0.6162
  304MOL    H8543111   0.960   1.695   6.278  3.3606  0.0228 -0.5872
  304MOL    C8643112   1.168   1.489   6.565  0.3562 -0.2982 -0.3665
  304MOL    C8743113   1.153   1.453   6.707  0.2550  0.4466  0.1024
  304MOL    O8843114   1.276   1.419   6.505  0.0121 -0.2819  0.7556
  304MOL    H8943115   1.197   1.593   6.553 -0.4739  0.0082  0.3352
  304MOL    H9043116   1.252   1.451   6.753  0.4835 -0.3723 -0.4097
  304MOL    H9143117   1.109   1.353   6.718  2.3957 -0.4170  1.0467
  304MOL    H9243118   1.081   1.518   6.757 -0.3212 -1.0706  1.3037
  304MOL    C9343119   1.400   1.480   6.500 -0.7284 -0.8851 -0.3253
  304MOL    C9443120   1.511   1.372   6.502 -0.3420 -0.1686  1.0267
  304MOL    O9543121   1.421   1.549   6.380  0.1544  0.4973 -0.2208
  304MOL    H9643122   1.413   1.554   6.579  1.3116 -1.2353 -0.3008
  304MOL    H9743123   1.609   1.420   6.498  0.0091 -0.9700 -0.4821
  304MOL    H9843124   1.496   1.303   6.419 -3.2127 -1.9505  2.9091
  304MOL    H9943125   1.503   1.304   6.587  0.1111 -1.1337  0.3102
  304MOL   C10043126   1.465   1.678   6.397 -0.0715 -0.6157 -0.1052
  304MOL   C10143127   1.545   1.716   6.267  0.1003 -0.6119  0.0611
  304MOL   O10243128   1.358   1.767   6.409 -1.1274 -0.4859 -0.2424
  304MOL   H10343129   1.541   1.684   6.474  0.3143  1.2957 -0.6257
  304MOL   H10443130   1.628   1.785   6.287 -0.3451  0.1808 -0.7847
  304MOL   H10543131   1.479   1.768   6.198  1.3203  0.5448 -0.2622
  304MOL   H10643132   1.574   1.629   6.208  2.0945 -0.1554  0.3128
  304MOL   C10743133   1.363   1.846   6.528 -0.2124  0.0309 -0.1848
  304MOL   C10843134   1.239   1.941   6.518 -0.2579  0.4335 -1.0906
  304MOL   O10943135   1.347   1.759   6.642 -0.4411  0.0034  0.2261
  304MOL   H11043136   1.451   1.909   6.536  1.2721 -2.2422  1.7279
  304MOL   H11143137   1.148   1.882   6.523 -0.5586  0.9366 -0.6522
  304MOL   H11243138   1.236   1.976   6.415  0.4917 -1.5642 -1.8227
  304MOL   H11343139   1.249   2.028   6.583 -2.7838  1.7714 -2.4183
  304MOL   C11443140   1.432   1.794   6.744 -0.6624 -0.2870 -0.4521
  304MOL   C11543141   1.389   1.713   6.865 -0.2187  0.4996  0.1947
  304MOL   O11643142   1.556   1.749   6.707  0.0193  0.3157  0.3906
  304MOL   H11743143   1.424   1.900   6.764 -1.4316 -0.4379  0.0711
  304MOL   H11843144   1.449   1.737   6.953 -0.8252 -2.3558  1.4713
  304MOL   H11943145   1.380   1.606   6.847  3.9964 -0.0937  1.1721
  304MOL   H12043146   1.284   1.737   6.884 -0.7556  0.2608 -2.2594
  304MOL   C12143147   1.665   1.808   6.780  0.1033  0.7081 -0.0885
  304MOL   C12243148   1.789   1.730   6.730  0.2237  0.3410  0.1631
  304MOL   O12343149   1.680   1.936   6.739 -0.1859  0.9254  0.1677
  304MOL   H12443150   1.652   1.799   6.888 -0.4543 -2.5359 -0.3942
  304MOL   H12543151   1.806   1.745   6.623  0.5240  1.4969  0.3726
  304MOL   H12643152   1.787   1.625   6.760 -1.3876  0.6879  1.3660
  304MOL   H12743153   1.872   1.773   6.785  2.2478 -3.1562 -0.0490
  304MOL   C12843154   1.703   2.027   6.839 -0.4211 -0.5691  0.6791
  304MOL   C12943155   1.713   2.170   6.779  0.1550 -0.6629  0.2385
  304MOL   O13043156   1.599   2.028   6.931 -0.2388 -0.4063 -0.4905
  304MOL   H13143157   1.803   2.001   6.874  0.1330 -0.7211 -0.9923
  304MOL   H13243158   1.774   2.164   6.689  0.2493  2.8974 -0.0218
  304MOL   H13343159   1.765   2.233   6.851  1.0752  2.1310 -2.7393
  304MOL   H13443160   1.617   2.218   6.763 -0.1671 -1.6232 -0.7287
  304MOL   C13543161   1.644   2.042   7.061  0.2988  0.7272 -0.2082
  304MOL   C13643162   1.643   1.903   7.126 -0.0647 -0.2866 -0.2964
  304MOL   O13743163   1.761   2.115   7.086 -0.1351  0.0186  0.3189
  304MOL   H13843164   1.561   2.102   7.100  1.2207  1.6817  0.3292
  304MOL   H13943165   1.544   1.858   7.117  0.2490 -1.6127  2.4396
  304MOL   H14043166   1.649   1.924   7.233  3.8911  2.1282 -0.8943
  304MOL   H14143167   1.717   1.830   7.092  0.1777  0.2000 -0.8133
  304MOL   H14243168   1.742   2.189   7.142 -2.5905 -1.9465  2.2166
  305MOL     C143169   3.547   2.802   1.704 -0.9252  0.0895 -0.0706
  305MOL     C243170   3.441   2.697   1.662 -0.1398  0.7485  0.2392
  305MOL     O343171   3.481   2.920   1.732  0.3391 -0.2065  0.5055
  305MOL     H443172   3.629   2.817   1.633 -1.5419  0.7138 -0.6649
  305MOL     H543173   3.373   2.689   1.747  0.5425 -0.6768  0.6641
  305MOL     H643174   3.479   2.596   1.645  0.5503  1.3118 -1.6716
  305MOL     H743175   3.388   2.733   1.574 -0.2885 -0.7570 -0.3130
  305MOL     H843176   3.602   2.766   1.791 -0.3588 -0.3322 -0.6065
  305MOL     C943177   3.537   2.996   1.831  0.2794 -0.2852 -0.2097
  305MOL    C1043178   3.642   3.081   1.763 -0.2104  0.2978  0.3348
  305MOL    O1143179   3.439   3.083   1.887  0.5243 -0.1519 -0.1764
  305MOL    H1243180   3.588   2.939   1.908 -1.7215 -1.7951  0.0141
  305MOL    H1343181   3.587   3.136   1.687  1.2755  0.6569 -0.5016
  305MOL    H1443182   3.715   3.027   1.703  2.7801  2.1808  2.1653
  305MOL    H1543183   3.678   3.156   1.833 -0.4805  2.3648 -1.7006
  305MOL    C1643184   3.352   3.019   1.977  0.0867 -0.3700  0.3270
  305MOL    C1743185   3.378   3.074   2.125 -0.3056  0.5202  0.0330
  305MOL    O1843186   3.228   3.048   1.945  0.7561 -0.5176  0.2045
  305MOL    H1943187   3.366   2.912   1.964 -2.2971 -0.5600 -0.9286
  305MOL    H2043188   3.474   3.042   2.166 -0.7102 -0.0494  0.5542
  305MOL    H2143189   3.291   3.038   2.181  0.1804  1.8429  1.6708
  305MOL    H2243190   3.386   3.182   2.133  2.9969  0.2792  0.7832
  305MOL    C2343191   3.176   3.035   1.812 -0.1923  0.2222 -0.0956
  305MOL    C2443192   3.112   2.893   1.797  0.1372 -0.6771 -0.4863
  305MOL    O2543193   3.071   3.123   1.794 -0.4638  0.0410  0.1391
  305MOL    H2643194   3.252   3.060   1.738 -2.1273  3.5342 -1.0742
  305MOL    H2743195   3.084   2.871   1.694  3.2924 -1.3630 -1.2759
  305MOL    H2843196   3.019   2.904   1.852  0.7964 -0.3379  0.5891
  305MOL    H2943197   3.175   2.813   1.837  1.9564  1.6159  1.4024
  305MOL    C3043198   3.117   3.257   1.777 -0.4065 -0.4857 -0.3361
  305MOL    C3143199   3.090   3.293   1.634  0.4567  0.4682 -0.1721
  305MOL    O3243200   3.050   3.348   1.861  0.4091  0.3857  0.3476
  305MOL    H3343201   3.221   3.274   1.805 -0.4457 -0.1006 -0.4157
  305MOL    H3443202   2.982   3.292   1.618  0.4242  0.7693  0.0431
  305MOL    H3543203   3.152   3.228   1.572  0.6602 -1.5106  2.0504
  305MOL    H3643204   3.124   3.395   1.616 -0.0942  0.9303  1.3842
  305MOL    C3743205   3.084   3.341   2.001 -0.1640  0.6071 -0.0797
  305MOL    C3843206   3.145   3.473   2.039  0.3201  0.7218  1.1250
  305MOL    O3943207   2.969   3.336   2.074  0.5538  0.3036  0.2362
  305MOL    H4043208   3.158   3.261   2.010  1.2864  1.7694 -1.3777
  305MOL    H4143209   3.176   3.458   2.142  0.7526  0.1408  0.9108
  305MOL    H4243210   3.072   3.553   2.051 -1.3049 -0.7005  0.9145
  305MOL    H4343211   3.228   3.514   1.981 -0.2107 -0.1762 -0.2797
  305MOL    C4443212   2.903   3.208   2.077 -1.1260  0.7440 -0.7823
  305MOL    C4543213   2.894   3.159   2.221 -0.3568  0.6768  0.8389
  305MOL    O4643214   2.773   3.229   2.024  0.1310  0.4345 -0.1329
  305MOL    H4743215   2.955   3.134   2.017  0.8575 -0.1420  1.9505
  305MOL    H4843216   2.836   3.220   2.290  2.4611  2.7304  1.4945
  305MOL    H4943217   2.988   3.141   2.272 -1.0876 -0.7015  1.7136
  305MOL    H5043218   2.836   3.067   2.217 -0.4716  0.6992  1.8344
  305MOL    C5143219   2.760   3.195   1.890  0.1459  0.2706  0.2714
  305MOL    C5243220   2.710   3.055   1.873 -0.6266  0.4498 -0.9698
  305MOL    O5343221   2.681   3.283   1.817 -0.2561 -0.4246 -0.3873
  305MOL    H5443222   2.858   3.214   1.846  0.2104 -0.5356  0.0631
  305MOL    H5543223   2.703   3.017   1.771  3.1225 -0.4838 -0.9481
  305MOL    H5643224   2.612   3.043   1.919  0.8956  0.1030  2.3545
  305MOL    H5743225   2.764   2.985   1.937 -2.4408 -0.4255 -0.3529
  305MOL    C5843226   2.728   3.414   1.805  0.6109 -0.3735 -0.3061
  305MOL    C5943227   2.711   3.452   1.655 -0.4283 -1.0969  0.1689
  305MOL    O6043228   2.659   3.512   1.876  0.2404  0.0526 -0.3455
  305MOL    H6143229   2.835   3.417   1.820  0.4923 -0.2192  0.5476
  305MOL    H6243230   2.757   3.369   1.600  0.8823  0.5981 -1.3385
  305MOL    H6343231   2.752   3.549   1.629 -0.3389 -1.2737 -0.3499
  305MOL    H6443232   2.603   3.445   1.639 -0.4294  0.0491 -0.3604
  305MOL    C6543233   2.734   3.565   1.976  0.2704  0.7149 -0.3796
  305MOL    C6643234   2.816   3.685   1.925 -0.0043  0.4042  0.0332
  305MOL    O6743235   2.647   3.607   2.075  0.2402 -0.4079 -0.5129
  305MOL    H6843236   2.791   3.490   2.031 -1.9003 -1.6605 -1.2714
  305MOL    H6943237   2.874   3.720   2.010 -2.4616  2.7082  0.7936
  305MOL    H7043238   2.745   3.764   1.902  0.3327  0.8311  0.4502
  305MOL    H7143239   2.882   3.659   1.842  1.2712  1.4407  0.7029
  305MOL    C7243240   2.586   3.498   2.146 -0.7992 -0.1902  0.7967
  305MOL    C7343241   2.665   3.469   2.275  0.1319 -0.2793 -0.7730
  305MOL    O7443242   2.456   3.519   2.170  0.4200 -0.3170  0.1504
  305MOL    H7543243   2.596   3.406   2.088  0.6531  0.3226  0.2116
  305MOL    H7643244   2.627   3.371   2.304 -0.8244  0.2553 -0.2074
  305MOL    H7743245   2.633   3.549   2.342 -1.2509 -0.9733 -0.5811
  305MOL    H7843246   2.774   3.465   2.270  0.3322 -0.2483  2.7714
  305MOL    C7943247   2.374   3.540   2.065  0.6440 -0.6145 -0.0748
  305MOL    C8043248   2.310   3.409   2.046 -0.2728 -0.3612  0.3329
  305MOL    O8143249   2.275   3.624   2.115 -0.2807 -0.4799 -0.1204
  305MOL    H8243250   2.417   3.586   1.977 -2.2612  1.9346 -0.2488
  305MOL    H8343251   2.276   3.369   2.142 -2.7677  0.0955 -0.3194
  305MOL    H8443252   2.384   3.336   2.014  2.3115  1.2622  2.4172
  305MOL    H8543253   2.233   3.417   1.969 -1.7627  0.2081  1.8482
  305MOL    C8643254   2.322   3.758   2.108  0.4123 -0.0027 -0.1921
  305MOL    C8743255   2.239   3.825   1.998  0.3473 -0.1760 -0.4447
  305MOL    O8843256   2.291   3.821   2.234 -0.3898  0.5287 -1.0011
  305MOL    H8943257   2.429   3.772   2.097  0.4262  0.0578  0.0220
  305MOL    H9043258   2.252   3.776   1.902 -3.2015 -0.2976 -0.9450
  305MOL    H9143259   2.250   3.933   1.986  0.4449 -0.3090 -1.5757
  305MOL    H9243260   2.133   3.811   2.019  0.6912 -0.6512  1.0343
  305MOL    C9343261   2.369   3.774   2.345  0.9565  0.2455  0.2276
  305MOL    C9443262   2.439   3.899   2.398  0.0925  0.0351  0.7850
  305MOL    O9543263   2.267   3.735   2.438 -0.1652  0.0008  0.1686
  305MOL    H9643264   2.427   3.683   2.330  0.6450  0.4941 -2.6689
  305MOL    H9743265   2.486   3.863   2.489  1.9143 -0.8643 -0.4875
  305MOL    H9843266   2.370   3.980   2.422  1.3439  1.1391  0.6868
  305MOL    H9943267   2.519   3.938   2.336 -0.5484 -1.7079 -1.1977
  305MOL   C10043268   2.218   3.606   2.436  0.3333  0.8024 -0.7913
  305MOL   C10143269   2.280   3.524   2.544  0.1423 -0.0151  0.0326
  305MOL   O10243270   2.077   3.601   2.459 -0.0485  0.3645  0.1196
  305MOL   H10343271   2.229   3.554   2.341 -0.2614 -0.9441  0.0707
  305MOL   H10443272   2.389   3.523   2.543  0.1425 -1.0353  0.8171
  305MOL   H10543273   2.251   3.419   2.536  0.8661 -0.2980  1.0787
  305MOL   H10643274   2.241   3.555   2.641 -2.2367 -3.1194  0.1513
  305MOL   C10743275   2.003   3.657   2.360 -0.1967 -0.5453  0.4501
  305MOL   C10843276   1.956   3.545   2.259 -0.4821  0.8938 -0.0562
  305MOL   O10943277   1.894   3.713   2.415  0.2179 -0.5579 -0.2598
  305MOL   H11043278   2.045   3.726   2.287 -3.1142  2.9837  1.9463
  305MOL   H11143279   1.877   3.588   2.197  2.7045  1.6830 -3.8028
  305MOL   H11243280   1.916   3.456   2.307  1.2307  0.6826  1.0275
  305MOL   H11343281   2.032   3.515   2.187  0.2171  0.7335  0.7499
  305MOL   C11443282   1.914   3.836   2.479  0.3564 -0.3321  0.6169
  305MOL   C11543283   1.857   3.946   2.394 -0.5699  0.5053 -0.1404
  305MOL   O11643284   1.851   3.850   2.606 -0.1199  0.8874  0.6087
  305MOL   H11743285   2.020   3.850   2.498  0.0733  3.0581  0.0666
  305MOL   H11843286   1.880   4.042   2.440  0.4596 -0.6238  1.7938
  305MOL   H11943287   1.750   3.935   2.376 -0.9933  2.1853  1.2768
  305MOL   H12043288   1.901   3.954   2.295 -2.3483  1.1365 -0.8952
  305MOL   C12143289   1.910   3.773   2.705 -0.6422 -0.0913 -0.2107
  305MOL   C12243290   1.968   3.874   2.807  0.0560  0.0037  0.5255
  305MOL   O12343291   1.806   3.699   2.769  0.0697  0.0747  0.1782
  305MOL   H12443292   1.994   3.707   2.682 -0.5789 -0.1451  0.1716
  305MOL   H12543293   2.057   3.919   2.762  0.7329 -2.6677 -0.9005
  305MOL   H12643294   2.003   3.807   2.885 -2.2387 -0.7957  0.8994
  305MOL   H12743295   1.894   3.945   2.845  2.3128  2.0345  1.2844
  305MOL   C12843296   1.786   3.577   2.703  0.4248  0.3832  0.4917
  305MOL   C12943297   1.847   3.465   2.795  0.5213  0.1475 -0.4269
  305MOL   O13043298   1.644   3.551   2.687  0.7652 -0.2024  0.4460
  305MOL   H13143299   1.840   3.566   2.609  1.8811 -3.4077  1.6801
  305MOL   H13243300   1.953   3.481   2.817  0.3523 -1.9879  2.2083
  305MOL   H13343301   1.825   3.363   2.761 -1.0477  0.6517 -0.9535
  305MOL   H13443302   1.791   3.459   2.888 -1.4071 -1.2202 -1.6305
  305MOL   C13543303   1.591   3.619   2.588  0.2292 -0.5318  0.1942
  305MOL   C13643304   1.454   3.548   2.565  0.3886  0.4273 -0.8409
  305MOL   O13743305   1.569   3.756   2.624  0.4508  0.0390 -0.0360
  305MOL   H13843306   1.656   3.611   2.500  0.4968  0.4035  0.2962
  305MOL   H13943307   1.391   3.548   2.655  0.0457 -0.1029 -1.0770
  305MOL   H14043308   1.470   3.450   2.520 -0.4984 -0.8740  1.5737
  305MOL   H14143309   1.397   3.608   2.495  1.1558  1.3766 -0.6595
  305MOL   H14243310   1.650   3.804   2.624  1.1647 -1.1722 -0.0909
  306MOL     C143311   2.084   5.048   7.298  0.3645 -0.3273 -0.4586
  306MOL     C243312   2.048   5.151   7.182  0.2927 -0.7775 -0.2106
  306MOL     O343313   2.222   5.058   7.331 -0.3067  0.4967 -0.1042
  306MOL     H443314   2.074   4.943   7.271 -1.5587  0.7232 -4.1932
  306MOL     H543315   1.948   5.127   7.145 -0.6180  0.7906  1.1483
  306MOL     H643316   2.122   5.139   7.103  1.5889  0.3601  0.8099
  306MOL     H743317   2.056   5.255   7.216  1.0908 -0.6697 -0.7170
  306MOL     H843318   2.026   5.067   7.388 -1.4832  1.0106 -1.9098
  306MOL     C943319   2.259   5.012   7.456  0.5117 -0.0820 -0.5287
  306MOL    C1043320   2.401   4.967   7.469 -0.1013  0.3401 -0.6212
  306MOL    O1143321   2.244   5.115   7.554 -0.0306 -0.1812  0.1771
  306MOL    H1243322   2.196   4.927   7.483  0.7507 -1.0740 -2.9822
  306MOL    H1343323   2.429   4.937   7.570 -0.5202 -0.1051 -0.6405
  306MOL    H1443324   2.464   5.056   7.478  0.5926 -0.3470  1.5630
  306MOL    H1543325   2.433   4.900   7.388  0.6690 -0.1897  0.1107
  306MOL    C1643326   2.209   5.074   7.679 -0.1049  0.5007 -0.2853
  306MOL    C1743327   2.231   5.186   7.776 -0.0571  0.6802 -0.6763
  306MOL    O1843328   2.077   5.036   7.686 -0.1565 -0.1504  1.0323
  306MOL    H1943329   2.276   4.991   7.700 -0.3233  0.3238 -0.2794
  306MOL    H2043330   2.141   5.244   7.798  0.1624  0.4267  0.9325
  306MOL    H2143331   2.300   5.257   7.730 -0.6587  0.7377 -1.4997
  306MOL    H2243332   2.266   5.145   7.871  0.6847  0.5470 -1.0034
  306MOL    C2343333   2.052   4.925   7.774  0.1643  0.0334 -0.8245
  306MOL    C2443334   1.907   4.885   7.762  0.6406 -0.6870  0.2579
  306MOL    O2543335   2.127   4.813   7.738 -0.0441 -0.5515  0.2392
  306MOL    H2643336   2.071   4.956   7.877  1.4876 -0.7577 -0.8248
  306MOL    H2743337   1.883   4.806   7.834 -1.7977  0.7622  1.0993
  306MOL    H2843338   1.891   4.857   7.658  1.3972 -1.2869  0.3012
  306MOL    H2943339   1.837   4.962   7.793 -0.2423 -1.0640 -0.7697
  306MOL    C3043340   2.207   4.759   7.842  0.5680 -0.1211  0.2426
  306MOL    C3143341   2.255   4.622   7.793  0.3050  0.1354  0.7950
  306MOL    O3243342   2.322   4.840   7.867  0.1614  0.5790  0.4711
  306MOL    H3343343   2.143   4.752   0.016  2.3455 -0.4268  1.5454
  306MOL    H3443344   2.172   4.573   7.741 -1.0590  1.8458  1.2998
  306MOL    H3543345   2.295   4.558   7.872 -0.0638 -1.0874  0.0082
  306MOL    H3643346   2.335   4.631   7.721  1.2695 -0.7848  1.7382
  306MOL    C3743347   2.358   4.842   0.084  0.3354 -0.3455 -1.1064
  306MOL    C3843348   2.501   4.882   0.083 -0.5785  0.4921  0.1270
  306MOL    O3943349   2.286   4.950   0.143 -0.2893  0.2840 -0.0700
  306MOL    H4043350   2.349   4.747   0.137 -1.3627 -0.0007 -0.7566
  306MOL    H4143351   2.540   4.885   0.185  2.9276  0.1120 -1.1235
  306MOL    H4243352   2.506   4.978   0.032 -1.4704  0.1863 -0.5404
  306MOL    H4343353   2.567   4.813   0.030 -1.7129  0.1824 -0.8918
  306MOL    C4443354   2.250   4.924   0.272 -0.6070  0.1630 -0.4422
  306MOL    C4543355   2.185   5.052   0.322 -0.1022  1.0253 -0.1859
  306MOL    O4643356   2.138   4.836   0.273 -0.1893 -0.6828 -0.7476
  306MOL    H4743357   2.335   4.883   0.326 -1.5852  0.3219  1.2555
  306MOL    H4843358   2.092   5.067   0.267  0.3015  1.1498 -0.8336
  306MOL    H4943359   2.263   5.128   0.321 -0.3105  1.3168  2.1167
  306MOL    H5043360   2.157   5.039   0.427 -1.4700 -0.1871 -0.6763
  306MOL    C5143361   2.166   4.720   0.346  0.0748  0.1104 -0.2343
  306MOL    C5243362   2.029   4.680   0.400 -0.0180 -0.4356  0.5310
  306MOL    O5343363   2.227   4.622   0.271 -0.5610  0.0881  0.1479
  306MOL    H5443364   2.227   4.734   0.435 -1.0698  1.8582  0.3035
  306MOL    H5543365   2.029   4.590   0.460 -0.3353 -0.9290 -0.1988
  306MOL    H5643366   1.962   4.667   0.315  0.4175 -0.2640  0.1593
  306MOL    H5743367   1.979   4.749   0.468 -0.9158 -0.9204  0.3696
  306MOL    C5843368   2.319   4.548   0.343  0.6852  0.2438 -0.1427
  306MOL    C5943369   2.363   4.447   0.248 -0.6994 -0.9218 -0.3670
  306MOL    O6043370   2.432   4.629   0.359  0.1607  0.4441  0.5823
  306MOL    H6143371   2.268   4.509   0.431 -0.5354  1.4790 -0.2839
  306MOL    H6243372   2.285   4.381   0.211  0.9279 -2.4505 -1.1760
  306MOL    H6343373   2.436   4.381   0.296  0.1678 -0.4761 -1.0603
  306MOL    H6443374   2.394   4.499   0.157  2.4251 -1.7710  0.1573
  306MOL    C6543375   2.479   4.637   0.492  0.3971  0.4079 -0.4545
  306MOL    C6643376   2.620   4.685   0.470 -0.3006  0.1473 -0.3498
  306MOL    O6743377   2.415   4.727   0.582  0.4968 -0.3837  0.5070
  306MOL    H6843378   2.485   4.535   0.530 -1.7977  0.3507 -0.2012
  306MOL    H6943379   2.624   4.773   0.405 -0.2229 -0.8934 -1.7904
  306MOL    H7043380   2.668   4.605   0.414  1.0269  1.3055 -0.9073
  306MOL    H7143381   2.680   4.696   0.560  2.8834  0.8833 -2.4740
  306MOL    C7243382   2.362   4.663   0.691  0.0408  0.1174  0.3993
  306MOL    C7343383   2.314   4.774   0.779  0.4967 -0.2471  0.0377
  306MOL    O7443384   2.257   4.585   0.653  0.3766  0.5222  0.7270
  306MOL    H7543385   2.440   4.602   0.737  1.7935  1.2475 -0.9851
  306MOL    H7643386   2.268   4.733   0.869  1.4866 -0.0370  0.6574
  306MOL    H7743387   2.240   4.824   0.717  2.6385  1.8880 -0.8869
  306MOL    H7843388   2.384   4.854   0.803 -1.3115  0.7735  2.1264
  306MOL    C7943389   2.231   4.473   0.740  0.0304  0.0978  0.4786
  306MOL    C8043390   2.090   4.437   0.691  0.0054  0.9993  0.8370
  306MOL    O8143391   2.317   4.367   0.701  0.0541 -0.9577  0.4535
  306MOL    H8243392   2.235   4.488   0.848 -1.6717 -1.3189  0.7666
  306MOL    H8343393   2.094   4.419   0.584  1.3014 -2.3911  1.4035
  306MOL    H8443394   2.021   4.516   0.720  0.2872  0.5597  2.7834
  306MOL    H8543395   2.054   4.349   0.745  0.9157  0.0515 -0.0772
  306MOL    C8643396   2.398   4.314   0.800 -0.0985  0.0566 -0.1803
  306MOL    C8743397   2.474   4.198   0.745  0.2485  0.2582  0.2406
  306MOL    O8843398   2.485   4.404   0.851 -0.6560  0.3963  1.0142
  306MOL    H8943399   2.326   4.270   0.870  0.1688 -0.8911 -0.4977
  306MOL    H9043400   2.546   4.148   0.810  1.4181  1.9942  0.3118
  306MOL    H9143401   2.543   4.226   0.666 -0.4111 -0.4865 -0.6060
  306MOL    H9243402   2.403   4.132   0.696  0.1576  0.4726  0.0835
  306MOL    C9343403   2.498   4.410   0.992  0.3816 -0.2585  0.5969
  306MOL    C9443404   2.583   4.529   1.019  0.0138  0.6213 -0.2419
  306MOL    O9543405   2.376   4.420   1.066  0.5631  0.2682  0.2020
  306MOL    H9643406   2.545   4.319   1.030 -1.4487 -1.2782  0.4900
  306MOL    H9743407   2.672   4.518   0.957 -0.9634  0.1410 -1.5933
  306MOL    H9843408   2.598   4.549   1.125  0.5660  2.6707 -0.6885
  306MOL    H9943409   2.538   4.620   0.979  0.9957  0.8234 -0.9132
  306MOL   C10043410   2.370   4.336   1.180  0.4059  0.1822 -0.0874
  306MOL   C10143411   2.243   4.378   1.258 -0.0577  0.6373  0.2841
  306MOL   O10243412   2.346   4.203   1.135  0.1111 -0.4822 -0.1874
  306MOL   H10343413   2.452   4.350   1.250  1.9939 -1.0583 -1.6654
  306MOL   H10443414   2.247   4.483   1.287 -2.3076  0.7828  0.2090
  306MOL   H10543415   2.239   4.323   1.352  0.5166  0.6210  0.2972
  306MOL   H10643416   2.153   4.365   1.197 -0.4751 -0.4763  1.1199
  306MOL   C10743417   2.391   4.108   1.226  0.4663 -0.3830  0.5572
  306MOL   C10843418   2.294   3.985   1.219 -0.1723 -0.8629 -0.4371
  306MOL   O10943419   2.524   4.064   1.196  0.6555  0.0980  0.0654
  306MOL   H11043420   2.391   4.148   1.327 -2.6744  0.3075  0.3503
  306MOL   H11143421   2.291   3.951   1.116 -2.0594 -2.6486  0.1809
  306MOL   H11243422   2.197   4.011   1.261 -0.0082  2.6253 -2.0583
  306MOL   H11343423   2.336   3.900   1.273 -0.2178 -1.1687 -0.8845
  306MOL   C11443424   2.612   4.062   1.302  0.7535  0.6353  0.4287
  306MOL   C11543425   2.717   3.952   1.276  0.3128 -0.0781 -0.0055
  306MOL   O11643426   2.684   4.183   1.306 -0.3375  0.0271 -0.3513
  306MOL   H11743427   2.554   4.042   1.392 -0.2332 -0.4424 -0.4514
  306MOL   H11843428   2.746   3.949   1.171 -1.1508 -4.2994 -0.3924
  306MOL   H11943429   2.660   3.859   1.287 -1.1280  0.7774 -0.0919
  306MOL   H12043430   2.798   3.961   1.348 -0.0592  0.1584  0.3866
  306MOL   C12143431   2.682   4.243   1.435 -0.1162 -1.1379 -0.1809
  306MOL   C12243432   2.824   4.320   1.437 -0.0695 -0.0775 -0.2140
  306MOL   O12343433   2.586   4.341   1.447 -0.9698 -0.4082  0.0879
  306MOL   H12443434   2.687   4.169   1.514 -0.0870  0.7240  1.6265
  306MOL   H12543435   2.834   4.389   1.354 -0.1079 -1.1714 -1.1479
  306MOL   H12643436   2.906   4.249   1.426 -0.7664 -0.6545 -1.9733
  306MOL   H12743437   2.840   4.378   1.527 -1.0128 -0.9821  0.5495
  306MOL   C12843438   2.514   4.333   1.568 -0.1485  0.1995  0.6632
  306MOL   C12943439   2.442   4.466   1.578 -1.3074 -0.0313 -0.0495
  306MOL   O13043440   2.415   4.235   1.559 -0.5057  0.4094  0.6882
  306MOL   H13143441   2.579   4.313   1.653 -0.6694  0.1761  1.0600
  306MOL   H13243442   2.398   4.487   1.481  0.1347  0.9651 -0.4980
  306MOL   H13343443   2.515   4.545   1.592  0.4821 -1.3843 -1.5284
  306MOL   H13443444   2.360   4.477   1.649 -1.2753 -1.2324  0.1958
  306MOL   C13543445   2.423   4.146   1.669  0.4476  0.5980  0.1207
  306MOL   C13643446   2.298   4.067   1.681 -0.3446 -0.3521 -0.2409
  306MOL   O13743447   2.529   4.056   1.660 -0.4123  0.1227 -0.5433
  306MOL   H13843448   2.437   4.206   1.759 -1.2350  0.1970  0.6667
  306MOL   H13943449   2.305   3.994   1.762  1.4196  0.8974  0.7418
  306MOL   H14043450   2.287   4.011   1.588 -0.3981  1.5013 -1.3718
  306MOL   H14143451   2.211   4.129   1.701 -0.2433 -0.7403  1.4993
  306MOL   H14243452   2.598   4.078   1.720  1.0159 -1.5573 -1.5274
  307MOL     C143453   7.417   4.541   0.287 -0.4962 -0.7832  0.0179
  307MOL     C243454   7.375   4.650   0.383 -0.1718  0.0880  0.5160
  307MOL     O343455   7.297   4.467   0.245 -0.0864 -0.3101  0.6193
  307MOL     H443456   7.488   4.469   0.328 -1.2550 -0.2843  2.3136
  307MOL     H543457   7.452   4.725   0.397  0.4020 -0.5498  0.8244
  307MOL     H643458   7.342   4.626   0.485 -2.2294  0.1297 -0.1165
  307MOL     H743459   7.291   4.708   0.346 -0.3939 -0.0541  0.7887
  307MOL     H843460   7.465   4.594   0.206 -0.9683 -0.0649  0.1991
  307MOL     C943461   7.308   4.390   0.133  0.1691  0.0081  0.6310
  307MOL    C1043462   7.294   4.249   0.190 -0.1789 -0.0508 -0.2962
  307MOL    O1143463   7.198   4.406   0.053  0.0665  0.0143 -0.3208
  307MOL    H1243464   7.403   4.407   0.083 -0.2920  1.1136  0.0985
  307MOL    H1343465   7.383   4.232   0.251  0.2003  2.0655 -0.2383
  307MOL    H1443466   7.293   4.175   0.110 -0.8547 -0.4507  0.0732
  307MOL    H1543467   7.202   4.244   0.248  0.1415  1.0123  0.3019
  307MOL    C1643468   7.204   4.528   7.896  0.5290 -0.3230 -0.1600
  307MOL    C1743469   7.263   4.511   7.754  0.3993  0.3601 -0.3615
  307MOL    O1843470   7.073   4.589   7.896 -0.6733  0.7416  0.3479
  307MOL    H1943471   7.274   4.596   0.030 -2.7045  2.7481  0.4170
  307MOL    H2043472   7.366   4.474   7.753  0.6017  0.8546  1.4658
  307MOL    H2143473   7.249   4.600   7.692 -0.5065  0.2854 -0.2703
  307MOL    H2243474   7.198   4.441   7.701  0.0265 -1.1152  1.9985
  307MOL    C2343475   7.030   4.639   0.105 -0.1355 -0.8236 -0.1585
  307MOL    C2443476   7.033   4.791   0.089 -0.1802 -0.1965  0.0010
  307MOL    O2543477   6.896   4.618   0.118  0.6837  0.2631 -0.1502
  307MOL    H2643478   7.082   4.610   0.196 -1.1975  1.9174  1.3870
  307MOL    H2743479   6.976   4.840   0.168 -0.9904  0.1124 -0.7674
  307MOL    H2843480   6.999   4.823   7.905 -1.1652 -1.7009 -0.1647
  307MOL    H2943481   7.140   4.808   0.099 -0.6373  1.6853  2.3364
  307MOL    C3043482   6.853   4.492   0.153  0.1548 -0.3522 -0.6483
  307MOL    C3143483   6.775   4.502   0.283 -0.3954  0.6457 -0.1814
  307MOL    O3243484   6.751   4.455   0.060 -0.1372 -0.3300  0.2469
  307MOL    H3343485   6.934   4.420   0.162  1.0563  0.7984  0.6724
  307MOL    H3443486   6.685   4.561   0.270 -0.7021  0.3572  0.6476
  307MOL    H3543487   6.841   4.550   0.356 -0.0072 -1.2906  0.7525
  307MOL    H3643488   6.750   4.403   0.320 -1.2345 -0.5229 -3.7275
  307MOL    C3743489   6.795   4.418   7.845  0.1572  0.6549  0.8207
  307MOL    C3843490   6.807   4.270   7.848 -0.9590  0.3609  0.1025
  307MOL    O3943491   6.701   4.456   7.752 -0.1575 -0.0610  0.0263
  307MOL    H4043492   6.894   4.458   7.825 -0.7391  2.6067  0.2145
  307MOL    H4143493   6.844   4.238   7.751 -0.8260  0.5316  0.0984
  307MOL    H4243494   6.716   4.216   7.878 -0.6683 -0.8039 -1.0540
  307MOL    H4343495   6.880   4.249   0.012 -0.5169 -1.0604 -0.6803
  307MOL    C4443496   6.710   4.594   7.719  0.3090  0.0014 -0.3918
  307MOL    C4543497   6.829   4.610   7.619 -0.8886 -0.1803 -0.2274
  307MOL    O4643498   6.592   4.644   7.666 -0.5206 -0.3206  0.0593
  307MOL    H4743499   6.730   4.648   7.812 -0.1556  1.7967 -1.3050
  307MOL    H4843500   6.839   4.715   7.593 -1.7256  0.6745  2.7048
  307MOL    H4943501   6.806   4.561   7.524  1.5869  1.3312 -1.6679
  307MOL    H5043502   6.927   4.580   7.655 -0.9372 -0.9539 -0.7101
  307MOL    C5143503   6.486   4.647   7.762 -0.1964 -0.2956  0.2549
  307MOL    C5243504   6.459   4.790   7.796  0.0284  0.1549 -0.4168
  307MOL    O5343505   6.370   4.597   7.707 -0.5360  0.2788  0.3541
  307MOL    H5443506   6.511   4.589   7.851  3.1720 -0.4299 -0.7039
  307MOL    H5543507   6.543   4.842   7.842  0.0028  0.2289 -0.4545
  307MOL    H5643508   6.374   4.800   7.863  1.3907  2.5370  1.0205
  307MOL    H5743509   6.421   4.835   7.705 -1.3427  0.0947  0.1113
  307MOL    C5843510   6.381   4.474   7.639 -0.0754 -0.1309  0.3997
  307MOL    C5943511   6.381   4.354   7.740  0.4069  0.4541 -0.0958
  307MOL    O6043512   6.269   4.470   7.554 -0.6655  0.1885 -0.1631
  307MOL    H6143513   6.466   4.461   7.573  0.5030  2.6239  0.5506
  307MOL    H6243514   6.369   4.258   7.690 -0.4821  0.3054  0.3890
  307MOL    H6343515   6.304   4.377   7.813  3.3307  0.9191  2.9869
  307MOL    H6443516   6.475   4.352   7.794 -0.4996  0.6599  1.5050
  307MOL    C6543517   6.276   4.556   7.442 -0.1152 -0.3241  0.4791
  307MOL    C6643518   6.340   4.482   7.314 -0.3319 -0.1611 -0.3213
  307MOL    O6743519   6.153   4.600   7.396 -0.0930 -0.3656  0.2898
  307MOL    H6843520   6.337   4.645   7.457  1.2711 -1.3495  0.9837
  307MOL    H6943521   6.355   4.563   7.243 -0.3216  0.3902  0.3036
  307MOL    H7043522   6.267   4.417   7.266 -0.3817  1.2380 -2.1859
  307MOL    H7143523   6.435   4.435   7.336  0.0472  0.9834  0.5469
  307MOL    C7243524   6.086   4.682   7.485 -0.0375  0.6979 -0.4078
  307MOL    C7343525   6.103   4.828   7.437 -0.1070  0.1513  0.0841
  307MOL    O7443526   5.947   4.648   7.489  0.0618 -0.4200 -0.8108
  307MOL    H7543527   6.125   4.665   7.586  0.5077 -0.1932 -0.7632
  307MOL    H7643528   6.110   4.836   7.329  1.6104 -0.9192  0.0948
  307MOL    H7743529   6.198   4.867   7.475  0.4904 -0.9672 -0.2543
  307MOL    H7843530   6.027   4.900   7.467  0.1739  1.3809 -2.0390
  307MOL    C7943531   5.917   4.522   7.547 -0.5544  0.0597 -0.7046
  307MOL    C8043532   5.858   4.555   7.687  0.1652  0.0094  0.6170
  307MOL    O8143533   5.830   4.437   7.471  0.3862 -0.2975 -0.5439
  307MOL    H8243534   6.003   4.460   7.570 -1.5075 -1.2573 -0.6611
  307MOL    H8343535   5.777   4.627   7.683 -1.4942 -1.8482  0.1780
  307MOL    H8443536   5.928   4.596   7.760  0.5429  0.1773  0.1664
  307MOL    H8543537   5.825   4.465   7.739  1.2657 -0.2093  0.9616
  307MOL    C8643538   5.886   4.382   7.361 -0.9302 -0.3091  0.4298
  307MOL    C8743539   5.856   4.232   7.360  0.3151 -0.0935  0.2708
  307MOL    O8843540   5.824   4.428   7.242  0.5916  0.3207  0.1502
  307MOL    H8943541   5.993   4.397   7.368 -0.8697 -0.5384 -0.0096
  307MOL    H9043542   5.940   4.180   7.313  1.7204  0.5414  2.0169
  307MOL    H9143543   5.766   4.213   7.301  1.0965  0.6520 -1.1959
  307MOL    H9243544   5.850   4.189   7.460  1.4814  0.0804  0.4271
  307MOL    C9343545   5.905   4.519   7.169  0.1548 -0.8229  0.1781
  307MOL    C9443546   5.964   4.435   7.054 -0.2853  0.5823  0.1324
  307MOL    O9543547   5.827   4.615   7.100  0.3199 -0.2998 -0.8622
  307MOL    H9643548   5.978   4.572   7.229 -1.2100  0.4148  0.7686
  307MOL    H9743549   6.037   4.363   7.090 -0.2708  1.2957  1.5857
  307MOL    H9843550   6.023   4.503   6.992 -1.0273  2.2397  1.2088
  307MOL    H9943551   5.883   4.380   7.005  1.3450 -0.0096 -1.9447
  307MOL   C10043552   5.780   4.728   7.181 -0.4441  0.1373  0.2486
  307MOL   C10143553   5.793   4.844   7.090 -0.0691  0.0932  0.3635
  307MOL   O10243554   5.647   4.717   7.206 -0.1383  0.1942  0.3595
  307MOL   H10343555   5.841   4.738   7.271  2.7055 -2.2682 -1.5161
  307MOL   H10443556   5.900   4.862   7.082  0.0302 -0.8080 -0.4694
  307MOL   H10543557   5.748   4.935   7.130 -0.7011 -0.6423  1.3401
  307MOL   H10643558   5.766   4.808   6.991  0.1752  1.1613 -0.0939
  307MOL   C10743559   5.612   4.674   7.339  0.0306  0.5769  0.3720
  307MOL   C10843560   5.617   4.783   7.445 -0.0378 -0.0698 -0.0472
  307MOL   O10943561   5.480   4.634   7.340 -0.3191 -0.0145  0.2096
  307MOL   H11043562   5.681   4.593   7.362  0.7096  0.3742 -2.2418
  307MOL   H11143563   5.719   4.819   7.451  0.1769 -0.4751 -1.1176
  307MOL   H11243564   5.587   4.737   7.539  1.2729  1.1932  1.0212
  307MOL   H11343565   5.545   4.860   7.415  0.3930  0.6207  0.6664
  307MOL   C11443566   5.462   4.507   7.274 -0.3272  0.4814 -0.5901
  307MOL   C11543567   5.405   4.419   7.379 -0.0479  0.0603 -0.0968
  307MOL   O11643568   5.364   4.511   7.176 -0.0986  0.3004  0.2352
  307MOL   H11743569   5.554   4.462   7.237 -0.0037 -0.2561  1.0595
  307MOL   H11843570   5.321   4.472   7.425  1.0785  0.1959  1.8945
  307MOL   H11943571   5.486   4.397   7.450 -0.5786 -0.0474  0.4821
  307MOL   H12043572   5.368   4.327   7.335  1.3468 -1.5501  1.9749
  307MOL   C12143573   5.414   4.571   7.055 -0.4458 -0.4388 -0.9502
  307MOL   C12243574   5.428   4.460   6.952  0.3310 -0.4389  0.1432
  307MOL   O12343575   5.330   4.677   7.013 -0.1097  0.1573  0.1848
  307MOL   H12443576   5.510   4.620   7.070 -0.8960  0.0398  0.5441
  307MOL   H12543577   5.456   4.506   6.858  1.1811 -0.5590  0.3340
  307MOL   H12643578   5.334   4.404   6.949  0.4069 -0.4852 -1.5387
  307MOL   H12743579   5.496   4.386   6.993 -1.8507 -2.1854  0.7394
  307MOL   C12843580   5.325   4.787   7.097 -0.7896  0.3598 -0.1037
  307MOL   C12943581   5.369   4.907   7.015 -0.0117 -0.1407 -0.1847
  307MOL   O13043582   5.195   4.813   7.132 -0.0402  0.0218  0.2289
  307MOL   H13143583   5.385   4.774   7.187 -0.2887  0.3950 -0.4321
  307MOL   H13243584   5.320   4.912   6.918 -1.8365  0.1366  0.7247
  307MOL   H13343585   5.471   4.887   6.982  0.3158 -2.1759  1.9328
  307MOL   H13443586   5.353   5.002   7.067 -0.8625  0.1230 -0.9147
  307MOL   C13543587   5.140   4.722   7.212  0.3954  0.3069  0.0649
  307MOL   C13643588   5.025   4.789   7.294 -0.0931 -0.1479 -0.2742
  307MOL   O13743589   5.085   4.618   7.142 -0.3701 -0.4149 -0.4696
  307MOL   H13843590   5.204   4.680   7.290 -0.5090 -1.3652 -0.0636
  307MOL   H13943591   5.056   4.877   7.350 -1.8548  0.1242  0.2820
  307MOL   H14043592   4.994   4.711   7.364  0.6024 -2.2641 -2.2454
  307MOL   H14143593   4.944   4.822   7.229  2.6585  1.8222 -2.8490
  307MOL   H14243594   5.160   4.577   7.102  0.7837 -0.0419  1.2444
  308MOL     C143595   5.759   1.935   3.882  0.5414  0.4170 -0.2723
  308MOL     C243596   5.724   1.813   3.958  0.1821  0.1575  0.0810
  308MOL     O343597   5.781   1.905   3.739  0.2946 -0.0308 -0.8792
  308MOL     H443598   5.850   1.980   3.923  0.7430 -2.2409  2.3948
  308MOL     H543599   5.784   1.730   3.919 -1.9875 -1.0551 -0.7475
  308MOL     H643600   5.620   1.787   3.942  0.3634  0.9981 -2.7621
  308MOL     H743601   5.738   1.832   4.064 -1.2328  0.7556  0.1670
  308MOL     H843602   5.676   2.004   3.897 -1.3959 -1.4239 -2.3556
  308MOL     C943603   5.769   2.017   3.657 -0.1929 -0.1382  0.3301
  308MOL    C1043604   5.781   1.950   3.516 -0.3291 -0.3493 -0.0352
  308MOL    O1143605   5.636   2.074   3.668 -0.2994 -0.0278  0.0700
  308MOL    H1243606   5.850   2.087   3.679 -1.8403  1.2561  2.1135
  308MOL    H1343607   5.808   2.027   3.444  1.2130 -0.2845  0.5915
  308MOL    H1443608   5.684   1.910   3.490 -0.5016 -0.4482  0.7520
  308MOL    H1543609   5.855   1.870   3.523  0.2165  0.1686  0.1243
  308MOL    C1643610   5.645   2.210   3.679 -0.4912 -0.8816  0.3690
  308MOL    C1743611   5.506   2.260   3.663 -0.1274  0.4513 -0.0788
  308MOL    O1843612   5.681   2.225   3.816 -0.2302  0.3705  0.1266
  308MOL    H1943613   5.710   2.257   3.606 -0.7420  0.4992  1.0190
  308MOL    H2043614   5.437   2.214   3.734 -1.4084  0.4321 -1.3256
  308MOL    H2143615   5.470   2.241   3.562  0.1927 -2.3242  0.2690
  308MOL    H2243616   5.502   2.368   3.672 -0.1831  0.5392 -1.1752
  308MOL    C2343617   5.721   2.349   3.859  0.3692  0.3536  0.0094
  308MOL    C2443618   5.786   2.331   3.995 -0.0954  0.3131 -0.0779
  308MOL    O2543619   5.813   2.394   3.773 -0.7242 -0.2681  0.2680
  308MOL    H2643620   5.635   2.417   3.863  0.8367  1.0520 -1.4164
  308MOL    H2743621   5.707   2.316   4.068 -1.0898 -0.1402 -1.2358
  308MOL    H2843622   5.842   2.420   4.022  1.4702 -0.4136 -0.8448
  308MOL    H2943623   5.860   2.251   3.982 -1.2843 -0.4573 -2.4288
  308MOL    C3043624   5.800   2.531   3.735  0.3473  0.0291  0.4641
  308MOL    C3143625   5.936   2.598   3.682 -0.2092 -0.2436  0.2459
  308MOL    O3243626   5.694   2.547   3.645  0.0394 -0.2704  0.1003
  308MOL    H3343627   5.772   2.593   3.820  1.8343  1.1075  0.1875
  308MOL    H3443628   5.994   2.611   3.774 -0.1270  0.8811  0.0459
  308MOL    H3543629   5.914   2.701   3.656 -2.8450 -0.8310  0.0458
  308MOL    H3643630   5.995   2.538   3.613 -0.2803  1.4930 -1.3497
  308MOL    C3743631   5.628   2.671   3.646  0.2947 -0.1678 -0.1845
  308MOL    C3843632   5.512   2.674   3.543  0.0941  0.1989 -0.2970
  308MOL    O3943633   5.567   2.694   3.772 -0.6956 -0.5309  0.3003
  308MOL    H4043634   5.701   2.749   3.630 -1.2073  1.1261 -0.9072
  308MOL    H4143635   5.547   2.640   3.446  0.0899 -0.8787  0.0646
  308MOL    H4243636   5.475   2.775   3.526  1.7783  0.9642  0.4828
  308MOL    H4343637   5.434   2.602   3.570 -0.1973 -0.1453 -1.9970
  308MOL    C4443638   5.586   2.822   3.814  0.5337 -0.2805  0.0171
  308MOL    C4543639   5.481   2.830   3.933  0.5678 -0.8138  0.4137
  308MOL    O4643640   5.717   2.843   3.865  0.1786  0.2598 -0.1694
  308MOL    H4743641   5.564   2.892   3.733 -0.7672 -1.2969 -0.5142
  308MOL    H4843642   5.491   2.929   3.977  1.6087 -1.8240  2.5313
  308MOL    H4943643   5.505   2.752   4.006  0.2149  0.1047  1.5323
  308MOL    H5043644   5.379   2.815   3.899  0.6010  0.8212 -0.4169
  308MOL    C5143645   5.777   2.965   3.827 -0.1772  0.0197 -0.5846
  308MOL    C5243646   5.909   2.971   3.900 -0.0871  0.8202 -0.4757
  308MOL    O5343647   5.792   2.968   3.692  0.2115 -0.0873 -0.0159
  308MOL    H5443648   5.717   3.052   3.854 -1.6191 -1.7491  2.0772
  308MOL    H5543649   5.960   2.882   3.865 -0.2921 -0.1002  1.5011
  308MOL    H5643650   5.906   2.958   4.008  1.2510 -0.7590 -0.6124
  308MOL    H5743651   5.979   3.049   3.868 -0.9615  0.3080 -3.9076
  308MOL    C5843652   5.774   3.094   3.633  0.5838 -0.5522 -0.7202
  308MOL    C5943653   5.814   3.078   3.490 -0.0921 -0.2723  0.2853
  308MOL    O6043654   5.645   3.137   3.657 -0.1247  0.2511  0.4278
  308MOL    H6143655   5.861   3.149   3.671 -0.6763  1.3904 -0.5856
  308MOL    H6243656   5.742   3.024   3.428  1.4020 -1.0831 -0.7644
  308MOL    H6343657   5.907   3.022   3.488 -0.2611 -0.5467  0.1864
  308MOL    H6443658   5.836   3.173   3.441  1.7597 -1.4329 -1.2286
  308MOL    C6543659   5.649   3.267   3.700  0.2508  0.4731  0.0844
  308MOL    C6643660   5.505   3.316   3.708  0.1436 -0.2649 -0.1865
  308MOL    O6743661   5.700   3.272   3.829 -0.2028  0.1640  0.8050
  308MOL    H6843662   5.703   3.321   3.622  2.1686  1.5093  2.0866
  308MOL    H6943663   5.452   3.257   3.782  1.6938 -0.4068  0.8373
  308MOL    H7043664   5.457   3.315   3.610  2.5137  2.7467 -1.4858
  308MOL    H7143665   5.491   3.410   3.762 -2.1148 -1.3772  1.2348
  308MOL    C7243666   5.774   3.388   3.854 -0.2455 -0.9412  0.3625
  308MOL    C7343667   5.829   3.376   3.995 -0.0696 -0.1407  0.4970
  308MOL    O7443668   5.878   3.403   3.765 -0.5469 -0.4221 -0.7864
  308MOL    H7543669   5.704   3.471   3.847 -1.2861 -2.0356 -3.3748
  308MOL    H7643670   5.898   3.292   3.999 -2.6595 -2.4605 -1.3036
  308MOL    H7743671   5.754   3.342   4.067 -2.1414 -0.2804 -1.6384
  308MOL    H7843672   5.884   3.463   4.029 -2.0162 -0.3383  4.4389
  308MOL    C7943673   5.884   3.532   3.713 -0.1373  0.6135  0.4415
  308MOL    C8043674   6.014   3.537   3.636 -0.0167  0.3572  0.6835
  308MOL    O8143675   5.781   3.552   3.625  0.1085  0.5079 -0.6698
  308MOL    H8243676   5.875   3.604   3.795  0.7965  1.1844  0.0548
  308MOL    H8343677   6.029   3.639   3.601  1.9716 -0.4769 -0.9506
  308MOL    H8443678   6.011   3.462   3.557 -0.1818 -1.5996  2.5020
  308MOL    H8543679   6.103   3.516   3.694  0.8439  3.8813  0.7478
  308MOL    C8643680   5.738   3.687   3.616 -0.0578  0.3701 -0.3217
  308MOL    C8743681   5.629   3.702   3.512 -0.5170  0.0332  0.7204
  308MOL    O8843682   5.688   3.736   3.737  0.2286 -0.1420 -0.3579
  308MOL    H8943683   5.824   3.749   3.592  0.5064 -1.2782 -2.7832
  308MOL    H9043684   5.668   3.711   3.411 -0.8477  1.5985  0.7148
  308MOL    H9143685   5.579   3.799   3.517 -0.7349 -0.1669  3.6915
  308MOL    H9243686   5.555   3.622   3.507  0.6043 -0.9450 -0.4812
  308MOL    C9343687   5.724   3.858   3.778  0.0158 -0.5484  0.6994
  308MOL    C9443688   5.627   3.905   3.888 -0.3341  0.0882  0.9021
  308MOL    O9543689   5.856   3.850   3.832  0.0694  0.3191 -0.0976
  308MOL    H9643690   5.706   3.923   3.692 -0.6874 -0.3105  1.0301
  308MOL    H9743691   5.632   3.845   3.979 -1.3776 -2.4283 -0.6525
  308MOL    H9843692   5.521   3.892   3.866  0.2554 -1.2059 -1.2254
  308MOL    H9943693   5.657   4.007   3.913 -0.3250  0.1988  0.4443
  308MOL   C10043694   5.936   3.960   3.803  0.1756  0.3069  0.1426
  308MOL   C10143695   6.062   3.945   3.893  0.3521 -0.7613 -0.3246
  308MOL   O10243696   5.972   3.953   3.670 -0.1857 -0.0039 -0.0463
  308MOL   H10343697   5.892   4.058   3.821 -1.1253 -0.3635  0.7279
  308MOL   H10443698   6.132   4.026   3.874  1.1612 -1.8941 -2.2319
  308MOL   H10543699   6.108   3.848   3.876  1.1853  0.0453 -2.9905
  308MOL   H10643700   6.024   3.957   3.995  2.0232 -0.9053  0.3302
  308MOL   C10743701   5.970   4.067   3.591  0.2037 -0.2496  0.2011
  308MOL   C10843702   6.077   4.055   3.481  0.2430  0.0432 -0.7322
  308MOL   O10943703   5.843   4.084   3.526 -0.0769  0.4458 -0.0075
  308MOL   H11043704   5.993   4.148   3.661 -0.2154  0.2393 -0.2190
  308MOL   H11143705   6.047   3.964   3.428  1.3446 -1.1230  0.6027
  308MOL   H11243706   6.181   4.033   3.506 -0.1229 -1.2069 -0.2980
  308MOL   H11343707   6.061   4.142   3.416 -0.7892  0.8774  0.6115
  308MOL   C11443708   5.790   4.210   3.548  0.1711  0.0994  0.4529
  308MOL   C11543709   5.680   4.234   3.445 -0.0933 -0.0282  0.4462
  308MOL   O11643710   5.746   4.204   3.680 -0.1281  0.6772  0.5359
  308MOL   H11743711   5.872   4.280   3.533 -0.3050  0.6647  0.4837
  308MOL   H11843712   5.621   4.324   3.465  1.5107  0.7215  1.8601
  308MOL   H11943713   5.601   4.160   3.461 -0.6959 -0.1557 -2.7947
  308MOL   H12043714   5.715   4.229   3.342 -1.5745 -3.1898  0.0414
  308MOL   C12143715   5.764   4.319   3.751 -0.0076 -0.2188  0.8709
  308MOL   C12243716   5.681   4.314   3.875  0.6263  0.5400 -0.3547
  308MOL   O12343717   5.904   4.330   3.779  0.8630 -0.4577  0.6408
  308MOL   H12443718   5.735   4.409   3.698  2.0460  0.4395  0.8170
  308MOL   H12543719   5.699   4.395   3.946 -0.3107  0.2002  0.2892
  308MOL   H12643720   5.692   4.220   3.929  0.4636 -0.2271 -1.6537
  308MOL   H12743721   5.578   4.318   3.841  0.7457 -1.0274 -0.9234
  308MOL   C12843722   5.945   4.463   3.784  0.0423  0.4121  0.0181
  308MOL   C12943723   6.098   4.454   3.821  0.0386 -0.6042  0.1454
  308MOL   O13043724   5.940   4.529   3.662  0.0500  0.7359  0.2649
  308MOL   H13143725   5.883   4.505   3.863  0.6774  2.1426 -0.3993
  308MOL   H13243726   6.152   4.418   3.734 -0.0404  2.1145 -1.0789
  308MOL   H13343727   6.106   4.381   3.901 -0.7859 -1.1815 -0.2874
  308MOL   H13443728   6.129   4.554   3.848 -0.0810 -0.2922 -0.8314
  308MOL   C13543729   5.894   4.661   3.682  1.2662  0.6800  0.4608
  308MOL   C13643730   5.916   4.744   3.557 -0.3153 -0.2139  0.1247
  308MOL   O13743731   5.760   4.671   3.720 -0.4628  0.3309 -0.1628
  308MOL   H13843732   5.953   4.709   3.760  3.0359  1.9210 -1.5562
  308MOL   H13943733   5.878   4.846   3.568 -0.2742 -0.2721  0.7778
  308MOL   H14043734   5.861   4.708   3.469 -2.6230  0.5968  1.1994
  308MOL   H14143735   6.021   4.748   3.529 -0.4786  1.6280 -0.3241
  308MOL   H14243736   5.763   4.728   3.796  2.4939 -0.4809  0.4085
  309MOL     C143737   6.570   1.430   0.340  0.1679 -0.1259  0.3895
  309MOL     C243738   6.608   1.491   0.201 -0.7969  0.0674 -0.0387
  309MOL     O343739   6.647   1.474   0.452 -0.2593  1.0142 -0.4904
  309MOL     H443740   6.572   1.322   0.327 -2.0821 -0.0667 -0.7588
  309MOL     H543741   6.610   1.600   0.202  0.1860  0.0598 -0.1064
  309MOL     H643742   6.526   1.464   0.135 -2.8681  0.6264  2.2552
  309MOL     H743743   6.707   1.454   0.175  0.4796  0.9171  3.3108
  309MOL     H843744   6.465   1.458   0.354  0.1644 -0.6913  1.5275
  309MOL     C943745   6.642   1.392   0.563  0.3047  0.3301 -0.2552
  309MOL    C1043746   6.689   1.455   0.693  0.3374  0.1251 -0.3964
  309MOL    O1143747   6.511   1.364   0.590  0.6722 -0.6052  0.0605
  309MOL    H1243748   6.692   1.303   0.526 -2.2651 -0.8776 -1.0099
  309MOL    H1343749   6.686   1.392   0.782 -2.1997  0.1452 -0.4201
  309MOL    H1443750   6.628   1.542   0.718  0.7711  0.5050 -0.6564
  309MOL    H1543751   6.787   1.494   0.665  0.2135  1.1224  0.5019
  309MOL    C1643752   6.479   1.228   0.636  0.1209  0.0021 -0.0525
  309MOL    C1743753   6.329   1.221   0.667 -0.8080 -0.4594  0.2809
  309MOL    O1843754   6.505   1.146   0.524  0.7515  0.2076  0.1914
  309MOL    H1943755   6.534   1.193   0.723 -1.7280 -2.7177  0.0860
  309MOL    H2043756   6.300   1.277   0.756  0.3338  0.3189  0.1788
  309MOL    H2143757   6.304   1.116   0.681  0.1341 -0.4590  2.0545
  309MOL    H2243758   6.270   1.264   0.586  0.6882  0.8459 -0.1562
  309MOL    C2343759   6.557   1.020   0.553  0.2063 -0.2553 -0.0245
  309MOL    C2443760   6.555   0.943   0.419  1.1342  0.9988  0.5967
  309MOL    O2543761   6.691   1.027   0.596  0.7487 -0.6548  0.4768
  309MOL    H2643762   6.492   0.972   0.625  0.8659 -0.3650  0.4950
  309MOL    H2743763   6.631   0.988   0.355 -0.5848  2.0063 -0.7731
  309MOL    H2843764   6.459   0.930   0.369  0.6368  0.2225  1.7381
  309MOL    H2943765   6.590   0.841   0.428 -0.2986  0.5373  1.0855
  309MOL    C3043766   6.712   0.935   0.697  0.8510 -0.3360  0.5238
  309MOL    C3143767   6.857   0.933   0.710 -0.6123  0.1375  0.0679
  309MOL    O3243768   6.661   0.983   0.817  0.1613 -0.3071  0.4136
  309MOL    H3343769   6.679   0.834   0.671  1.2622 -0.3857  0.1959
  309MOL    H3443770   6.899   0.896   0.617  0.4464  0.3309  0.4630
  309MOL    H3543771   6.895   0.860   0.781  1.4280 -0.4519 -1.5851
  309MOL    H3643772   6.898   1.029   0.741  0.0800 -0.2088  0.2406
  309MOL    C3743773   6.622   0.874   0.892 -0.5903  0.6840 -0.4166
  309MOL    C3843774   6.608   0.934   1.025  0.2062  0.0855  0.4197
  309MOL    O3943775   6.502   0.820   0.854 -0.4276 -0.0697  0.1932
  309MOL    H4043776   6.705   0.803   0.888 -1.1668  0.0028 -0.3134
  309MOL    H4143777   6.603   0.860   1.105 -1.2443 -0.8971 -0.5455
  309MOL    H4243778   6.514   0.989   1.033 -0.3980 -0.3352 -3.1120
  309MOL    H4343779   6.703   0.986   1.036  0.1412  0.0648  1.1302
  309MOL    C4443780   6.494   0.679   0.870 -0.8458 -0.4838  0.4915
  309MOL    C4543781   6.350   0.632   0.875  0.0041  0.3919  0.3983
  309MOL    O4643782   6.539   0.627   0.752  0.0264  0.5106 -0.1758
  309MOL    H4743783   6.538   0.640   0.962  0.3754  0.2202  0.2085
  309MOL    H4843784   6.296   0.651   0.783  0.3037  2.4158  0.6257
  309MOL    H4943785   6.289   0.681   0.951 -0.7917 -0.9124  0.6155
  309MOL    H5043786   6.349   0.526   0.902  0.8367  0.1466 -0.4887
  309MOL    C5143787   6.633   0.529   0.768  0.0412 -0.2607  0.0889
  309MOL    C5243788   6.626   0.445   0.641  0.1245 -0.0527  0.6710
  309MOL    O5343789   6.760   0.589   0.778  0.7157 -0.0952  0.7338
  309MOL    H5443790   6.620   0.466   0.856  1.3682 -0.3835  0.2147
  309MOL    H5543791   6.651   0.504   0.553  2.8305 -1.0326  0.7166
  309MOL    H5643792   6.532   0.390   0.642  1.1581 -1.8912  0.2431
  309MOL    H5743793   6.699   0.364   0.651 -0.1715 -0.4526 -0.3367
  309MOL    C5843794   6.852   0.522   0.865 -0.8763 -0.2685 -1.1318
  309MOL    C5943795   6.992   0.583   0.836 -0.5469  0.1335 -0.2468
  309MOL    O6043796   6.821   0.550   0.996  0.8438 -0.2810 -0.2213
  309MOL    H6143797   6.833   0.417   0.841 -2.7650 -0.4381  0.9771
  309MOL    H6243798   6.991   0.688   0.865 -1.1134  0.1839 -0.4464
  309MOL    H6343799   7.025   0.573   0.732 -2.0055  1.2901 -0.8478
  309MOL    H6443800   7.064   0.540   0.904  0.4060  0.4743 -1.0279
  309MOL    C6543801   6.835   0.442   1.083  0.2516  0.4439  0.1798
  309MOL    C6643802   6.880   0.492   1.226  0.2596  0.3160  0.3611
  309MOL    O6743803   6.707   0.386   1.108 -0.1752 -0.1718 -0.8143
  309MOL    H6843804   6.912   0.370   1.057  1.4599  0.6638  2.9175
  309MOL    H6943805   6.877   0.411   1.300  2.3662 -0.7229 -0.6400
  309MOL    H7043806   6.807   0.567   1.255  0.3163 -0.1026  1.6182
  309MOL    H7143807   6.977   0.541   1.220  0.5775 -0.3552 -0.0495
  309MOL    C7243808   6.703   0.248   1.076 -0.3507  0.2308 -0.5507
  309MOL    C7343809   6.562   0.200   1.122 -0.2286 -0.1346  0.1268
  309MOL    O7443810   6.709   0.223   0.943  0.0250  0.2905  0.8611
  309MOL    H7543811   6.776   0.190   1.132 -0.4053  0.1508 -0.5608
  309MOL    H7643812   6.545   0.245   1.220 -2.4962  1.7764 -1.0699
  309MOL    H7743813   6.539   0.094   1.127 -0.5435  0.0443  3.7819
  309MOL    H7843814   6.487   0.253   1.063 -0.9566 -1.5733 -0.2533
  309MOL    C7943815   6.751   0.095   0.914  0.1282  0.6500  0.2556
  309MOL    C8043816   6.639   0.042   0.828  0.4173 -0.2917 -0.0151
  309MOL    O8143817   6.864   0.095   0.837  0.0125 -0.4570  0.3520
  309MOL    H8243818   6.750   0.020   0.993  0.8098  0.1746 -0.1737
  309MOL    H8343819   6.634   0.099   0.735  1.0955  0.2523  0.2762
  309MOL    H8443820   6.541   0.046   0.876  0.3574  0.2872 -0.1755
  309MOL    H8543821   6.651   7.850   0.808 -0.6286 -0.4827  0.3503
  309MOL    C8643822   6.979   0.061   0.904  0.8151 -0.8771 -0.7064
  309MOL    C8743823   7.068   7.909   0.803 -0.2002 -0.5901 -0.0652
  309MOL    O8843824   7.046   0.173   0.956 -0.1130 -0.2356 -0.1920
  309MOL    H8943825   6.949   7.902   0.979  1.8085 -0.2000  0.3467
  309MOL    H9043826   7.023   7.817   0.766 -1.4153 -0.0008 -0.0765
  309MOL    H9143827   7.163   7.888   0.853  0.7053 -0.1094 -1.5546
  309MOL    H9243828   7.082   0.058   0.716 -0.0021 -1.1018 -0.4039
  309MOL    C9343829   7.111   0.156   1.080  0.0321  0.4225 -0.2134
  309MOL    C9443830   7.220   0.260   1.090  0.4788  0.6564 -0.1761
  309MOL    O9543831   7.018   0.169   1.193 -0.2774  0.1521  0.5616
  309MOL    H9643832   7.160   0.059   1.079 -0.0900  0.3588  0.0630
  309MOL    H9743833   7.177   0.361   1.090 -0.4373  0.2810 -0.9517
  309MOL    H9843834   7.283   0.247   1.002  0.7539  0.5653  0.0346
  309MOL    H9943835   7.281   0.238   1.177 -0.9006 -1.9395  0.1770
  309MOL   C10043836   7.030   0.061   1.280  0.3907  0.0763  0.5282
  309MOL   C10143837   6.977   0.090   1.419  0.1407 -0.5842 -0.2558
  309MOL   O10243838   6.961   7.870   1.233  0.0455 -0.7203 -0.1402
  309MOL   H10343839   7.137   0.040   1.287  0.2318 -1.0920 -0.3598
  309MOL   H10443840   7.031   0.171   1.469  0.8552 -2.2258  1.7207
  309MOL   H10543841   6.989   0.005   1.486 -1.9544 -1.5047 -1.0427
  309MOL   H10643842   6.872   0.115   1.406  0.4221  0.8609  0.1365
  309MOL   C10743843   7.035   7.750   1.249  0.2325  0.0811 -0.2061
  309MOL   C10843844   6.942   7.624   1.229  0.2191  0.9465 -0.1048
  309MOL   O10943845   7.129   7.744   1.150  0.1543  0.5674  0.1883
  309MOL   H11043846   7.067   7.747   1.353  0.9979 -0.0461 -0.4439
  309MOL   H11143847   6.936   7.603   1.122 -1.2739  0.5005  0.0583
  309MOL   H11243848   6.840   7.642   1.262 -0.3496 -0.5114 -1.0338
  309MOL   H11343849   6.992   7.537   1.273  0.0912 -1.1131 -3.8550
  309MOL   C11443850   7.242   7.685   1.197  0.3401  0.0286 -0.0498
  309MOL   C11543851   7.346   7.696   1.087  0.1363  0.1885 -0.1985
  309MOL   O11643852   7.287   7.759   1.305  0.3585 -0.3773  0.5055
  309MOL   H11743853   7.230   7.578   1.216 -0.7129  0.3411  1.1810
  309MOL   H11843854   7.387   7.797   1.082 -0.8257  0.8459  3.6052
  309MOL   H11943855   7.295   7.664   0.996  1.4440 -1.6835 -0.2905
  309MOL   H12043856   7.431   7.630   1.101 -0.2225 -0.3337 -0.4700
  309MOL   C12143857   7.328   7.685   1.415 -0.5818 -0.6970 -0.5898
  309MOL   C12243858   7.357   7.782   1.526  0.8095 -0.0109  0.3210
  309MOL   O12343859   7.217   7.609   1.455 -0.4426 -0.1441 -0.1787
  309MOL   H12443860   7.415   7.628   1.385 -0.2416 -0.7022  0.3847
  309MOL   H12543861   7.273   7.846   1.553  0.3805 -0.3784 -0.1373
  309MOL   H12643862   7.431   7.854   1.492  1.6454 -0.8573  0.3273
  309MOL   H12743863   7.405   7.731   1.610 -0.5589 -0.4911  0.8257
  309MOL   C12843864   7.253   7.504   1.545  0.3251 -1.2659 -0.2864
  309MOL   C12943865   7.140   7.502   1.642 -1.0462 -0.1618  0.3173
  309MOL   O13043866   7.246   7.382   1.475  0.0155  0.3799 -0.3135
  309MOL   H13143867   7.350   7.524   1.589 -0.9252  2.4256  0.9990
  309MOL   H13243868   7.157   7.426   1.718  1.5472 -0.1644 -0.2256
  309MOL   H13343869   7.042   7.488   1.597  0.2695  0.4462 -2.8520
  309MOL   H13443870   7.128   7.595   1.697 -0.8306 -0.0939  0.2488
  309MOL   C13543871   7.364   7.339   1.410  0.7771 -0.5696  0.6136
  309MOL   C13643872   7.403   7.200   1.475  0.2001 -0.1173  0.6651
  309MOL   O13743873   7.341   7.328   1.270 -0.6227  0.0436 -0.0180
  309MOL   H13843874   7.451   7.404   1.402 -0.1405  0.7642  1.2154
  309MOL   H13943875   7.505   7.170   1.452  0.0519  1.2976 -2.0391
  309MOL   H14043876   7.337   7.122   1.434  1.8891 -1.0930 -0.2720
  309MOL   H14143877   7.389   7.202   1.583  2.0669  0.8298  0.9128
  309MOL   H14243878   7.424   7.338   1.226 -0.7181 -1.6374 -0.6068
  310MOL     C143879   1.634   0.502   5.214 -0.0480 -0.9431  0.5126
  310MOL     C243880   1.600   0.595   5.091  0.1989 -0.2045  0.0515
  310MOL     O343881   1.587   0.375   5.172  0.4425 -0.2747 -0.0992
  310MOL     H443882   1.593   0.525   5.313 -1.8547  4.0232 -1.2507
  310MOL     H543883   1.662   0.585   5.001 -1.0875 -0.9266 -0.7637
  310MOL     H643884   1.625   0.699   5.110 -1.1210  0.4356 -1.5587
  310MOL     H743885   1.493   0.592   5.071  0.4829 -0.0394 -1.5660
  310MOL     H843886   1.742   0.508   5.222  0.0534 -1.4550 -0.4243
  310MOL     C943887   1.661   0.267   5.206  1.1015  0.0514  0.3973
  310MOL    C1043888   1.604   0.216   5.329 -0.9189  0.1157 -0.0386
  310MOL    O1143889   1.637   0.168   5.114  0.0156 -0.0809 -0.2741
  310MOL    H1243890   1.763   0.299   5.227  0.3867  2.2849  0.6346
  310MOL    H1343891   1.508   0.172   5.304 -1.7183  2.0595 -0.4727
  310MOL    H1443892   1.595   0.296   5.403  1.4102  1.5543 -1.2465
  310MOL    H1543893   1.669   0.135   5.362  0.3634  0.7810 -0.9082
  310MOL    C1643894   1.714   0.178   4.998 -0.2323  0.0696  0.0364
  310MOL    C1743895   1.822   0.061   5.004 -0.0109 -1.0574 -0.0560
  310MOL    O1843896   1.636   0.154   4.885 -0.1163  0.5792 -0.1977
  310MOL    H1943897   1.758   0.278   4.993 -0.7460  0.4225  2.2144
  310MOL    H2043898   1.884   0.064   4.914  1.7061 -1.7576  1.0724
  310MOL    H2143899   1.777   7.876   4.998 -1.4480 -0.4474  0.5193
  310MOL    H2243900   1.883   0.076   5.094  2.2014  2.1334 -1.9715
  310MOL    C2343901   1.562   0.268   4.843  0.2720 -0.1438 -0.2275
  310MOL    C2443902   1.614   0.300   4.703  0.5103 -0.5048  0.6797
  310MOL    O2543903   1.433   0.230   4.825 -0.6711 -0.0541  0.4106
  310MOL    H2643904   1.582   0.349   4.914  3.6017 -0.3947 -0.8056
  310MOL    H2743905   1.599   0.406   4.681  2.1802 -0.3542  0.1802
  310MOL    H2843906   1.584   0.237   4.620 -1.6862  0.5854  0.6235
  310MOL    H2943907   1.723   0.303   4.711  0.4870  2.3149  0.4747
  310MOL    C3043908   1.355   0.227   4.943 -0.1058 -0.1698 -0.3955
  310MOL    C3143909   1.268   0.355   4.953 -0.6668 -0.4354  0.2471
  310MOL    O3243910   1.268   0.123   4.933  0.0896  0.1958 -0.7649
  310MOL    H3343911   1.415   0.229   5.034 -0.7763  0.8512  0.0329
  310MOL    H3443912   1.316   0.445   4.915 -2.8883  0.8134  0.2854
  310MOL    H3543913   1.235   0.363   5.057 -1.4985 -1.1138  0.0459
  310MOL    H3643914   1.181   0.331   4.892  0.3448 -1.6235 -0.7648
  310MOL    C3743915   1.318   0.001   4.977 -0.3727  0.8221 -0.0565
  310MOL    C3843916   1.256   7.878   5.117 -0.3234  0.0139  0.0601
  310MOL    O3943917   1.293   7.802   4.901 -0.0166  0.3221  0.2482
  310MOL    H4043918   1.426   0.014   4.989 -0.0938 -1.9418  0.8022
  310MOL    H4143919   1.149   7.860   5.119 -0.5826  1.4787 -0.0725
  310MOL    H4243920   1.275   0.050   5.181  0.5656  0.2764 -0.5477
  310MOL    H4343921   1.297   7.788   5.163 -1.4432 -1.0953 -1.0695
  310MOL    C4443922   1.373   7.792   4.780  0.1020 -0.8879  0.0917
  310MOL    C4543923   1.425   7.649   4.802 -0.4221  0.0991 -0.2133
  310MOL    O4643924   1.292   7.789   4.661 -0.3364  0.4620 -0.0646
  310MOL    H4743925   1.448   7.869   4.763 -0.8717 -0.1501 -0.9700
  310MOL    H4843926   1.486   7.643   4.892 -2.4539 -2.3077  1.0581
  310MOL    H4943927   1.493   7.620   4.722 -0.2699  1.6100 -0.6599
  310MOL    H5043928   1.345   7.576   4.802  0.1864 -0.6055 -2.3268
  310MOL    C5143929   1.235   7.910   4.628 -0.3087  0.8473  0.2399
  310MOL    C5243930   1.288   0.023   4.493  0.5124 -0.1599  0.2639
  310MOL    O5343931   1.091   7.891   4.616  0.0074 -0.6279  0.0707
  310MOL    H5443932   1.251   0.089   4.682  1.0699  1.0296 -0.4550
  310MOL    H5543933   1.388   0.065   4.495 -0.0880  1.2939  0.7648
  310MOL    H5643934   1.216   0.078   4.432 -0.5758 -0.4814  1.2419
  310MOL    H5743935   1.296   7.844   4.436  1.6295 -0.0175  0.1742
  310MOL    C5843936   1.026   7.913   4.740 -0.0276  0.5773 -0.0779
  310MOL    C5943937   0.962   0.137   4.713 -0.2243 -0.1472  0.2117
  310MOL    O6043938   0.928   7.822   4.759 -0.0560 -0.7128 -0.1524
  310MOL    H6143939   1.088   0.011   4.829 -0.4832  2.0367  0.0487
  310MOL    H6243940   0.901   0.162   4.800 -1.2532 -1.6264 -0.0613
  310MOL    H6343941   0.914   0.148   4.616 -0.9389 -0.2288  0.5556
  310MOL    H6443942   1.032   0.220   4.719  0.1223 -0.2483 -2.2580
  310MOL    C6543943   0.967   7.704   4.814 -0.6341  0.4136  0.2484
  310MOL    C6643944   0.892   7.701   4.952 -1.1662  0.4268  0.2831
  310MOL    O6743945   0.917   7.598   4.736  0.2058  0.4282  0.3038
  310MOL    H6843946   1.071   7.700   4.846 -0.5272 -1.4342 -0.2544
  310MOL    H6943947   0.926   7.787   5.010  1.1389 -0.6966  0.6353
  310MOL    H7043948   0.924   7.608   4.999  4.5428  1.7891 -0.5470
  310MOL    H7143949   0.784   7.715   4.942 -1.3999 -0.6195  1.2375
  310MOL    C7243950   1.009   7.567   4.626 -0.1266  0.2084  0.2897
  310MOL    C7343951   1.078   7.436   4.664  0.2668 -0.3148 -0.1467
  310MOL    O7443952   0.937   7.535   4.508  0.1590 -0.2448 -0.3960
  310MOL    H7543953   1.076   7.650   4.604 -1.0170  0.6759 -0.7298
  310MOL    H7643954   1.149   7.412   4.584  0.2852 -3.3851  0.7337
  310MOL    H7743955   1.012   7.350   4.671  1.1518 -1.1086 -1.2539
  310MOL    H7843956   1.129   7.460   4.757 -1.0158  0.9102  0.2489
  310MOL    C7943957   0.875   7.657   4.459  0.8273 -0.3511  1.1550
  310MOL    C8043958   0.950   7.691   4.331 -0.2005  0.6717  0.1531
  310MOL    O8143959   0.744   7.629   4.419  0.1701  0.7497 -0.2766
  310MOL    H8243960   0.881   7.741   4.528  2.2513  1.2533 -0.8802
  310MOL    H8343961   0.974   7.607   4.265 -2.6393 -0.5748  0.7712
  310MOL    H8443962   1.039   7.736   4.374  0.5508 -1.6522  1.1178
  310MOL    H8543963   0.911   7.764   4.260 -0.6439 -1.2138 -1.6208
  310MOL    C8643964   0.664   7.595   4.523  0.3732 -0.0832 -0.1446
  310MOL    C8743965   0.585   7.729   4.572 -0.4355 -0.2729  0.3618
  310MOL    O8843966   0.564   7.508   4.476  1.2002 -0.0721 -0.2015
  310MOL    H8943967   0.724   7.559   4.607  1.2171 -1.1314 -1.1802
  310MOL    H9043968   0.646   7.769   4.653 -1.1391  0.8226  0.3599
  310MOL    H9143969   0.484   7.711   4.609 -0.3266  0.6370  1.1186
  310MOL    H9243970   0.584   7.795   4.485  2.0878 -2.0404 -1.0928
  310MOL    C9343971   0.612   7.385   4.438 -0.7395 -0.0455  0.1351
  310MOL    C9443972   0.538   7.280   4.515  0.3606  0.3129  0.1190
  310MOL    O9543973   0.563   7.363   4.305  0.3968  0.3915 -0.9836
  310MOL    H9643974   0.718   7.360   4.446  0.1871  4.3303  2.8568
  310MOL    H9743975   0.567   7.182   4.477  0.3076  0.6618 -0.8402
  310MOL    H9843976   0.429   7.276   4.512  0.3775  0.0021 -0.0997
  310MOL    H9943977   0.577   7.286   4.616 -1.7085  2.8507  0.8406
  310MOL   C10043978   0.647   7.420   4.204 -0.6053  0.3239  0.4261
  310MOL   C10143979   0.729   7.310   4.142  0.3881 -0.6901 -0.1057
  310MOL   O10243980   0.575   7.481   4.112 -0.3346 -0.1955  0.0613
  310MOL   H10343981   0.722   7.488   4.244 -1.0707  0.2062  1.5164
  310MOL   H10443982   0.663   7.238   4.094  0.1906 -0.4073 -0.2570
  310MOL   H10543983   0.797   7.259   4.210  0.4545  0.3095  0.5889
  310MOL   H10643984   0.793   7.348   4.062 -0.3572 -1.0772 -0.8949
  310MOL   C10743985   0.527   7.610   4.156  0.4830  0.0030 -0.2892
  310MOL   C10843986   0.613   7.713   4.092 -0.1155  0.1356  0.1916
  310MOL   O10943987   0.397   7.642   4.119 -0.1777  0.2658 -0.3145
  310MOL   H11043988   0.524   7.620   4.264 -2.3578  3.4474 -0.6093
  310MOL   H11143989   0.592   7.807   4.143 -1.7700 -0.2418  0.2395
  310MOL   H11243990   0.602   7.718   3.984 -0.8412 -2.9033  0.0908
  310MOL   H11343991   0.719   7.692   4.106 -0.3846 -1.9698 -0.7395
  310MOL   C11443992   0.295   7.603   4.210  0.3846  0.7608 -0.1036
  310MOL   C11543993   0.203   7.734   4.217  0.0890 -0.3663 -0.0605
  310MOL   O11643994   0.210   7.508   4.151 -0.0444  0.1120  0.3212
  310MOL   H11743995   0.314   7.576   4.314 -0.4891  0.0397 -0.1244
  310MOL   H11843996   0.255   7.805   4.280  1.5610 -0.9795 -0.5536
  310MOL   H11943997   0.107   7.718   4.266 -0.6220 -1.4196 -1.7218
  310MOL   H12043998   0.182   7.770   4.117  0.3491  2.0394  0.7371
  310MOL   C12143999   0.245   7.377   4.173 -0.3871 -0.0439  0.6605
  310MOL   C12244000   0.154   7.322   4.279  0.2883 -0.1257  0.3563
  310MOL   O12344001   0.202   7.304   4.059 -0.3169 -0.3203  0.3584
  310MOL   H12444002   0.346   7.357   4.210 -0.2901 -3.6417 -1.3132
  310MOL   H12544003   0.146   7.214   4.267 -3.2358 -0.0996  1.7391
  310MOL   H12644004   0.054   7.365   4.266  1.0183  0.8697 -2.3098
  310MOL   H12744005   0.193   7.331   4.380 -0.3682  3.0641  0.3905
  310MOL   C12844006   0.277   7.342   3.942  0.0271 -0.1135 -0.6076
  310MOL   C12944007   0.349   7.222   3.891 -0.1742 -0.1031  0.1238
  310MOL   O13044008   0.192   7.383   3.840  0.0518 -0.4106  0.1150
  310MOL   H13144009   0.340   7.428   3.965 -0.0870  0.0770 -1.0156
  310MOL   H13244010   0.431   7.193   3.957  1.1893  2.1197 -0.5464
  310MOL   H13344011   0.389   7.241   3.791  1.6309  1.3256  1.0967
  310MOL   H13444012   0.282   7.136   3.886 -0.3166 -0.0438  1.0218
  310MOL   C13544013   0.149   7.514   3.838 -0.7875  0.1982 -0.3418
  310MOL   C13644014   0.097   7.547   3.700  0.1421 -0.1572  0.2707
  310MOL   O13744015   0.067   7.552   3.941 -0.1964 -0.2595 -0.5798
  310MOL   H13844016   0.243   7.571   3.844 -0.0269 -0.9910 -0.8234
  310MOL   H13944017   7.908   7.510   3.699  0.2264 -0.3955  0.4603
  310MOL   H14044018   0.175   7.497   3.642  1.3289  1.0153  0.8357
  310MOL   H14144019   0.101   7.655   3.684  1.2187 -0.2322 -0.0174
  310MOL   H14244020   0.114   7.517   4.015  1.1721  1.6813 -0.4760
  311MOL     C144021   5.509   7.435   3.930  0.2078  0.3753  0.0807
  311MOL     C244022   5.650   7.494   3.929  0.7408 -0.3290  0.3852
  311MOL     O344023   5.460   7.458   3.797  0.1850 -0.4467 -0.3247
  311MOL     H444024   5.450   7.489   4.005 -1.7148 -2.0577  0.3960
  311MOL     H544025   5.710   7.489   3.838 -1.3631 -2.5108 -0.9437
  311MOL     H644026   5.720   7.474   4.011 -0.4855 -0.1542  1.4993
  311MOL     H744027   5.630   7.599   3.953  0.1487 -0.6544  1.3751
  311MOL     H844028   5.496   7.331   3.959 -2.2662  0.4649 -0.6129
  311MOL     C944029   5.347   7.387   3.762  0.5692  0.3102  0.4741
  311MOL    C1044030   5.223   7.427   3.853 -1.0523  0.5705  0.3082
  311MOL    O1144031   5.316   7.414   3.627  0.1038  0.0870 -0.5314
  311MOL    H1244032   5.365   7.280   3.771 -1.2319 -0.3156 -2.8012
  311MOL    H1344033   5.134   7.367   3.836 -2.4253  2.4861  0.5378
  311MOL    H1444034   5.196   7.532   3.842  0.1213  1.3180  3.7350
  311MOL    H1544035   5.252   7.416   3.958 -2.9321  0.2699  0.8061
  311MOL    C1644036   5.406   7.363   3.533 -0.2782 -0.8907  0.1334
  311MOL    C1744037   5.348   7.244   3.465  0.3208 -0.0580 -0.1394
  311MOL    O1844038   5.431   7.458   3.433  0.6076  0.2646 -0.2416
  311MOL    H1944039   5.503   7.333   3.572 -0.2733 -0.9207  0.0977
  311MOL    H2044040   5.246   7.262   3.429  1.5418  0.1154 -3.7345
  311MOL    H2144041   5.345   7.164   3.538 -1.0633  0.5104  0.4562
  311MOL    H2244042   5.417   7.213   3.387  2.3393  2.3162  0.5999
  311MOL    C2344043   5.525   7.553   3.472 -0.6834  0.4758 -0.0305
  311MOL    C2444044   5.644   7.540   3.369 -0.8078  0.6452 -0.3849
  311MOL    O2544045   5.472   7.683   3.459 -0.0866  0.3416 -0.2978
  311MOL    H2644046   5.562   7.545   3.574 -0.2277  0.2054 -0.2138
  311MOL    H2744047   5.691   7.450   3.408  0.6412  1.3524 -0.4820
  311MOL    H2844048   5.706   7.628   3.384 -0.3275  0.0296  1.5013
  311MOL    H2944049   5.609   7.526   3.267  2.3665  0.6276 -1.5308
  311MOL    C3044050   5.411   7.734   3.579 -0.3245 -0.5502  0.2323
  311MOL    C3144051   5.517   7.824   3.653 -0.1734 -0.0533  0.1489
  311MOL    O3244052   5.303   7.822   3.544  0.1612 -0.3240 -0.4212
  311MOL    H3344053   5.378   7.653   3.643  0.4362 -0.2446  1.0115
  311MOL    H3444054   5.567   7.891   3.583 -0.2414 -0.0069  0.1448
  311MOL    H3544055   5.587   7.753   3.696 -0.7832 -0.1816  0.9349
  311MOL    H3644056   5.465   7.886   3.727 -0.6178 -0.5371  0.2420
  311MOL    C3744057   5.180   7.763   3.494 -0.2921  0.1609 -0.4671
  311MOL    C3844058   5.077   7.751   3.602  0.2427  0.1343  0.2374
  311MOL    O3944059   5.130   7.838   3.387  0.1079  0.2662 -0.5361
  311MOL    H4044060   5.195   7.663   3.453 -0.2079  0.5652 -1.4375
  311MOL    H4144061   5.110   7.682   3.680  1.4836 -0.6097 -0.9211
  311MOL    H4244062   4.980   7.716   3.567 -0.4265 -1.0544  3.1204
  311MOL    H4344063   5.069   7.846   3.655  0.8166 -0.1077  0.7687
  311MOL    C4444064   5.219   7.840   3.284  0.3544 -0.5030 -0.4848
  311MOL    C4544065   5.189   7.722   3.181  0.2718 -0.0507 -0.1630
  311MOL    O4644066   5.198   0.039   3.205  0.2895  0.4106 -0.0252
  311MOL    H4744067   5.326   7.835   3.304  0.0630  0.8606  1.5057
  311MOL    H4844068   5.233   7.629   3.217  1.1364  0.3406 -0.1808
  311MOL    H4944069   5.227   7.745   3.082 -0.3370 -1.9595 -0.8516
  311MOL    H5044070   5.081   7.713   3.170  0.2732 -0.3983  0.1145
  311MOL    C5144071   5.251   0.157   3.250  0.3273 -0.1121 -0.1413
  311MOL    C5244072   5.365   0.200   3.157 -0.7335 -0.0337  0.3202
  311MOL    O5344073   5.153   0.252   3.240  0.4368 -0.4981 -0.4908
  311MOL    H5444074   5.286   0.147   3.353 -0.8430  0.3690  0.3133
  311MOL    H5544075   5.457   0.144   3.173 -0.2307  1.0188  1.1552
  311MOL    H5644076   5.387   0.307   3.162 -0.1487 -0.1753  0.7330
  311MOL    H5744077   5.335   0.183   3.054  0.8895 -0.4682 -0.0894
  311MOL    C5844078   5.053   0.237   3.341 -0.2842  0.3751 -0.8057
  311MOL    C5944079   5.087   0.324   3.464 -0.4070 -0.3100 -0.0774
  311MOL    O6044080   4.929   0.289   3.295  0.4234 -0.0599 -0.7823
  311MOL    H6144081   5.036   0.134   3.371  2.7538 -0.1396 -0.6427
  311MOL    H6244082   5.078   0.429   3.437  0.0505 -0.0934  0.5851
  311MOL    H6344083   5.188   0.304   3.502 -0.2600 -1.0671 -0.8618
  311MOL    H6444084   5.015   0.305   3.543 -0.9572  0.0130 -0.5024
  311MOL    C6544085   4.870   0.224   3.186  0.1472 -0.0788 -0.2946
  311MOL    C6644086   4.738   0.168   3.236  0.1721  0.0994 -0.9024
  311MOL    O6744087   4.853   0.302   3.072 -0.4916  0.1225  0.1776
  311MOL    H6844088   4.931   0.136   3.166 -2.7966 -1.6946 -2.5646
  311MOL    H6944089   4.664   0.248   3.244  0.1092  0.1258 -1.6833
  311MOL    H7044090   4.755   0.127   3.336  0.3213 -0.2056 -1.0503
  311MOL    H7144091   4.704   0.094   3.163  0.8187 -0.8496 -0.2499
  311MOL    C7244092   4.961   0.301   2.983 -0.4077 -0.5513 -0.2207
  311MOL    C7344093   4.909   0.233   2.861  0.2954 -0.1852  0.6247
  311MOL    O7444094   4.995   0.431   2.952  0.1966 -0.5214  0.4468
  311MOL    H7544095   5.048   0.248   3.021 -1.7891 -0.9090  2.5432
  311MOL    H7644096   4.969   0.261   2.775 -1.0051  2.0121  0.4135
  311MOL    H7744097   4.807   0.270   2.848 -0.4086 -2.3180 -0.3354
  311MOL    H7844098   4.917   0.126   2.880  1.1022  0.0405  1.5575
  311MOL    C7944099   5.059   0.501   3.053 -0.0520 -0.1871 -0.0657
  311MOL    C8044100   5.207   0.521   3.007 -0.2634  0.2891  0.0373
  311MOL    O8144101   4.998   0.626   3.069  0.3390  0.2744 -0.2985
  311MOL    H8244102   5.058   0.453   3.151  1.6278 -1.7800 -0.8127
  311MOL    H8344103   5.215   0.583   2.917  0.5293  0.4275  0.1996
  311MOL    H8444104   5.257   0.430   2.975  0.1093  0.0243  1.3828
  311MOL    H8544105   5.266   0.555   3.091 -2.6401  1.3890  1.3189
  311MOL    C8644106   4.899   0.632   3.159  0.1262 -0.5635 -0.4121
  311MOL    C8744107   4.949   0.693   3.290  0.1874  0.2215 -0.1219
  311MOL    O8844108   4.794   0.705   3.108  0.2236 -0.0564 -0.0149
  311MOL    H8944109   4.864   0.531   3.180  0.8412 -0.4524  1.3561
  311MOL    H9044110   4.881   0.690   3.376 -0.1216 -0.5113 -0.3879
  311MOL    H9144111   4.969   0.800   3.278  1.6359  0.1060  1.0905
  311MOL    H9244112   5.044   0.648   3.319 -0.2355 -0.8490 -0.3938
  311MOL    C9344113   4.701   0.634   3.038 -0.0302  0.0928  0.0188
  311MOL    C9444114   4.586   0.569   3.127  0.2681  0.2815 -0.2226
  311MOL    O9544115   4.645   0.729   2.949 -0.0345  0.2363 -0.0792
  311MOL    H9644116   4.750   0.559   2.976 -1.1944  2.0277 -3.3908
  311MOL    H9744117   4.501   0.541   3.064  0.4925  2.2408 -1.4393
  311MOL    H9844118   4.546   0.651   3.187  0.0226  1.7618 -2.3611
  311MOL    H9944119   4.625   0.483   3.181  1.4395  0.4524 -0.7843
  311MOL   C10044120   4.730   0.764   2.844 -0.6395 -0.7569  0.3244
  311MOL   C10144121   4.695   0.684   2.717 -0.7299  0.3307 -0.6211
  311MOL   O10244122   4.705   0.896   2.800 -0.0257 -0.3839 -0.1944
  311MOL   H10344123   4.838   0.758   2.859 -0.5807 -0.5044  0.0188
  311MOL   H10444124   4.590   0.707   2.698 -1.0638  1.8822  2.7003
  311MOL   H10544125   4.701   0.576   2.730 -1.6440  0.4228  0.6502
  311MOL   H10644126   4.759   0.723   2.638 -0.0475 -0.0662 -0.2645
  311MOL   C10744127   4.749   0.989   2.902 -0.1999  0.3998 -0.4076
  311MOL   C10844128   4.886   1.045   2.844  0.4083 -0.3110 -0.9103
  311MOL   O10944129   4.647   1.091   2.897 -0.1989 -0.5589 -0.1151
  311MOL   H11044130   4.758   0.948   3.002  2.1201 -0.8010 -1.0850
  311MOL   H11144131   4.965   0.972   2.826  2.5086  1.4370  0.8503
  311MOL   H11244132   4.940   1.118   2.905  0.9408 -2.2130  0.9406
  311MOL   H11344133   4.862   1.079   2.743 -2.1744  0.5029 -0.0566
  311MOL   C11444134   4.518   1.034   2.914  0.1158 -0.1831  1.4626
  311MOL   C11544135   4.487   1.028   3.059  0.2191  0.1490  0.1269
  311MOL   O11644136   4.432   1.129   2.854  0.3307 -0.2122 -0.0688
  311MOL   H11744137   4.506   0.937   2.864 -0.3565  1.1194 -1.0660
  311MOL   H11844138   4.540   0.944   3.102  0.2458 -0.1823 -0.5480
  311MOL   H11944139   4.381   1.006   3.075  0.1977 -0.9629 -1.4958
  311MOL   H12044140   4.510   1.126   3.101  0.8163 -0.3347  0.9390
  311MOL   C12144141   4.439   1.136   2.721  0.4196  0.1570  0.4191
  311MOL   C12244142   4.318   1.070   2.671 -0.2094 -0.2435  0.1561
  311MOL   O12344143   4.433   1.270   2.690  0.2743 -0.7649 -0.8065
  311MOL   H12444144   4.527   1.083   2.686  0.3093 -0.1547  0.6107
  311MOL   H12544145   4.311   0.968   2.708  0.0923  0.0020  0.8905
  311MOL   H12644146   4.310   1.076   2.562  1.5821 -1.3261 -0.0592
  311MOL   H12744147   4.234   1.111   2.726  1.3986 -0.4370  2.8518
  311MOL   C12844148   4.554   1.341   2.715 -0.3788  0.5411 -0.3780
  311MOL   C12944149   4.610   1.389   2.579 -0.2129  0.4921  0.1938
  311MOL   O13044150   4.528   1.457   2.787  0.3139 -0.3318  0.6496
  311MOL   H13144151   4.634   1.286   2.763 -1.8518 -1.0586  0.2902
  311MOL   H13244152   4.694   1.459   2.584  0.8153 -0.4956 -2.2126
  311MOL   H13344153   4.539   1.452   2.525 -0.4148 -0.5218 -0.7231
  311MOL   H13444154   4.632   1.311   2.506  1.7520 -0.4475  1.7462
  311MOL   C13544155   4.485   1.427   2.912 -1.0031 -0.3471  1.0816
  311MOL   C13644156   4.497   1.553   2.994 -0.1402 -0.2003  0.0824
  311MOL   O13744157   4.351   1.395   2.916  0.7445  0.0046  0.1352
  311MOL   H13844158   4.551   1.347   2.945  0.6826  0.4171 -0.3713
  311MOL   H13944159   4.480   1.528   3.099  2.6330  1.4797  0.9867
  311MOL   H14044160   4.425   1.631   2.968  0.3333  0.0588 -0.4511
  311MOL   H14144161   4.599   1.592   2.990 -0.0354 -0.5682 -0.7542
  311MOL   H14244162   4.338   1.308   2.881  1.3226 -0.1423  0.2808
  312MOL     C144163   1.105   1.072   5.075  0.0518  0.6113 -0.0695
  312MOL     C244164   1.006   1.100   4.957  0.3041  0.0290  0.0189
  312MOL     O344165   1.116   1.199   5.141  0.3878 -0.0885  0.0294
  312MOL     H444166   1.202   1.035   5.042  1.2632 -0.4641  4.4504
  312MOL     H544167   1.035   1.180   4.889 -2.2957 -1.7105 -3.2651
  312MOL     H644168   0.908   1.133   4.992  1.2906  0.2935  2.6547
  312MOL     H744169   0.997   1.012   4.893 -3.4648 -2.0280  3.1920
  312MOL     H844170   1.069   0.987   5.133  0.3423 -0.4220 -1.3509
  312MOL     C944171   1.134   1.188   5.280  0.0662  0.0663  0.1824
  312MOL    C1044172   1.203   1.309   5.334  0.3350  0.3774 -0.6115
  312MOL    O1144173   1.009   1.185   5.342 -0.0383  0.0995  0.5311
  312MOL    H1244174   1.200   1.104   5.301 -0.8746 -0.5189  0.8057
  312MOL    H1344175   1.143   1.400   5.330  1.7711  1.5007  2.0030
  312MOL    H1444176   1.290   1.333   5.274  1.4441  0.5982  1.0349
  312MOL    H1544177   1.236   1.291   5.437 -1.3199  2.3157  0.2874
  312MOL    C1644178   0.983   1.069   5.416  0.3998  0.7108  0.0881
  312MOL    C1744179   1.049   1.085   5.552 -0.6899  0.0505 -0.3017
  312MOL    O1844180   0.849   1.052   5.441  0.3346 -0.3108 -0.3904
  312MOL    H1944181   1.013   0.977   5.366  1.7442  0.0127  2.1106
  312MOL    H2044182   1.043   1.008   5.629  2.9049 -0.7293 -0.7159
  312MOL    H2144183   1.022   1.183   5.592  0.6604  0.6386 -0.7933
  312MOL    H2244184   1.155   1.069   5.532 -0.6776 -0.0829 -0.1347
  312MOL    C2344185   0.778   1.055   5.320 -0.3707 -0.7379  0.0522
  312MOL    C2444186   0.691   0.932   5.325 -0.1249 -0.4126  0.4436
  312MOL    O2544187   0.696   1.163   5.301 -0.2830 -0.3656 -0.3390
  312MOL    H2644188   0.837   1.038   5.230 -2.5797 -0.0360 -1.5978
  312MOL    H2744189   0.753   0.844   5.309 -2.7801 -2.0068 -1.4459
  312MOL    H2844190   0.623   0.933   5.240 -1.2471  1.5876  1.3460
  312MOL    H2944191   0.644   0.920   5.423 -2.3117  0.0751 -0.5209
  312MOL    C3044192   0.736   1.263   5.216 -0.1338 -0.4297 -0.0540
  312MOL    C3144193   0.652   1.256   5.081  0.3423 -0.0806 -0.0792
  312MOL    O3244194   0.703   1.393   5.265  0.2105  0.4604 -0.4575
  312MOL    H3344195   0.842   1.256   5.189  0.1508 -3.0283  1.5831
  312MOL    H3444196   0.684   1.331   5.009  1.6349  0.3411  0.9232
  312MOL    H3544197   0.550   1.292   5.096 -0.0020 -0.9868 -0.1755
  312MOL    H3644198   0.662   1.162   5.026  0.7850 -0.0081 -0.1217
  312MOL    C3744199   0.769   1.415   5.387  0.0467 -0.7095 -0.0434
  312MOL    C3844200   0.856   1.544   5.371 -0.2885 -0.4249  0.3666
  312MOL    O3944201   0.677   1.450   5.493 -0.0722 -0.2649  0.1761
  312MOL    H4044202   0.836   1.337   5.423  2.9204  1.9534  0.5965
  312MOL    H4144203   0.804   1.634   5.337  3.8096  0.5947 -3.7020
  312MOL    H4244204   0.929   1.520   5.294 -0.4109 -1.2018  0.4863
  312MOL    H4344205   0.898   1.571   5.468 -0.0753  2.9934 -0.5878
  312MOL    C4444206   0.628   1.345   5.570  0.2457  0.2952 -0.1012
  312MOL    C4544207   0.702   1.344   5.713  0.7022 -0.5486  0.4229
  312MOL    O4644208   0.485   1.354   5.584  0.4211  0.3739  0.0961
  312MOL    H4744209   0.640   1.244   5.530  0.1281 -0.0836  0.7930
  312MOL    H4844210   0.714   1.446   5.750 -0.2631 -0.4074  0.3427
  312MOL    H4944211   0.796   1.294   5.689 -0.1492 -1.3148 -1.3704
  312MOL    H5044212   0.645   1.286   5.785  0.2256 -0.2636  0.2749
  312MOL    C5144213   0.414   1.303   5.473  0.7802 -0.0260 -0.1950
  312MOL    C5244214   0.332   1.184   5.513 -0.4434 -0.1512 -0.0058
  312MOL    O5344215   0.325   1.395   5.420  0.5507 -0.5886  0.0586
  312MOL    H5444216   0.492   1.276   5.402  0.2337  1.6949 -1.4663
  312MOL    H5544217   0.395   1.095   5.513  2.8864  2.1287 -2.5206
  312MOL    H5644218   0.265   1.152   5.434  1.0117  1.3490 -1.8747
  312MOL    H5744219   0.273   1.210   5.601 -0.7750 -0.1433 -0.2275
  312MOL    C5844220   0.389   1.502   5.350  0.1609 -0.1362  0.0408
  312MOL    C5944221   0.337   1.497   5.203 -0.0451  0.0496  0.0193
  312MOL    O6044222   0.337   1.617   5.404  0.7022  0.7335  0.4264
  312MOL    H6144223   0.497   1.497   5.359  0.0858  0.5931  1.4711
  312MOL    H6244224   0.230   1.498   5.182  0.6821  1.8627 -3.9604
  312MOL    H6344225   0.367   1.403   5.157 -0.1917  0.6294 -1.2902
  312MOL    H6444226   0.371   1.587   5.152  2.4955 -0.8552  0.0944
  312MOL    C6544227   0.405   1.680   5.502 -0.3318 -0.0067  0.2035
  312MOL    C6644228   0.471   1.803   5.425 -0.7316 -0.0044 -0.1949
  312MOL    O6744229   0.320   1.721   5.609  0.2772  0.3158 -0.6571
  312MOL    H6844230   0.477   1.618   5.555  0.8499  0.9040 -0.3358
  312MOL    H6944231   0.394   1.855   5.369 -0.7859 -3.1087 -3.1962
  312MOL    H7044232   0.555   1.770   5.363 -0.9359 -3.0671  1.0633
  312MOL    H7144233   0.512   1.866   5.503 -0.1414  1.4645 -1.6685
  312MOL    C7244234   0.250   1.621   5.679  0.1687  0.4295 -0.8846
  312MOL    C7344235   0.299   1.609   5.819  0.4497  0.4343  0.2333
  312MOL    O7444236   0.116   1.666   5.693  0.1086 -0.3120  0.0082
  312MOL    H7544237   0.241   1.522   5.634 -0.4064  0.3351 -0.5722
  312MOL    H7644238   0.289   1.695   5.886 -1.8596  0.9250 -0.6959
  312MOL    H7744239   0.406   1.588   5.806  0.1551  0.4333 -2.4846
  312MOL    H7844240   0.256   1.525   5.873  0.2189  0.9769  0.8996
  312MOL    C7944241   0.044   1.657   5.575  0.2452 -0.5070 -0.1506
  312MOL    C8044242   7.846   1.562   5.603  0.2677  0.4616  0.5993
  312MOL    O8144243   7.903   1.784   5.538 -0.3002  0.2607 -0.0796
  312MOL    H8244244   0.107   1.615   5.496  1.5303 -0.7536  0.9848
  312MOL    H8344245   7.783   1.598   5.685 -0.0158  1.7080 -0.1521
  312MOL    H8444246   7.878   1.461   5.627  0.2395  0.2629 -0.2134
  312MOL    H8544247   7.782   1.549   5.516  1.3627 -0.4817 -0.0634
  312MOL    C8644248   0.073   1.868   5.468 -0.0694  0.4059  0.2919
  312MOL    C8744249   0.017   1.868   5.323  0.2535  0.1470 -0.8459
  312MOL    O8844250   0.064   1.999   5.517 -0.2480  0.5582  0.1455
  312MOL    H8944251   0.177   1.834   5.468 -0.2250 -0.1039  2.1351
  312MOL    H9044252   0.044   1.778   5.267  1.8477 -0.9684  1.6191
  312MOL    H9144253   0.062   1.947   5.263  0.3354  0.0985 -0.8489
  312MOL    H9244254   7.823   1.879   5.315  0.3436  1.2283 -0.5798
  312MOL    C9344255   0.141   2.016   5.637  0.4256 -0.2963 -0.2594
  312MOL    C9444256   0.258   2.105   5.598 -0.2053 -0.0744  0.5361
  312MOL    O9544257   0.075   2.084   5.735  0.0794 -0.7487 -0.0776
  312MOL    H9644258   0.170   1.918   5.676  1.1559  0.0807  0.1629
  312MOL    H9744259   0.232   2.193   5.541 -0.3411  0.2370  1.0752
  312MOL    H9844260   0.326   2.047   5.535  1.8395  0.7586  1.9162
  312MOL    H9944261   0.305   2.120   5.696 -0.5896  0.4462  0.6396
  312MOL   C10044262   7.903   2.001   5.808 -0.6294 -0.2162 -0.4454
  312MOL   C10144263   0.066   1.943   5.924 -0.8966 -0.6679  0.3267
  312MOL   O10244264   7.795   2.065   5.858  0.7814 -0.4748  0.0795
  312MOL   H10344265   7.866   1.919   5.746 -1.2084  0.5076 -1.0634
  312MOL   H10444266   0.159   1.901   5.886 -0.9298  0.3496 -0.8914
  312MOL   H10544267   0.016   1.856   5.968 -0.9479 -0.6726  0.2582
  312MOL   H10644268   0.092   2.019   5.998 -0.0905 -0.1744 -0.4630
  312MOL   C10744269   7.698   2.087   5.766  0.5703  0.1784  0.0234
  312MOL   C10844270   7.610   1.966   5.746  0.4017  0.2063  0.2120
  312MOL   O10944271   7.613   2.190   5.809 -0.0375 -0.1474  0.6147
  312MOL   H11044272   7.737   2.123   5.671  0.0929  1.3905  0.2808
  312MOL   H11144273   7.663   1.892   5.686  1.7398  1.8699 -0.7282
  312MOL   H11244274   7.519   2.002   5.698 -0.0605 -1.7628 -0.4343
  312MOL   H11344275   7.583   1.926   5.843 -0.2565  0.8133  0.2827
  312MOL   C11444276   7.683   2.312   5.835  0.2176  0.0873  0.3961
  312MOL   C11544277   7.651   2.413   5.732  0.7571 -0.6407  0.1535
  312MOL   O11644278   7.643   2.359   5.960 -0.1773 -0.4627  0.5120
  312MOL   H11744279   7.791   2.295   5.841  0.8348  3.4915  0.1673
  312MOL   H11844280   7.673   2.367   5.636  1.1577 -1.3274  0.5702
  312MOL   H11944281   7.721   2.495   5.751 -1.7044  1.2759  1.2031
  312MOL   H12044282   7.554   2.460   5.747  0.6400 -0.7117 -0.4078
  312MOL   C12144283   7.639   2.259   6.063  0.2795 -1.1115 -0.3548
  312MOL   C12244284   7.771   2.264   6.136 -0.2517 -1.1625  0.2011
  312MOL   O12344285   7.536   2.294   6.153  0.0218 -0.1945  0.3074
  312MOL   H12444286   7.610   2.159   6.032 -0.3177 -0.5679 -1.6000
  312MOL   H12544287   7.766   2.211   6.231  2.5369 -1.1565  0.4065
  312MOL   H12644288   7.804   2.365   6.161  0.9104 -1.1724 -1.2246
  312MOL   H12744289   7.843   2.203   6.082  0.6384 -2.1131  2.4212
  312MOL   C12844290   7.408   2.265   6.100 -0.2089  0.3824  0.1115
  312MOL   C12944291   7.358   2.122   6.144 -0.0230 -0.5166  0.0769
  312MOL   O13044292   7.321   2.365   6.143  0.0466  0.5879  0.8829
  312MOL   H13144293   7.407   2.268   5.991 -1.1439 -1.4188  0.0503
  312MOL   H13244294   7.265   2.105   6.089 -0.4084  0.2536  0.4753
  312MOL   H13344295   7.345   2.117   6.252 -0.7240 -1.3918 -0.0379
  312MOL   H13444296   7.438   2.056   6.113  0.4301  0.6005 -1.2060
  312MOL   C13544297   7.347   2.494   6.105 -0.2125  0.0787 -0.4660
  312MOL   C13644298   7.313   2.516   5.957  0.3243 -0.0881  0.2721
  312MOL   O13744299   7.269   2.593   6.175  0.1212 -0.4245  0.0630
  312MOL   H13844300   7.449   2.520   6.133 -0.4552  0.6142 -0.0705
  312MOL   H13944301   7.382   2.473   5.884  0.2792  0.4981 -0.1195
  312MOL   H14044302   7.308   2.622   5.934  2.2447  0.1763  0.9049
  312MOL   H14144303   7.211   2.485   5.937  0.5473 -0.6002 -0.0646
  312MOL   H14244304   7.335   2.644   6.220  0.3078  0.3667 -1.0917
  313MOL     C144305   0.047   5.534   5.678  0.0968  0.0874 -0.0587
  313MOL     C244306   0.084   5.471   5.803  0.1503 -0.1532 -0.3804
  313MOL     O344307   7.860   5.628   5.705  0.0722  0.5510 -0.0151
  313MOL     H444308   0.020   5.453   5.612  1.5230 -0.4194 -0.0390
  313MOL     H544309   0.142   5.536   5.868 -0.5408  0.7123 -0.6018
  313MOL     H644310   0.145   5.382   5.800  0.0360 -0.3636  2.1870
  313MOL     H744311   7.906   5.448   5.858  0.5264  0.3192  0.4589
  313MOL     H844312   0.137   5.574   5.630 -0.5473  2.3472  0.5161
  313MOL     C944313   7.840   5.733   5.622 -0.0345 -0.3057  0.1105
  313MOL    C1044314   7.718   5.704   5.524 -0.3126 -0.2145  0.6296
  313MOL    O1144315   7.818   5.846   5.702  0.2256  0.1900 -0.4569
  313MOL    H1244316   0.018   5.745   5.565 -0.0687  1.5447  0.4023
  313MOL    H1344317   7.741   5.610   5.474  0.2771 -0.5016  1.4280
  313MOL    H1444318   7.714   5.782   5.448 -0.8205 -0.3093  0.5549
  313MOL    H1544319   7.619   5.697   5.568 -0.4903  0.2313  0.3079
  313MOL    C1644320   0.026   5.918   5.728  0.0590  0.3352  0.1712
  313MOL    C1744321   0.058   6.012   5.613 -0.3179 -1.0495  0.0908
  313MOL    O1844322   0.021   5.989   5.842 -1.0307  0.8358  0.4040
  313MOL    H1944323   0.114   5.854   5.735  0.5718  0.9540 -0.4612
  313MOL    H2044324   0.156   6.058   5.627 -1.2768  0.9437  0.5394
  313MOL    H2144325   7.894   6.089   5.603  1.8580  1.1664 -0.3450
  313MOL    H2244326   0.069   5.963   5.516  1.1390  1.2476 -0.9474
  313MOL    C2344327   0.009   5.914   5.953  0.3603 -0.2784  0.5402
  313MOL    C2444328   0.159   5.873   5.992  0.0432 -0.6346 -0.1025
  313MOL    O2544329   7.889   5.995   6.051  0.4746 -0.8054  0.1137
  313MOL    H2644330   7.860   5.825   5.951  0.2807 -0.2300  0.7996
  313MOL    H2744331   0.188   5.782   5.939  1.4304 -2.1047  3.0255
  313MOL    H2844332   0.160   5.838   6.095 -1.1750 -0.1092  0.0927
  313MOL    H2944333   0.230   5.951   5.963 -0.1366 -0.4286  0.0151
  313MOL    C3044334   7.751   6.016   6.061  0.0863  0.4751  0.2235
  313MOL    C3144335   7.698   5.937   6.181  0.2623  0.2738 -0.1376
  313MOL    O3244336   7.725   6.149   6.087  0.2308 -0.4213  0.4649
  313MOL    H3344337   7.701   5.986   5.968 -3.5635  1.9684  1.6129
  313MOL    H3444338   7.593   5.963   6.181  0.2209  0.1916  1.8343
  313MOL    H3544339   7.757   5.969   6.268  0.2834  0.5557 -0.2576
  313MOL    H3644340   7.700   5.829   6.168 -3.4462  0.4599 -2.8734
  313MOL    C3744341   7.738   6.225   5.962 -0.7632 -0.5145 -0.1558
  313MOL    C3844342   7.587   6.242   5.923 -0.1307 -0.1345 -0.3396
  313MOL    O3944343   7.813   6.340   5.976  0.3989  0.7683 -0.4210
  313MOL    H4044344   7.773   6.167   5.877  0.0626  0.9231 -0.8136
  313MOL    H4144345   7.521   6.158   5.946 -1.2918  0.4096 -1.5660
  313MOL    H4244346   7.569   6.267   5.818  0.7572  0.6478 -0.3092
  313MOL    H4344347   7.542   6.323   5.980 -1.3669  0.0087 -1.4973
  313MOL    C4444348   0.030   6.318   6.021 -0.1028 -0.3999 -0.4162
  313MOL    C4544349   0.118   6.305   5.899  0.4540 -0.6377  0.3752
  313MOL    O4644350   0.079   6.434   6.089 -0.3361  0.3067  0.6194
  313MOL    H4744351   0.031   6.232   6.087  0.5400  0.5491  0.8265
  313MOL    H4844352   0.209   6.361   5.919 -0.3146  1.2426 -1.2955
  313MOL    H4944353   0.072   6.325   5.803 -0.3755  2.0806  1.2914
  313MOL    H5044354   0.144   6.199   5.890  0.0720 -0.7245  0.2829
  313MOL    C5144355   0.033   6.431   6.221  1.0331  0.1856 -0.0306
  313MOL    C5244356   0.148   6.379   6.307  1.0991 -0.2527  0.6515
  313MOL    O5344357   0.001   6.559   6.266  0.6757  0.5389  0.3888
  313MOL    H5444358   7.862   6.365   6.238 -0.0932  1.6877  0.2412
  313MOL    H5544359   0.106   6.383   6.408 -0.4743 -0.2043  0.0012
  313MOL    H5644360   0.232   6.448   6.294  0.6350  0.0749 -0.6031
  313MOL    H5744361   0.180   6.278   6.281  1.6569  0.1999 -0.4257
  313MOL    C5844362   7.787   6.604   6.220  0.1297  0.1711 -0.2127
  313MOL    C5944363   7.681   6.587   6.334  0.1566 -0.4989 -0.0059
  313MOL    O6044364   7.807   6.734   6.175 -0.2019 -0.3310  0.2892
  313MOL    H6144365   7.759   6.549   6.130 -2.0414  0.1809  0.4349
  313MOL    H6244366   7.662   6.482   6.357  1.2435  0.2116  4.3998
  313MOL    H6344367   7.591   6.635   6.296  0.9767  2.0927  1.2228
  313MOL    H6444368   7.696   6.642   6.426  1.4279 -2.0870  0.7602
  313MOL    C6544369   7.872   6.752   6.052 -0.5153 -0.7633 -0.3853
  313MOL    C6644370   7.773   6.818   5.952 -0.0614 -0.2484  0.5222
  313MOL    O6744371   0.065   6.839   6.065 -0.4611  0.0212  0.2731
  313MOL    H6844372   7.903   6.658   6.007  1.8754  0.2396 -0.9433
  313MOL    H6944373   7.814   6.836   5.853  1.1109  1.8083  1.3560
  313MOL    H7044374   7.726   6.900   6.007 -0.9226 -1.3357  1.4324
  313MOL    H7144375   7.686   6.753   5.939  0.2590 -0.6829  0.5593
  313MOL    C7244376   0.177   6.789   6.132  0.0042 -0.0222  1.3074
  313MOL    C7344377   0.286   6.789   6.029  0.2967  0.4398 -0.1222
  313MOL    O7444378   0.218   6.874   6.232 -0.1059 -0.6403  0.1527
  313MOL    H7544379   0.158   6.685   6.158 -1.6828  0.1539  0.8686
  313MOL    H7644380   0.384   6.758   6.067  0.8149  0.7973 -1.1522
  313MOL    H7744381   0.306   6.892   5.999 -0.3276  0.2633 -1.1576
  313MOL    H7844382   0.273   6.723   5.943 -2.3126 -0.6810  1.0755
  313MOL    C7944383   0.163   6.859   6.355  0.2971 -0.4294 -0.2385
  313MOL    C8044384   0.268   6.793   6.443  0.2072  0.2037  0.6340
  313MOL    O8144385   0.128   6.979   6.421  0.2927  0.0776 -0.3899
  313MOL    H8244386   0.067   6.808   6.355 -0.9958  1.8883  1.4990
  313MOL    H8344387   0.362   6.847   6.441  1.0133 -1.2004 -1.6001
  313MOL    H8444388   0.281   6.693   6.400  0.6583  1.3423 -1.9548
  313MOL    H8544389   0.232   6.779   6.545 -0.2224 -1.5496  0.2715
  313MOL    C8644390   0.021   7.053   6.360  0.5134 -0.2485 -0.8453
  313MOL    C8744391   7.817   7.049   6.459  0.5580 -0.5084 -0.1935
  313MOL    O8844392   0.062   7.184   6.336  0.1149 -0.7307  0.0475
  313MOL    H8944393   7.907   7.009   6.264 -0.3784  0.7032 -1.0329
  313MOL    H9044394   7.851   7.035   6.561  3.7650  0.4158 -1.0830
  313MOL    H9144395   7.747   6.972   6.426  1.0290 -0.1598 -2.1066
  313MOL    H9244396   7.764   7.144   6.446 -1.7488 -1.7820 -0.5274
  313MOL    C9344397   0.150   7.194   6.231  0.2400 -0.1106 -0.6003
  313MOL    C9444398   0.079   7.289   6.130 -0.7654 -0.2515 -0.0362
  313MOL    O9544399   0.276   7.259   6.259  0.3866  0.0841  0.2884
  313MOL    H9644400   0.183   7.098   6.191  0.5720 -0.3861  0.3023
  313MOL    H9744401   0.008   7.224   6.079  1.1526 -1.7329 -0.8715
  313MOL    H9844402   0.152   7.328   6.058 -0.5724 -1.1367 -0.3172
  313MOL    H9944403   0.016   7.357   6.187 -1.9445  0.9170 -2.5993
  313MOL   C10044404   0.369   7.172   6.319 -0.2072  0.5233 -0.3178
  313MOL   C10144405   0.478   7.135   6.220  0.2673 -0.5604 -0.6929
  313MOL   O10244406   0.437   7.246   6.424  0.3188 -0.1792 -0.0057
  313MOL   H10344407   0.320   7.087   6.367 -0.1458  0.3639 -0.5397
  313MOL   H10444408   0.435   7.106   6.125 -4.3318 -0.6009  1.2550
  313MOL   H10544409   0.527   7.053   6.273  0.8011 -0.2477 -0.7005
  313MOL   H10644410   0.546   7.220   6.218  1.0740 -1.1347  0.9222
  313MOL   C10744411   0.342   7.287   6.524  0.1364 -0.5878  0.0334
  313MOL   C10844412   0.352   7.185   6.643  0.6836 -0.2188 -0.3392
  313MOL   O10944413   0.372   7.418   6.567 -0.0392 -0.0691  0.2783
  313MOL   H11044414   0.239   7.283   6.488  0.3975  1.2702 -1.0043
  313MOL   H11144415   0.453   7.174   6.683  1.1090  0.9302 -1.0661
  313MOL   H11244416   0.311   7.089   6.614  1.2185 -1.2747  2.2626
  313MOL   H11344417   0.285   7.217   6.723 -1.2403 -3.4260 -0.5972
  313MOL   C11444418   0.371   7.509   6.464  0.1725  0.1056 -0.1036
  313MOL   C11544419   0.233   7.568   6.464  0.4162  0.7107 -0.0695
  313MOL   O11644420   0.465   7.606   6.481  0.1959  0.1885 -0.2792
  313MOL   H11744421   0.392   7.474   6.363  1.1298 -0.5727  0.3261
  313MOL   H11844422   0.191   7.579   6.564  1.7404 -0.4849  0.6272
  313MOL   H11944423   0.169   7.498   6.409 -0.4194  1.2886  0.1622
  313MOL   H12044424   0.235   7.661   6.408  2.5168  0.5376 -0.2964
  313MOL   C12144425   0.596   7.565   6.480 -0.5091  0.7146 -0.1205
  313MOL   C12244426   0.668   7.576   6.339 -0.5043  0.1553  0.5195
  313MOL   O12344427   0.662   7.651   6.571 -0.1950  0.4419  0.3952
  313MOL   H12444428   0.605   7.465   6.522  1.1406  0.5432 -0.8507
  313MOL   H12544429   0.658   7.680   6.307  0.5094  0.0677 -0.0881
  313MOL   H12644430   0.616   7.508   6.272 -1.8764 -2.0311  3.6732
  313MOL   H12744431   0.774   7.551   6.340 -1.4028 -4.0611 -0.7647
  313MOL   C12844432   0.642   7.611   6.704  0.2350  0.5797  0.7578
  313MOL   C12944433   0.749   7.514   6.753 -0.4580 -0.1594  0.0834
  313MOL   O13044434   0.640   7.724   6.793 -0.4058 -0.4066  0.1429
  313MOL   H13144435   0.544   7.567   6.720  0.2563  0.2162 -0.1202
  313MOL   H13244436   0.753   7.425   6.690  0.1879  0.9036 -1.3947
  313MOL   H13344437   0.726   7.490   6.857  0.7683  0.8642  0.5964
  313MOL   H13444438   0.842   7.570   6.747 -1.3475  1.1305 -2.2106
  313MOL   C13544439   0.529   7.808   6.776  0.2401  0.3357 -0.1145
  313MOL   C13644440   0.538   7.912   6.887  0.6623 -0.0894  0.3011
  313MOL   O13744441   0.521   7.873   6.654  0.0549  0.7416  0.7475
  313MOL   H13844442   0.441   7.744   6.790 -0.4302  1.0985 -0.8062
  313MOL   H13944443   0.628   0.058   6.874  0.3055  0.5000  0.5064
  313MOL   H14044444   0.565   7.866   6.982  2.5142  2.1413  0.9039
  313MOL   H14144445   0.446   0.056   6.893  0.8442  0.0542  2.0805
  313MOL   H14244446   0.532   7.812   6.584 -0.8279  0.2218  1.0495
  314MOL     C144447   3.726   6.429   0.854 -0.0288  0.3710 -0.2661
  314MOL     C244448   3.639   6.542   0.905 -0.2584  0.8901  0.3168
  314MOL     O344449   3.847   6.478   0.795 -0.1426 -0.1541 -0.2242
  314MOL     H444450   3.667   6.372   0.783  1.9369  0.0299 -1.6625
  314MOL     H544451   3.612   6.599   0.816  1.4117 -0.4267 -1.0592
  314MOL     H644452   3.691   6.608   0.974 -0.8620  1.4222  0.2757
  314MOL     H744453   3.553   6.500   0.959 -2.0190  1.0143 -2.3165
  314MOL     H844454   3.749   6.373   0.945 -0.6104 -0.0523 -0.3781
  314MOL     C944455   3.943   6.396   0.752  0.1420 -0.0190 -0.1577
  314MOL    C1044456   3.930   6.387   0.602  0.6261  0.3744 -0.3162
  314MOL    O1144457   4.069   6.454   0.780  0.3644 -0.1422  0.5572
  314MOL    H1244458   3.931   6.299   0.800  0.1983  0.2053  0.3126
  314MOL    H1344459   3.946   6.483   0.554 -2.3009  1.1435  0.1177
  314MOL    H1444460   3.823   6.368   0.597  0.6403 -0.1586  1.0713
  314MOL    H1544461   3.978   6.298   0.561  1.2323  0.0196  1.1455
  314MOL    C1644462   4.105   6.458   0.912 -0.3513 -0.2670  0.1477
  314MOL    C1744463   4.178   6.329   0.949  0.8441  0.3667 -1.2158
  314MOL    O1844464   4.185   6.568   0.948 -0.1333  0.1051  0.5019
  314MOL    H1944465   4.017   6.467   0.975 -1.2204 -2.7525 -0.6519
  314MOL    H2044466   4.277   6.326   0.903  1.5840  0.2798  0.3534
  314MOL    H2144467   4.111   6.246   0.922  1.8013 -1.9447  3.0841
  314MOL    H2244468   4.193   6.317   1.056  1.3337  0.5145 -1.2707
  314MOL    C2344469   4.121   6.690   0.928 -0.1779 -0.4599 -0.1015
  314MOL    C2444470   4.108   6.757   1.062 -0.0357  0.0561  0.2320
  314MOL    O2544471   4.196   6.779   0.848 -0.1409 -0.3099 -0.3449
  314MOL    H2644472   4.024   6.667   0.885 -0.4522 -1.4767  1.0180
  314MOL    H2744473   4.035   6.837   1.056  0.7491  0.7745  0.2418
  314MOL    H2844474   4.210   6.791   1.077 -0.4474  0.7907  1.4510
  314MOL    H2944475   4.074   6.687   1.140 -1.4123  0.0298 -0.3737
  314MOL    C3044476   4.239   6.744   0.723  0.3505  0.2711 -0.0455
  314MOL    C3144477   4.149   6.813   0.621  0.4040  0.1642  0.5216
  314MOL    O3244478   4.370   6.783   0.704  0.9304  0.2353 -0.1437
  314MOL    H3344479   4.232   6.637   0.704  1.1193  0.2395 -0.1481
  314MOL    H3444480   4.046   6.805   0.657 -0.7656  1.5504 -2.3290
  314MOL    H3544481   4.163   6.775   0.520 -1.3192  0.1335  0.2740
  314MOL    H3644482   4.175   6.919   0.613  1.1463 -0.0391  0.1626
  314MOL    C3744483   4.466   6.730   0.802 -0.7678 -0.1290  0.3286
  314MOL    C3844484   4.566   6.652   0.721 -0.4651  0.4044 -0.0852
  314MOL    O3944485   4.542   6.828   0.869 -0.4273 -0.7225 -0.2605
  314MOL    H4044486   4.417   6.661   0.870  0.6184 -2.4520 -0.9809
  314MOL    H4144487   4.641   6.606   0.786  1.4153  2.0919 -1.0087
  314MOL    H4244488   4.611   6.732   0.662 -0.5666  2.3272  2.3452
  314MOL    H4344489   4.522   6.570   0.665 -0.7981  0.4759  0.0660
  314MOL    C4444490   4.475   6.912   0.955 -0.0336  0.2779  0.1942
  314MOL    C4544491   4.519   6.885   1.088 -0.2259 -0.3979 -0.4379
  314MOL    O4644492   4.503   7.049   0.935 -0.1246 -0.4393  0.5106
  314MOL    H4744493   4.368   6.898   0.946  0.0281  0.9132 -1.7077
  314MOL    H4844494   4.441   6.919   1.157 -1.8355 -0.4452 -2.1748
  314MOL    H4944495   4.617   6.926   1.112  0.1752 -2.2351  1.1502
  314MOL    H5044496   4.516   6.778   1.107  1.5818 -0.3237  0.3690
  314MOL    C5144497   4.468   7.091   0.806  0.1815 -0.2253 -0.2128
  314MOL    C5244498   4.350   7.189   0.818  0.8976 -0.4659  0.5103
  314MOL    O5344499   4.569   7.163   0.742 -0.0615  0.3297 -0.1741
  314MOL    H5444500   4.451   7.010   0.735  0.9260 -1.2479  0.7482
  314MOL    H5544501   4.373   7.280   0.873 -0.0491 -0.7023  1.3118
  314MOL    H5644502   4.264   7.145   0.869 -0.2600 -0.2793 -1.2301
  314MOL    H5744503   4.331   7.218   0.715 -0.8302 -1.5620  0.4983
  314MOL    C5844504   4.696   7.107   0.738 -0.5297 -0.6617  0.2861
  314MOL    C5944505   4.716   7.052   0.591  0.2029  0.3588 -0.5783
  314MOL    O6044506   4.798   7.209   0.749 -0.1727  0.2924 -0.5364
  314MOL    H6144507   4.707   7.026   0.809 -0.8848 -1.2978 -0.3725
  314MOL    H6244508   4.700   7.130   0.516  0.6528  0.5276 -0.5017
  314MOL    H6344509   4.635   6.981   0.576 -0.8624  1.6373 -0.9441
  314MOL    H6444510   4.811   7.000   0.575  0.1776  0.5425 -1.3850
  314MOL    C6544511   4.813   7.265   0.874  0.4485 -1.1730  0.4057
  314MOL    C6644512   4.960   7.237   0.902 -0.0630 -0.1963 -0.0276
  314MOL    O6744513   4.803   7.403   0.869 -0.5750 -0.1439  0.3486
  314MOL    H6844514   4.754   7.231   0.959  0.1760  0.6206  0.9391
  314MOL    H6944515   4.965   7.128   0.908  0.2619 -0.2316 -0.8615
  314MOL    H7044516   5.006   7.282   0.991  0.8359 -0.8133 -0.1666
  314MOL    H7144517   5.025   7.276   0.823 -1.4610  1.3688 -0.4172
  314MOL    C7244518   4.679   7.453   0.855 -0.4578  0.0488 -0.3072
  314MOL    C7344519   4.669   7.541   0.977 -0.1353  0.2017 -0.3226
  314MOL    O7444520   4.667   7.535   0.740  0.2328  0.3023 -0.0796
  314MOL    H7544521   4.607   7.372   0.843  0.0433 -0.6500  1.3235
  314MOL    H7644522   4.741   7.622   0.975  0.7638 -0.4997  1.7427
  314MOL    H7744523   4.683   7.498   1.076 -0.5088  0.2108 -0.2630
  314MOL    H7844524   4.578   7.600   0.990 -0.4904 -0.5360  0.6476
  314MOL    C7944525   4.664   7.474   0.611  0.1369 -0.4823  0.0021
  314MOL    C8044526   4.514   7.455   0.577  0.2707  0.3835 -0.0956
  314MOL    O8144527   4.718   7.550   0.512 -0.5366  0.2157 -0.0422
  314MOL    H8244528   4.713   7.377   0.617 -1.1832 -1.0766  1.7643
  314MOL    H8344529   4.472   7.555   0.587 -0.1373  0.3303 -1.2721
  314MOL    H8444530   4.465   7.402   0.659 -0.6806  4.0191  1.8097
  314MOL    H8544531   4.488   7.403   0.485 -2.1762  1.3371  0.0007
  314MOL    C8644532   4.859   7.567   0.526 -1.2021 -0.5328 -0.3817
  314MOL    C8744533   4.909   7.506   0.392  0.5107 -0.1531 -0.2228
  314MOL    O8844534   4.905   7.701   0.522  0.3914  0.7774 -0.1093
  314MOL    H8944535   4.903   7.506   0.605 -0.0374  0.6533 -0.0931
  314MOL    H9044536   4.884   7.400   0.392  1.7617 -0.4648 -1.1120
  314MOL    H9144537   5.018   7.500   0.389  0.5347  0.5075 -0.5605
  314MOL    H9244538   4.888   7.568   0.306 -3.1396  0.4517  1.0383
  314MOL    C9344539   4.883   7.768   0.647  0.2706  0.4119 -0.1610
  314MOL    C9444540   5.015   7.786   0.722  0.1199 -0.4764  0.5051
  314MOL    O9544541   4.829   7.890   0.623  0.0320 -0.3354 -0.0645
  314MOL    H9644542   4.816   7.722   0.720 -0.0006  1.1942  0.0894
  314MOL    H9744543   5.063   7.690   0.741  1.1735 -0.3808 -1.4665
  314MOL    H9844544   5.007   7.851   0.809  0.5250  0.4991 -0.1600
  314MOL    H9944545   5.094   7.836   0.665 -0.5283  0.1387  0.1351
  314MOL   C10044546   4.693   7.887   0.599 -0.5544 -0.5361 -0.3389
  314MOL   C10144547   4.621   7.913   0.732 -0.4585 -0.4846 -0.0653
  314MOL   O10244548   4.647   0.061   0.502  0.7151 -0.0967 -0.5606
  314MOL   H10344549   4.664   7.786   0.569 -0.4388 -0.9434  0.8930
  314MOL   H10444550   4.625   0.103   0.761 -1.3862 -0.1546 -1.0555
  314MOL   H10544551   4.663   7.851   0.811 -3.9205 -1.3829  1.1720
  314MOL   H10644552   4.517   7.879   0.729 -0.1971 -1.2216 -1.9546
  314MOL   C10744553   4.712   0.036   0.380  0.1937 -0.7239 -0.1671
  314MOL   C10844554   4.609   7.882   0.290  0.3002 -0.7046  0.1962
  314MOL   O10944555   4.749   0.158   0.315  0.1252 -0.1852 -0.0575
  314MOL   H11044556   4.801   7.888   0.392  0.4197 -0.8472 -2.2329
  314MOL   H11144557   4.518   0.025   0.268  0.6476 -0.4665 -0.6564
  314MOL   H11244558   4.590   7.785   0.337  2.5460 -0.3045  2.0210
  314MOL   H11344559   4.644   7.875   0.187  0.9288 -0.8361  0.4133
  314MOL   C11444560   4.860   0.227   0.372  0.2021  0.3406 -0.0074
  314MOL   C11544561   4.982   0.187   0.282  0.8101 -0.4387  0.0948
  314MOL   O11644562   4.852   0.365   0.363 -0.2428 -0.0593  0.4863
  314MOL   H11744563   4.879   0.190   0.473 -1.1589 -0.1450  0.0769
  314MOL   H11844564   5.000   0.079   0.281  0.8861 -0.4337 -1.9136
  314MOL   H11944565   5.077   0.232   0.310  2.8806 -2.4185 -3.3144
  314MOL   H12044566   4.969   0.218   0.178  4.1238  0.6616 -0.0493
  314MOL   C12144567   4.752   0.425   0.438 -0.6750  0.4317 -0.0405
  314MOL   C12244568   4.812   0.491   0.561 -0.3483 -0.2190 -0.5001
  314MOL   O12344569   4.670   0.524   0.368 -0.1463  0.1653 -0.4032
  314MOL   H12444570   4.686   0.351   0.482 -1.3071  0.7146 -0.5065
  314MOL   H12544571   4.867   0.425   0.629 -1.2122 -0.4903 -0.0567
  314MOL   H12644572   4.736   0.525   0.631 -1.4697  2.4612 -2.9336
  314MOL   H12744573   4.880   0.572   0.535 -0.2807  0.5786  1.9735
  314MOL   C12844574   4.599   0.477   0.259 -0.5247  0.0707 -0.0703
  314MOL   C12944575   4.456   0.516   0.276  0.2350 -1.3878 -0.4171
  314MOL   O13044576   4.639   0.528   0.137  0.1391 -0.1410  0.3584
  314MOL   H13144577   4.599   0.368   0.256 -1.2239  0.0628  0.0827
  314MOL   H13244578   4.427   0.495   0.379 -1.4222 -1.2113 -0.8224
  314MOL   H13344579   4.383   0.479   0.203 -0.1751 -1.3752 -0.0132
  314MOL   H13444580   4.463   0.624   0.271  0.6527 -1.4287 -0.7146
  314MOL   C13544581   4.749   0.467   0.079 -0.8957  0.5086  0.1577
  314MOL   C13644582   4.740   0.480   7.841 -0.3579 -0.2654 -0.4109
  314MOL   O13744583   4.873   0.524   0.119  0.4376 -0.5836 -0.0823
  314MOL   H13844584   4.747   0.361   0.107  0.6763  0.7636  1.2993
  314MOL   H13944585   4.645   0.445   7.802 -0.5673  1.8499 -1.9011
  314MOL   H14044586   4.821   0.421   7.798 -0.9952 -0.8788 -0.7705
  314MOL   H14144587   4.749   0.585   7.813 -0.8475  0.6742  2.7431
  314MOL   H14244588   4.886   0.504   0.210 -1.0438 -2.3041 -0.2060
  315MOL     C144589   6.991   3.307   0.780  0.1171  0.6430  0.4416
  315MOL     C244590   6.917   3.438   0.752 -0.4522 -0.0385  0.7497
  315MOL     O344591   6.888   3.211   0.801 -0.1397  0.3072 -0.0089
  315MOL     H444592   7.054   3.327   0.866  1.2927 -0.9414 -0.0176
  315MOL     H544593   6.844   3.468   0.827 -0.0968 -0.3607  1.2297
  315MOL     H644594   6.856   3.430   0.662  1.5448 -1.2744 -0.5220
  315MOL     H744595   6.993   3.515   0.743 -0.2323 -0.1579  1.5578
  315MOL     H844596   7.053   3.283   0.693  0.9631 -2.3980  1.8066
  315MOL     C944597   6.936   3.094   0.864  0.0892 -0.5947  0.4355
  315MOL    C1044598   6.909   3.112   1.017  0.2031 -0.1799  0.1896
  315MOL    O1144599   6.861   2.984   0.824  0.0453 -0.8124 -0.1652
  315MOL    H1244600   7.040   3.079   0.834  0.3692 -0.1386  1.1753
  315MOL    H1344601   6.802   3.109   1.035 -0.3663  3.0270 -2.1041
  315MOL    H1444602   6.947   3.212   1.037  0.1653  0.0784 -1.0076
  315MOL    H1544603   6.962   3.038   1.076 -1.8954 -1.0622  0.9974
  315MOL    C1644604   6.908   2.920   0.709 -0.3389 -0.2721  0.1745
  315MOL    C1744605   6.822   2.807   0.670 -0.4094  0.4474 -0.3438
  315MOL    O1844606   6.922   3.007   0.601  0.1211 -0.0804  0.1652
  315MOL    H1944607   7.010   2.893   0.734  0.0286 -1.9203 -2.8814
  315MOL    H2044608   6.785   2.763   0.762  1.4047  0.4066  0.3805
  315MOL    H2144609   6.892   2.737   0.625  1.5185  1.3764  1.1657
  315MOL    H2244610   6.737   2.829   0.605 -0.7982 -1.3802 -0.4635
  315MOL    C2344611   6.995   2.953   0.492 -0.4017  0.1164 -0.3774
  315MOL    C2444612   6.990   3.059   0.388  0.0654 -0.0950 -0.2744
  315MOL    O2544613   7.122   2.927   0.536 -0.0889  0.6235 -0.2215
  315MOL    H2644614   6.942   2.867   0.453 -0.1016  0.0777 -0.7080
  315MOL    H2744615   7.062   3.136   0.416  1.1287 -0.7076 -1.2930
  315MOL    H2844616   6.890   3.092   0.361 -0.9392 -0.5466  2.7222
  315MOL    H2944617   7.029   3.007   0.300  1.0949  1.1111 -0.5413
  315MOL    C3044618   7.179   2.834   0.447 -1.2428  0.5767 -0.6669
  315MOL    C3144619   7.333   2.864   0.445 -0.2665 -0.1440  0.1223
  315MOL    O3244620   7.166   2.708   0.502  0.5036  0.3647  0.5627
  315MOL    H3344621   7.132   2.839   0.349 -1.6671 -2.1256 -0.6182
  315MOL    H3444622   7.357   2.965   0.411  3.4072 -0.6404  1.0741
  315MOL    H3544623   7.382   2.792   0.378  0.6380 -1.1307  1.8165
  315MOL    H3644624   7.371   2.858   0.546  2.1708 -1.1495 -0.8166
  315MOL    C3744625   7.119   2.609   0.419 -0.6142 -0.3339  0.9029
  315MOL    C3844626   7.121   2.485   0.502  0.0765 -0.1450  0.5356
  315MOL    O3944627   6.995   2.636   0.371 -0.1803 -0.0034 -0.0389
  315MOL    H4044628   7.192   2.612   0.338 -2.9071  1.7269 -1.1496
  315MOL    H4144629   7.042   2.487   0.578  0.0459  2.4335  0.4648
  315MOL    H4244630   7.222   2.474   0.541  1.4239  1.4062 -2.3955
  315MOL    H4344631   7.106   2.398   0.437  0.9450 -1.4460  2.0391
  315MOL    C4444632   6.975   2.611   0.228  0.0909 -0.6106 -0.7976
  315MOL    C4544633   6.825   2.624   0.204  0.0813  0.4101 -0.2551
  315MOL    O4644634   7.039   2.706   0.147 -0.2118  0.2265  0.6280
  315MOL    H4744635   7.011   2.511   0.207  0.5027 -0.2502 -1.8158
  315MOL    H4844636   6.780   2.543   0.262 -1.5584  1.6609  0.2439
  315MOL    H4944637   6.808   2.609   0.098  1.0146 -1.0855 -0.2104
  315MOL    H5044638   6.783   2.720   0.235 -0.7950  1.4257 -4.3625
  315MOL    C5144639   7.127   2.653   0.054 -0.3259  0.3334 -0.2845
  315MOL    C5244640   7.158   2.767   7.877 -0.4074 -0.2618 -0.8972
  315MOL    O5344641   7.244   2.598   0.118  0.2898  0.3021 -0.0134
  315MOL    H5444642   7.069   2.576   0.003 -0.0785 -0.1807  0.1998
  315MOL    H5544643   7.073   2.785   7.810  1.0417  1.7783 -2.2552
  315MOL    H5644644   7.245   2.743   7.816  1.8880  0.9734  1.8085
  315MOL    H5744645   7.174   2.860   0.017  2.1936 -1.3103  0.1749
  315MOL    C5844646   7.277   2.473   0.079  0.3997 -0.1527 -0.4023
  315MOL    C5944647   7.425   2.452   0.111  0.2309 -0.2251 -0.0259
  315MOL    O6044648   7.202   2.383   0.161 -0.0716  0.0262  0.0173
  315MOL    H6144649   7.257   2.457   7.887  2.3012 -0.5593 -0.7046
  315MOL    H6244650   7.464   2.452   0.212  1.4747  1.6517 -0.4800
  315MOL    H6344651   7.475   2.537   0.065 -0.7192  0.6446  0.5179
  315MOL    H6444652   7.465   2.364   0.061  0.4408 -0.7056  0.9711
  315MOL    C6544653   7.150   2.272   0.089  0.1065  0.3688  0.1546
  315MOL    C6644654   7.101   2.163   0.191  0.3412 -0.7357 -0.7754
  315MOL    O6744655   7.033   2.310   0.025  0.3504  0.6326  0.1620
  315MOL    H6844656   7.229   2.239   0.021  1.4206  2.7354  0.4712
  315MOL    H6944657   6.994   2.181   0.206  0.9360  2.1652  0.3973
  315MOL    H7044658   7.151   2.167   0.288  0.2313  0.1845 -0.7462
  315MOL    H7144659   7.128   2.064   0.157  0.4901 -0.8671 -0.2791
  315MOL    C7244660   7.015   2.255   7.806  0.6538 -0.4504  0.0815
  315MOL    C7344661   6.864   2.237   7.781  0.2344  0.8592  0.3443
  315MOL    O7444662   7.056   2.358   7.722  0.0028  0.6078  0.2010
  315MOL    H7544663   7.062   2.157   7.801  0.9078 -0.2618 -1.4523
  315MOL    H7644664   6.847   2.202   7.679  0.6966  2.7017 -0.3902
  315MOL    H7744665   6.803   2.326   7.799 -1.3367 -0.1566  0.1289
  315MOL    H7844666   6.824   2.163   7.851 -1.4660 -2.7270 -4.1497
  315MOL    C7944667   7.152   2.311   7.631  0.4992  0.1442  0.1428
  315MOL    C8044668   7.177   2.427   7.533 -0.4654  0.2771  0.1734
  315MOL    O8144669   7.271   2.276   7.703 -0.1038 -0.0105  1.2291
  315MOL    H8244670   7.110   2.225   7.577  1.9859 -1.2528  1.1878
  315MOL    H8344671   7.090   2.452   7.473  0.4717  0.4391 -1.1357
  315MOL    H8444672   7.265   2.412   7.470 -1.1404  2.3433 -1.3194
  315MOL    H8544673   7.199   2.513   7.597 -1.9397 -1.6700  3.3866
  315MOL    C8644674   7.319   2.146   7.682 -0.1475  0.0651  0.7563
  315MOL    C8744675   7.470   2.155   7.704 -0.3168 -0.3439 -0.0179
  315MOL    O8844676   7.266   2.055   7.768 -0.5651  0.4677  0.0268
  315MOL    H8944677   7.299   2.119   7.578 -2.0571  1.1353  0.8184
  315MOL    H9044678   7.526   2.065   7.676  2.5652  1.6958 -1.0443
  315MOL    H9144679   7.495   2.167   7.809  1.2068  1.5456 -0.5787
  315MOL    H9244680   7.512   2.242   7.654  0.4603 -0.7697 -0.1253
  315MOL    C9344681   7.200   1.944   7.711 -0.4517  0.0077  0.8342
  315MOL    C9444682   7.156   1.848   7.816 -0.9824 -0.1002  0.4895
  315MOL    O9544683   7.081   1.987   7.640  0.0736 -0.4303 -0.4823
  315MOL    H9644684   7.281   1.902   7.651 -0.2845  0.1503  0.9623
  315MOL    H9744685   7.238   1.794   7.863 -0.0528 -0.1211 -1.1362
  315MOL    H9844686   7.108   1.768   7.760  1.7213 -1.2333 -0.3061
  315MOL    H9944687   7.088   1.898   7.886 -0.0722  0.4568  1.0005
  315MOL   C10044688   7.075   1.940   7.503  0.4445  0.5935 -1.1542
  315MOL   C10144689   6.927   1.945   7.455  0.2660  0.1179  0.4337
  315MOL   O10244690   7.141   2.033   7.430  0.4911 -0.3125  0.3340
  315MOL   H10344691   7.108   1.837   7.496  1.8231  0.9950 -0.7123
  315MOL   H10444692   6.916   1.929   7.348 -0.1913  0.4849  0.4250
  315MOL   H10544693   6.868   2.026   7.499  2.7865  1.0537  2.2003
  315MOL   H10644694   6.875   1.861   7.501 -1.0290  0.1491 -0.9274
  315MOL   C10744695   7.218   1.977   7.332 -0.3933 -0.3164 -1.0089
  315MOL   C10844696   7.244   2.085   7.234 -0.8094  0.5895  0.4401
  315MOL   O10944697   7.342   1.930   7.368  0.5372 -0.6117  0.0169
  315MOL   H11044698   7.161   1.900   7.279 -0.1624 -1.1505 -0.0618
  315MOL   H11144699   7.297   2.159   7.295 -2.9627  0.3015  2.7633
  315MOL   H11244700   7.147   2.121   7.201 -1.1658 -0.2540  0.5627
  315MOL   H11344701   7.305   2.065   7.146 -1.1025 -0.7760  0.5419
  315MOL   C11444702   7.368   1.797   7.323  0.1863 -0.0564 -0.4765
  315MOL   C11544703   7.518   1.787   7.338  0.7568  0.0747 -1.4477
  315MOL   O11644704   7.310   1.711   7.405 -0.5413  0.2322 -0.1904
  315MOL   H11744705   7.341   1.790   7.218 -1.3614  0.9445 -0.1720
  315MOL   H11844706   7.557   1.848   7.256  0.5886  1.2223 -0.6785
  315MOL   H11944707   7.545   1.684   7.313 -0.5469 -0.4115 -0.8683
  315MOL   H12044708   7.544   1.811   7.441 -2.3256 -1.2330 -0.3276
  315MOL   C12144709   7.242   1.603   7.342 -0.3505  0.2982 -0.2176
  315MOL   C12244710   7.222   1.498   7.446  0.0535  0.1337  0.7582
  315MOL   O12344711   7.122   1.643   7.286 -0.2310  0.1282 -0.1395
  315MOL   H12444712   7.300   1.561   7.260 -0.4948 -1.2447  0.4635
  315MOL   H12544713   7.152   1.420   7.416  0.7214 -0.7186  1.3861
  315MOL   H12644714   7.175   1.535   7.537  2.7930  0.8349  1.9367
  315MOL   H12744715   7.312   1.447   7.479 -1.1772 -1.8278  1.1892
  315MOL   C12844716   7.088   1.597   7.156  0.3452  0.3865  0.2924
  315MOL   C12944717   6.939   1.608   7.137  0.6005  0.4341  0.5137
  315MOL   O13044718   7.142   1.678   7.062 -0.2061 -0.4048  0.3876
  315MOL   H13144719   7.123   1.495   7.140 -0.8617 -0.0746  0.5906
  315MOL   H13244720   6.914   1.605   7.031  1.9480 -1.0253  0.2263
  315MOL   H13344721   6.894   1.692   7.190 -1.1479  0.4873 -1.0086
  315MOL   H13444722   6.883   1.523   7.176 -0.4675  0.2183 -1.4316
  315MOL   C13544723   7.176   1.615   6.944 -0.7697  0.5908  0.2927
  315MOL   C13644724   7.197   1.727   6.846 -0.7052  0.1317 -0.0584
  315MOL   O13744725   7.296   1.543   6.962  0.0885 -0.4005 -0.4130
  315MOL   H13844726   7.106   1.539   6.911 -0.4996  0.3986  0.1615
  315MOL   H13944727   7.196   1.696   6.741  0.6661  3.9655 -1.2943
  315MOL   H14044728   7.290   1.778   6.870 -0.7360  0.5236 -0.7440
  315MOL   H14144729   7.116   1.799   6.849  0.1238  1.3475 -3.8587
  315MOL   H14244730   7.300   1.474   6.898  0.5457 -0.0995 -0.7074
  316MOL     C144731   7.667   5.709   4.524  0.1438  0.7588  0.1788
  316MOL     C244732   7.560   5.823   4.524 -0.2831 -0.1662  0.3546
  316MOL     O344733   7.719   5.698   4.395 -0.9792  0.1679  0.5879
  316MOL     H444734   7.612   5.621   4.556 -0.3627  1.1434  0.3901
  316MOL     H544735   7.605   5.920   4.502  0.1722 -0.1356  1.3998
  316MOL     H644736   7.503   5.821   4.617 -0.1561 -0.7626  0.4247
  316MOL     H744737   7.478   5.804   4.455 -1.0710 -0.2918  1.3056
  316MOL     H844738   7.744   5.724   4.599  2.1270  0.4019 -1.7450
  316MOL     C944739   7.820   5.602   4.384  0.4153 -1.1637 -0.0040
  316MOL    C1044740   7.747   5.471   4.373  0.1545  0.2149 -0.2822
  316MOL    O1144741   7.878   5.624   4.260  0.0401 -0.1396 -0.6749
  316MOL    H1244742   7.890   5.610   4.467  0.4357 -0.6645 -0.0696
  316MOL    H1344743   7.823   5.393   4.366 -0.7238 -0.9513  2.4201
  316MOL    H1444744   7.694   5.462   4.279 -0.7689  2.2947  0.0082
  316MOL    H1544745   7.680   5.449   4.456 -2.3269  1.8569 -1.7745
  316MOL    C1644746   0.041   5.743   4.252  0.2457 -0.0156 -0.8666
  316MOL    C1744747   0.178   5.703   4.287 -0.4184  1.0527 -0.0360
  316MOL    O1844748   0.044   5.779   4.115  0.4765 -0.8879  0.1098
  316MOL    H1944749   0.003   5.827   4.311  1.2530  0.1293 -0.4259
  316MOL    H2044750   0.189   5.679   4.393 -2.9330 -0.6295 -0.1158
  316MOL    H2144751   0.248   5.787   4.285  1.0153 -0.1224  0.0353
  316MOL    H2244752   0.217   5.621   4.227  1.5216  2.0730 -0.2343
  316MOL    C2344753   7.842   5.840   4.075  0.2572 -0.2525  0.9136
  316MOL    C2444754   7.891   5.980   4.021  0.5970  0.6022 -0.2720
  316MOL    O2544755   7.778   5.778   3.968  0.9482 -0.1303  0.3913
  316MOL    H2644756   7.771   5.842   4.158 -0.2508  2.5852  0.4605
  316MOL    H2744757   0.039   5.961   3.933 -1.7383 -1.5766 -1.4821
  316MOL    H2844758   0.034   6.037   4.095  1.0377  0.4101 -0.4623
  316MOL    H2944759   7.809   6.048   3.997 -2.3462 -1.5791  3.1820
  316MOL    C3044760   7.748   5.645   3.988  0.1585  1.0746 -0.1056
  316MOL    C3144761   7.612   5.651   4.060  0.3320  0.7783  0.2682
  316MOL    O3244762   7.737   5.586   3.860 -0.2166  0.5399  0.0776
  316MOL    H3344763   7.822   5.587   4.043 -0.0177 -0.1778 -1.1802
  316MOL    H3444764   7.569   5.552   4.055 -1.5557  1.5060  1.7100
  316MOL    H3544765   7.543   5.714   4.004  3.2622  2.1261 -2.0114
  316MOL    H3644766   7.621   5.687   4.162  1.8782 -0.6028  0.6294
  316MOL    C3744767   7.852   5.582   3.789 -0.0897  0.9525  0.4474
  316MOL    C3844768   7.905   5.437   3.809  0.2520  0.1069  0.8404
  316MOL    O3944769   7.840   5.602   3.647  0.0772  0.3857  0.0856
  316MOL    H4044770   0.012   5.657   3.817  0.5989  0.7379 -0.7642
  316MOL    H4144771   0.084   5.410   3.759  0.0900 -0.8629  1.0486
  316MOL    H4244772   7.820   5.377   3.775 -1.1365  2.3530  0.2244
  316MOL    H4344773   0.006   5.426   3.917  0.3789  1.7586  0.9974
  316MOL    C4444774   7.780   5.717   3.612 -0.1060 -0.1558 -1.5800
  316MOL    C4544775   7.885   5.828   3.584 -0.1405 -0.2815 -0.1553
  316MOL    O4644776   7.704   5.693   3.498  0.4170 -0.1999 -0.4279
  316MOL    H4744777   7.715   5.758   3.689  1.9868  0.7397 -0.2528
  316MOL    H4844778   7.828   5.913   3.547 -0.4517 -0.4085  0.0301
  316MOL    H4944779   0.041   5.796   3.507  0.9745  0.2670  0.6280
  316MOL    H5044780   0.023   5.855   3.676 -2.1904  0.7195  0.7501
  316MOL    C5144781   7.617   5.577   3.506  0.3836 -0.1239  0.9492
  316MOL    C5244782   7.465   5.609   3.505 -0.3647 -0.2625 -0.1956
  316MOL    O5344783   7.636   5.491   3.394 -0.7499 -0.2609 -0.2886
  316MOL    H5444784   7.631   5.516   3.595  0.6352  0.0631  1.0378
  316MOL    H5544785   7.442   5.670   3.593 -2.0955  0.6925 -1.2856
  316MOL    H5644786   7.399   5.523   3.492 -1.5756  0.1276  2.9314
  316MOL    H5744787   7.452   5.676   3.421 -0.3876  0.2031  0.1774
  316MOL    C5844788   7.771   5.449   3.377  0.3469 -0.2531 -0.3786
  316MOL    C5944789   7.773   5.309   3.436 -0.6233 -0.1718 -0.1965
  316MOL    O6044790   7.802   5.435   3.242  0.3305  0.3766  0.1384
  316MOL    H6144791   7.845   5.506   3.434 -0.6562  1.5977 -0.9136
  316MOL    H6244792   7.757   5.304   3.544  1.0314 -0.0930  0.0721
  316MOL    H6344793   7.870   5.262   3.421 -1.1709 -1.0360 -1.0983
  316MOL    H6444794   7.705   5.240   3.386  1.4593 -1.7651 -0.8813
  316MOL    C6544795   7.810   5.556   3.176  0.7824  0.5141 -0.1303
  316MOL    C6644796   0.047   5.585   3.155  0.0768 -0.1750 -0.4542
  316MOL    O6744797   7.755   5.545   3.042 -0.5528  0.8840 -0.1459
  316MOL    H6844798   7.763   5.635   3.234  0.8796 -0.2227  0.9683
  316MOL    H6944799   0.089   5.499   3.103  1.5272  1.0852 -1.4216
  316MOL    H7044800   0.099   5.603   3.249 -0.6380  1.3105 -0.3229
  316MOL    H7144801   0.051   5.674   3.092 -2.1609  1.6401  1.8484
  316MOL    C7244802   7.628   5.488   3.040 -0.0651  0.3713 -0.5507
  316MOL    C7344803   7.523   5.601   3.013  0.0113  0.2279  0.4900
  316MOL    O7444804   7.637   5.401   2.932  0.1954 -0.3366 -0.4440
  316MOL    H7544805   7.596   5.444   3.135  0.4425  1.7834  0.2858
  316MOL    H7644806   7.554   5.664   2.930  0.0860 -0.1973  0.1914
  316MOL    H7744807   7.521   5.660   3.104 -0.6406  0.5611  0.2626
  316MOL    H7844808   7.429   5.554   2.984  0.8835 -0.2437 -1.7200
  316MOL    C7944809   7.733   5.295   2.939 -0.1476  0.7028 -0.1107
  316MOL    C8044810   7.654   5.171   2.996 -0.5863 -0.5004  0.1124
  316MOL    O8144811   7.777   5.246   2.822  0.6666 -0.0176  0.0605
  316MOL    H8244812   7.824   5.311   2.998  0.1614  1.8060 -0.8740
  316MOL    H8344813   7.620   5.175   3.100 -3.3123 -0.2166 -0.7387
  316MOL    H8444814   7.713   5.082   2.978  1.6325  1.0458 -0.4205
  316MOL    H8544815   7.559   5.157   2.944 -1.6346 -1.1826  2.1360
  316MOL    C8644816   7.849   5.341   2.745  0.2541  0.1402 -0.0323
  316MOL    C8744817   0.082   5.295   2.766  0.0193  0.5474  0.5391
  316MOL    O8844818   7.818   5.340   2.607 -0.4442  0.2983 -0.7807
  316MOL    H8944819   7.842   5.444   2.780 -0.8180 -0.6474  2.1666
  316MOL    H9044820   0.155   5.365   2.727  1.8243 -1.2832  0.5283
  316MOL    H9144821   0.101   5.202   2.712 -0.8276  1.4507 -1.3624
  316MOL    H9244822   0.098   5.276   2.873 -0.1219  0.9656  0.6372
  316MOL    C9344823   7.701   5.412   2.573 -0.2609  0.0647  0.0417
  316MOL    C9444824   7.743   5.523   2.471 -0.4664  0.5744  0.0158
  316MOL    O9544825   7.616   5.334   2.505  0.4216  0.5799 -0.3861
  316MOL    H9644826   7.662   5.455   2.665  0.0497 -0.9290  0.6493
  316MOL    H9744827   7.821   5.587   2.512 -1.9355  2.1355  0.4137
  316MOL    H9844828   7.670   5.587   2.421  0.0232  0.1211 -1.3021
  316MOL    H9944829   7.784   5.473   2.383  2.9459  2.1142  0.6591
  316MOL   C10044830   7.525   5.262   2.587  0.2935 -0.1754 -0.2478
  316MOL   C10144831   7.403   5.359   2.622 -0.5807  0.1148 -0.7987
  316MOL   O10244832   7.474   5.150   2.519  0.0869 -0.4109  0.1652
  316MOL   H10344833   7.573   5.222   2.676  2.6759  0.0903 -1.3799
  316MOL   H10444834   7.318   5.306   2.665 -0.1023  0.7380  0.9482
  316MOL   H10544835   7.355   5.397   2.532  1.9805  0.1652 -2.2116
  316MOL   H10644836   7.435   5.445   2.680  2.1116 -0.6368 -1.0853
  316MOL   C10744837   7.567   5.045   2.487 -1.3044  0.3603 -0.3685
  316MOL   C10844838   7.516   4.929   2.578  0.7211  0.0454  0.1789
  316MOL   O10944839   7.557   5.005   2.356  0.4584  0.1440  0.2759
  316MOL   H11044840   7.673   5.063   2.509 -1.9635  1.4848  2.1878
  316MOL   H11144841   7.529   4.962   2.681  0.7015  2.0559 -0.4528
  316MOL   H11244842   7.562   4.835   2.547  2.0277  1.8144 -3.4390
  316MOL   H11344843   7.409   4.911   2.569  0.4546  0.5466  2.0845
  316MOL   C11444844   7.612   5.087   2.258 -0.1770  0.2700 -0.2688
  316MOL   C11544845   7.749   5.030   2.213 -0.1745  0.0445 -0.4578
  316MOL   O11644846   7.532   5.084   2.151  0.1914 -0.2571 -0.1764
  316MOL   H11744847   7.612   5.188   2.300  1.5432 -0.1052  0.6976
  316MOL   H11844848   7.728   4.930   2.177 -1.1119 -0.4237  1.3220
  316MOL   H11944849   7.820   5.027   2.296 -0.1299 -1.8381 -0.5489
  316MOL   H12044850   7.786   5.098   2.136  1.1550  2.3555  2.0963
  316MOL   C12144851   7.416   5.152   2.163 -0.2636  0.3791 -0.2307
  316MOL   C12244852   7.448   5.285   2.100  1.2132  0.1539 -0.1570
  316MOL   O12344853   7.314   5.090   2.097 -0.0755  0.5692 -0.1560
  316MOL   H12444854   7.388   5.174   2.266 -1.0940  1.9153 -0.7706
  316MOL   H12544855   7.525   5.329   2.163  0.4218 -1.3248  1.9059
  316MOL   H12644856   7.360   5.350   2.094  0.8028 -0.4837 -1.1550
  316MOL   H12744857   7.469   5.268   1.995  1.2318  2.8486 -0.6278
  316MOL   C12844858   7.249   4.996   2.188  0.5871 -0.7429 -0.0940
  316MOL   C12944859   7.096   5.030   2.201 -0.2890 -0.4217  0.9673
  316MOL   O13044860   7.251   4.864   2.141 -0.6115 -0.0484 -0.0340
  316MOL   H13144861   7.283   5.001   2.291  0.8512 -1.1499 -0.1617
  316MOL   H13244862   7.049   4.950   2.258  1.6082 -0.9670  1.7928
  316MOL   H13344863   7.046   5.018   2.105  2.7243 -0.0662 -0.7008
  316MOL   H13444864   7.077   5.129   2.244  2.1191  1.4692 -2.0341
  316MOL   C13544865   7.373   4.798   2.156  0.1845  0.4324 -0.8466
  316MOL   C13644866   7.351   4.649   2.144  0.0832 -0.4788 -0.0723
  316MOL   O13744867   7.473   4.837   2.067  0.6961  0.1349 -0.2437
  316MOL   H13844868   7.408   4.828   2.254 -0.8253  0.2291 -0.4213
  316MOL   H13944869   7.260   4.622   2.199  1.3918 -1.4087  1.6867
  316MOL   H14044870   7.431   4.584   2.180 -1.1873 -1.9695  0.1514
  316MOL   H14144871   7.328   4.634   2.039  0.4871  0.2618 -0.2643
  316MOL   H14244872   7.477   4.931   2.065  1.0451  0.1218 -0.2105
  317MOL     C144873   3.781   6.643   2.232  0.1163 -0.4993  1.0081
  317MOL     C244874   3.850   6.590   2.362  0.0815  0.7241  0.1578
  317MOL     O344875   3.687   6.542   2.194  0.0267 -0.3981  0.3102
  317MOL     H444876   3.870   6.657   2.170  1.1897 -4.6211  1.4540
  317MOL     H544877   3.780   6.557   2.439 -1.9451 -0.6963 -2.2103
  317MOL     H644878   3.914   6.666   2.407  0.5348  0.7621 -0.5533
  317MOL     H744879   3.917   6.509   2.335  0.4202  0.9821  0.2203
  317MOL     H844880   3.733   6.737   2.258 -0.3357 -0.3166 -0.4213
  317MOL     C944881   3.625   6.566   2.070 -0.0672  0.6087  0.3254
  317MOL    C1044882   3.695   6.478   1.964  0.5395  0.5896  0.0291
  317MOL    O1144883   3.491   6.534   2.077 -0.0299 -0.3516  0.0414
  317MOL    H1244884   3.651   6.663   2.027 -4.0021  2.0479  0.9439
  317MOL    H1344885   3.686   6.374   1.996 -0.3578  0.8684  0.7197
  317MOL    H1444886   3.799   6.506   1.956  0.8875 -0.1069  1.7269
  317MOL    H1544887   3.664   6.479   1.860  0.3136 -0.7647  0.0718
  317MOL    C1644888   3.425   6.625   2.158  0.4387 -0.4207  0.2545
  317MOL    C1744889   3.353   6.728   2.067 -0.2563  0.1491  0.0072
  317MOL    O1844890   3.330   6.564   2.238 -0.2677  0.0342 -0.1750
  317MOL    H1944891   3.493   6.684   2.219  0.6355  0.3068 -0.6526
  317MOL    H2044892   3.281   6.673   2.007 -0.3695 -0.3360  0.5796
  317MOL    H2144893   3.433   6.776   2.010 -0.4625 -1.5990 -1.7924
  317MOL    H2244894   3.309   6.803   2.134  0.7140  0.2155  0.5903
  317MOL    C2344895   3.385   6.473   2.330  0.2134 -0.0559  0.4716
  317MOL    C2444896   3.391   6.543   2.474 -0.2037 -0.0605 -0.0308
  317MOL    O2544897   3.306   6.368   2.341  0.7498  0.1080 -0.4827
  317MOL    H2644898   3.486   6.448   2.297  0.5660  1.0395  0.7000
  317MOL    H2744899   3.439   6.641   2.464 -0.7287  0.1546 -0.4515
  317MOL    H2844900   3.432   6.470   2.544  2.4701 -0.0858 -1.5429
  317MOL    H2944901   3.293   6.556   2.518  0.9780  4.3424  1.6124
  317MOL    C3044902   3.310   6.279   2.243 -0.2960 -0.4182 -0.3654
  317MOL    C3144903   3.406   6.167   2.275 -0.1743  0.1368  0.5796
  317MOL    O3244904   3.184   6.216   2.227 -0.2583  0.0935 -0.9134
  317MOL    H3344905   3.340   6.324   2.148  1.1900 -0.0612  0.2587
  317MOL    H3444906   3.503   6.216   2.277  0.6033 -1.0568 -3.5251
  317MOL    H3544907   3.402   6.083   2.206 -1.1667  1.2317 -0.7268
  317MOL    H3644908   3.378   6.129   2.373  0.0529  1.6646  1.2448
  317MOL    C3744909   3.089   6.313   2.174 -0.4529 -0.0344 -0.0420
  317MOL    C3844910   3.107   6.325   2.021 -0.6654 -0.1764 -0.5295
  317MOL    O3944911   2.958   6.262   2.183 -0.5974 -0.0017 -0.2557
  317MOL    H4044912   3.085   6.415   2.211 -0.6822  0.3114 -0.9904
  317MOL    H4144913   3.011   6.361   1.983 -0.5638  1.4958  0.7302
  317MOL    H4244914   3.123   6.227   1.975  0.9766 -0.2992  0.2556
  317MOL    H4344915   3.191   6.387   1.990 -1.0640  0.6992  0.1225
  317MOL    C4444916   2.918   6.219   2.313 -0.3584 -0.9347 -0.0567
  317MOL    C4544917   2.809   6.309   2.366 -0.1169  0.1851 -0.0464
  317MOL    O4644918   2.855   6.093   2.303  0.6728  0.2967 -0.5160
  317MOL    H4744919   2.994   6.208   2.390  0.3268  2.8095 -0.1407
  317MOL    H4844920   2.722   6.305   2.300 -0.6354  0.5926  0.5981
  317MOL    H4944921   2.844   6.412   2.363  1.5281 -0.3768 -0.3253
  317MOL    H5044922   2.787   6.274   2.468  1.8876  2.2460  1.1292
  317MOL    C5144923   2.947   5.989   2.287  0.5986  0.2124  0.4570
  317MOL    C5244924   2.938   5.905   2.406 -0.3674  0.3077 -0.2021
  317MOL    O5344925   2.915   5.912   2.171 -0.0275  0.2366 -0.1472
  317MOL    H5444926   3.052   6.017   2.277  0.2427  0.9871 -1.5386
  317MOL    H5544927   2.992   5.811   2.396  2.1394  1.7193 -0.3764
  317MOL    H5644928   2.833   5.879   2.423 -0.2852  0.5525  0.7013
  317MOL    H5744929   2.976   5.982   2.474 -2.1598  1.7807 -0.8403
  317MOL    C5844930   2.943   5.964   2.047 -0.6609 -0.4715  0.0302
  317MOL    C5944931   3.035   5.858   1.980  0.8862 -0.0828 -0.2459
  317MOL    O6044932   2.830   5.980   1.964  0.1265 -0.2639  0.0898
  317MOL    H6144933   2.990   6.062   2.049  1.6889 -1.5296  4.3407
  317MOL    H6244934   3.123   5.845   2.043  0.0958 -2.9642  0.3266
  317MOL    H6344935   3.061   5.903   1.884  0.9456 -1.1272 -0.7290
  317MOL    H6444936   2.974   5.768   1.970  1.2095 -0.2898 -0.3669
  317MOL    C6544937   2.750   6.091   1.996 -0.1336  0.3427 -0.0177
  317MOL    C6644938   2.776   6.209   1.901 -0.1529 -0.0734  0.9395
  317MOL    O6744939   2.618   6.053   1.979 -0.2461  0.9068  0.1399
  317MOL    H6844940   2.754   6.125   2.100 -0.2539  3.3042 -0.9393
  317MOL    H6944941   2.716   6.188   1.812 -0.9765  0.8794  1.2668
  317MOL    H7044942   2.880   6.200   1.871 -0.1376 -1.0687  1.2473
  317MOL    H7144943   2.738   6.303   1.938 -0.3043 -0.1726  1.0363
  317MOL    C7244944   2.577   5.963   2.080 -0.2696  0.0099 -0.6869
  317MOL    C7344945   2.489   6.050   2.181 -0.5274  0.0996 -1.0733
  317MOL    O7444946   2.498   5.864   2.033 -0.4468 -0.0805 -0.2219
  317MOL    H7544947   2.652   5.922   2.148 -1.7691 -2.2344 -0.3371
  317MOL    H7644948   2.434   5.978   2.241  0.2510 -1.0116 -1.6821
  317MOL    H7744949   2.423   6.108   2.116 -2.0798 -0.2326  0.1903
  317MOL    H7844950   2.547   6.107   2.254 -2.2558  0.5397 -0.0228
  317MOL    C7944951   2.568   5.776   1.961 -0.4518  1.0192 -0.6804
  317MOL    C8044952   2.578   5.648   2.033 -0.7179  0.0854  0.4608
  317MOL    O8144953   2.509   5.751   1.836  0.0962 -0.0789  0.4752
  317MOL    H8244954   2.668   5.815   1.941 -0.3269  1.3755  0.5530
  317MOL    H8344955   2.483   5.624   2.080 -1.6982 -0.6758 -1.8048
  317MOL    H8444956   2.648   5.649   2.116  0.2185 -2.7692 -0.2263
  317MOL    H8544957   2.610   5.565   1.969  0.1797 -0.2210  1.2968
  317MOL    C8644958   2.500   5.859   1.748  0.5234  0.0831 -0.2488
  317MOL    C8744959   2.592   5.822   1.629  0.7190  0.7456  0.3523
  317MOL    O8844960   2.366   5.857   1.702  0.9185  0.4733 -0.5633
  317MOL    H8944961   2.536   5.958   1.776  0.0150  1.1584 -3.2224
  317MOL    H9044962   2.580   5.899   1.552  0.7779 -0.6492 -1.0804
  317MOL    H9144963   2.560   5.725   1.591 -2.7458  1.4736  1.2480
  317MOL    H9244964   2.692   5.830   1.671  0.2601  1.4443  1.3223
  317MOL    C9344965   2.283   5.933   1.790 -0.5294 -0.3039 -0.0280
  317MOL    C9444966   2.244   6.054   1.706 -0.0204  0.8691 -0.6271
  317MOL    O9544967   2.162   5.861   1.811 -0.3031  0.1780  0.0835
  317MOL    H9644968   2.325   5.965   1.885 -0.8800 -0.3070  0.1278
  317MOL    H9744969   2.169   6.117   1.754 -0.0099  0.5861 -0.2405
  317MOL    H9844970   2.190   6.027   1.616  0.5627 -2.2807 -0.0681
  317MOL    H9944971   2.334   6.106   1.674 -0.4500  1.0678 -1.5273
  317MOL   C10044972   2.178   5.766   1.905  0.1690 -0.2808  0.6291
  317MOL   C10144973   2.094   5.804   2.022 -0.2749  0.0816  0.1377
  317MOL   O10244974   2.119   5.646   1.854 -0.5428 -0.2527 -0.4385
  317MOL   H10344975   2.279   5.740   1.939 -0.4830 -0.5349  2.4441
  317MOL   H10444976   2.143   5.894   2.060 -1.2706  0.1417  1.2939
  317MOL   H10544977   2.103   5.732   2.104  0.3657 -0.3108 -0.2710
  317MOL   H10644978   1.990   5.822   1.997  0.0947  0.7580 -0.9492
  317MOL   C10744979   2.221   5.562   1.800 -0.5381  0.3442 -0.0715
  317MOL   C10844980   2.264   5.463   1.908 -0.8177  0.6260 -0.7059
  317MOL   O10944981   2.181   5.488   1.689  0.0870  0.0820 -0.3089
  317MOL   H11044982   2.310   5.620   1.773 -0.1181  1.0531  2.6704
  317MOL   H11144983   2.274   5.499   2.010  1.0685  3.3675 -1.7686
  317MOL   H11244984   2.364   5.424   1.889  0.2768  2.0805  1.8079
  317MOL   H11344985   2.195   5.380   1.920  1.5858 -1.2036  0.7352
  317MOL   C11444986   2.198   5.560   1.561 -0.3237 -0.0369  0.4998
  317MOL   C11544987   2.305   5.485   1.479  0.5898  0.1033 -0.4413
  317MOL   O11644988   2.073   5.580   1.491 -0.1496  0.0757 -0.0856
  317MOL   H11744989   2.241   5.659   1.571 -3.7795  1.4781  0.9790
  317MOL   H11844990   2.332   5.548   1.395 -0.9740  0.9315 -0.3389
  317MOL   H11944991   2.263   5.388   1.451 -0.6100  1.0776 -2.0509
  317MOL   H12044992   2.381   5.474   1.556 -1.3013  1.2467  1.6390
  317MOL   C12144993   2.002   5.682   1.548 -0.1948  0.5163  0.5236
  317MOL   C12244994   2.015   5.809   1.459 -0.4166  0.5449  0.1588
  317MOL   O12344995   1.864   5.648   1.555 -0.2908 -0.0871  0.2728
  317MOL   H12444996   2.035   5.718   1.645  1.3214  0.5798 -0.0005
  317MOL   H12544997   2.005   5.779   1.354 -0.8871  1.6006 -0.1082
  317MOL   H12644998   2.120   5.839   1.464 -0.4969  0.9526 -0.4931
  317MOL   H12744999   1.954   5.894   1.490 -0.6858  0.3695  0.1106
  317MOL   C12845000   1.837   5.564   1.661  0.0651 -1.1208  0.0649
  317MOL   C12945001   1.769   5.655   1.766 -0.1111  0.2019 -0.1292
  317MOL   O13045002   1.746   5.463   1.619 -0.1507  0.2022 -0.3326
  317MOL   H13145003   1.934   5.535   1.702  1.7564  0.0146 -2.9136
  317MOL   H13245004   1.715   5.596   1.840 -0.3910 -0.3258 -0.7511
  317MOL   H13345005   1.703   5.722   1.712  0.1434 -1.8120 -2.9970
  317MOL   H13445006   1.854   5.706   1.813  0.5748  0.2349 -1.4000
  317MOL   C13545007   1.799   5.360   1.542  0.1136 -0.2949 -0.2414
  317MOL   C13645008   1.697   5.240   1.543  0.4351  0.1937 -0.1230
  317MOL   O13745009   1.833   5.393   1.408  0.2554 -0.4514  0.1319
  317MOL   H13845010   1.895   5.335   1.586  0.4276  0.0874 -0.6945
  317MOL   H13945011   1.594   5.257   1.510 -1.0785 -0.3173  3.9420
  317MOL   H14045012   1.684   5.205   1.646  0.2211 -1.4546 -0.6931
  317MOL   H14145013   1.744   5.159   1.487  1.1223  0.1165  0.5587
  317MOL   H14245014   1.886   5.471   1.415 -0.2716 -0.0030 -0.7522
  318MOL     C145015   7.738   1.076   7.139 -0.3752  0.1100  0.1218
  318MOL     C245016   7.772   0.928   7.109  0.0086 -0.0962 -0.3678
  318MOL     O345017   7.652   1.088   7.251 -0.1843  0.0707  0.3162
  318MOL     H445018   7.695   1.116   7.048  0.0548  0.9079  0.2595
  318MOL     H545019   7.777   0.880   7.206  1.1033 -2.3029 -1.4919
  318MOL     H645020   7.863   0.900   7.057 -0.0901 -0.1360 -0.5226
  318MOL     H745021   7.698   0.879   7.045  2.4882 -2.0385 -1.8294
  318MOL     H845022   7.822   1.140   7.166 -1.7868  2.0793 -0.0966
  318MOL     C945023   7.603   1.216   7.278  0.0325  0.1913 -0.7961
  318MOL    C1045024   7.527   1.276   7.160  0.6165  0.5118  0.2135
  318MOL    O1145025   7.519   1.207   7.383  0.5086 -0.4395 -0.2177
  318MOL    H1245026   7.679   1.288   7.311 -0.8111  0.0481  1.5415
  318MOL    H1345027   7.597   1.298   7.079  0.2484  0.6981 -0.0538
  318MOL    H1445028   7.476   1.369   7.181 -1.0291 -0.3293  0.0016
  318MOL    H1545029   7.457   1.200   7.126  1.9235 -0.8919  0.5720
  318MOL    C1645030   7.574   1.170   7.509  0.4909  0.5151 -0.6381
  318MOL    C1745031   7.592   1.299   7.595  0.0030 -0.1529  0.0039
  318MOL    O1845032   7.503   1.072   7.582 -0.0905 -0.0466 -0.1347
  318MOL    H1945033   7.678   1.149   7.486  1.3767  3.0914  0.7865
  318MOL    H2045034   7.659   1.366   7.542 -1.7574  1.6118 -0.0716
  318MOL    H2145035   7.637   1.264   7.687 -0.0469  1.1125  0.5184
  318MOL    H2245036   7.491   1.337   7.610  0.1646  1.5090 -2.7153
  318MOL    C2345037   7.521   0.950   7.518 -0.7944  0.3250  0.5030
  318MOL    C2445038   7.624   0.869   7.601 -0.5188 -0.2576 -0.9346
  318MOL    O2545039   7.401   0.877   7.518 -0.2233 -0.4699  0.1239
  318MOL    H2645040   7.556   0.959   7.415 -3.6698  0.1963 -0.5510
  318MOL    H2745041   7.720   0.918   7.613 -0.2513 -1.3165  1.3584
  318MOL    H2845042   7.638   0.764   7.575  0.6467 -1.5125  4.2272
  318MOL    H2945043   7.584   0.864   7.702 -0.7372 -1.6425 -1.0764
  318MOL    C3045044   7.304   0.929   7.431  0.9748  0.0375 -0.8478
  318MOL    C3145045   7.287   0.835   7.312  0.6781 -0.0924  0.8657
  318MOL    O3245046   7.182   0.930   7.500  0.1590 -0.3015 -0.1519
  318MOL    H3345047   7.327   1.031   7.399  0.4993  0.0718 -1.0894
  318MOL    H3445048   7.383   0.836   7.259  0.5992  1.3396  0.7412
  318MOL    H3545049   7.210   0.871   7.244  0.1295 -2.7089  0.0299
  318MOL    H3645050   7.254   0.742   7.359 -1.2173  0.2367  0.1976
  318MOL    C3745051   7.151   1.050   7.575 -0.3946  0.4758 -0.2733
  318MOL    C3845052   7.042   1.111   7.499  0.8734  0.0710  0.9109
  318MOL    O3945053   7.105   1.028   7.707 -0.4858 -0.0559  0.3530
  318MOL    H4045054   7.233   1.121   7.580 -0.1242  0.0618  1.2200
  318MOL    H4145055   7.010   1.206   7.541 -0.8925 -0.3300  0.5318
  318MOL    H4245056   6.957   1.043   7.506  1.6116 -0.7727  1.7492
  318MOL    H4345057   7.070   1.132   7.396  1.7008 -2.7176  0.5363
  318MOL    C4445058   7.204   0.971   7.788 -0.4118  0.3026  0.1485
  318MOL    C4545059   7.231   1.068   7.900 -0.2346  0.0976 -0.1568
  318MOL    O4645060   7.164   0.852   7.852  0.2939 -0.2286  0.2964
  318MOL    H4745061   7.293   0.960   7.726 -1.8296  1.1067 -2.1332
  318MOL    H4845062   7.137   1.086   0.039 -0.1479 -1.2566  0.4791
  318MOL    H4945063   7.272   1.157   7.853  0.9335 -0.5908 -0.4664
  318MOL    H5045064   7.309   1.024   0.046  0.9048  0.9454 -0.9967
  318MOL    C5145065   7.138   0.745   7.758 -0.5807 -0.1511 -0.1029
  318MOL    C5245066   7.262   0.656   7.760 -0.5728 -0.8817  0.0014
  318MOL    O5345067   7.032   0.670   7.805  0.0831  0.1190 -0.2737
  318MOL    H5445068   7.118   0.787   7.660  0.6057  0.6627 -0.0114
  318MOL    H5545069   7.252   0.588   7.675  0.9011  0.8854 -1.6243
  318MOL    H5645070   7.278   0.610   7.857  0.4408  0.1659  0.3386
  318MOL    H5745071   7.349   0.718   7.742 -0.3829 -1.0131  0.4675
  318MOL    C5845072   6.912   0.733   7.764 -0.4226 -0.0550  0.8514
  318MOL    C5945073   6.873   0.686   7.620  0.3519 -0.2955 -0.3096
  318MOL    O6045074   6.806   0.702   7.850  0.5354 -0.1870 -0.3899
  318MOL    H6145075   6.925   0.841   7.766  0.7590 -0.0939 -2.2183
  318MOL    H6245076   6.792   0.746   7.580  1.7383  1.4166 -0.5865
  318MOL    H6345077   6.852   0.580   7.636  1.1198 -0.4457 -0.2470
  318MOL    H6445078   6.952   0.698   7.546  0.8915 -4.4875 -0.5585
  318MOL    C6545079   6.823   0.744   0.069 -0.1983  0.3026 -0.2709
  318MOL    C6645080   6.690   0.813   0.098 -0.0236 -0.6496  0.3634
  318MOL    O6745081   6.827   0.642   0.166 -0.3963 -0.2100  0.0597
  318MOL    H6845082   6.905   0.816   0.082 -0.8014  0.6569  1.7036
  318MOL    H6945083   6.678   0.849   0.200  0.3101 -2.3812  1.0269
  318MOL    H7045084   6.605   0.754   0.063  0.4086 -0.5649 -0.8412
  318MOL    H7145085   6.682   0.904   0.038  0.6283  0.1352  1.4514
  318MOL    C7245086   6.957   0.586   0.187  0.1787  0.3292  0.0189
  318MOL    C7345087   6.997   0.615   0.327 -0.4023  0.5391 -0.0589
  318MOL    O7445088   6.951   0.444   0.172 -0.0382 -0.2886 -0.3786
  318MOL    H7545089   7.029   0.632   0.120 -2.0135  2.4566 -0.9517
  318MOL    H7645090   7.090   0.564   0.353  0.4100  1.9459 -0.0947
  318MOL    H7745091   6.925   0.580   0.400 -0.2070  1.9555  0.8306
  318MOL    H7845092   6.984   0.723   0.338 -0.7489  0.6506 -1.4179
  318MOL    C7945093   6.964   0.400   0.043 -0.2735  0.6507  0.3970
  318MOL    C8045094   7.114   0.355   0.019 -0.8030  0.0609  0.0495
  318MOL    O8145095   6.883   0.290   0.023 -0.2785  0.1996  0.0700
  318MOL    H8245096   6.932   0.476   7.885 -1.1640 -0.6316 -0.5900
  318MOL    H8345097   7.128   0.262   0.074  1.7277  0.3131 -0.1318
  318MOL    H8445098   7.178   0.430   0.066  0.1452 -0.3548 -0.5611
  318MOL    H8545099   7.132   0.338   7.827  0.2781 -2.6320  0.6390
  318MOL    C8645100   6.745   0.322   0.028 -0.3246  0.2525  0.0921
  318MOL    C8745101   6.696   0.264   7.807 -0.3732 -0.0630  0.1548
  318MOL    O8845102   6.670   0.251   0.125  0.5457  0.3374  0.2910
  318MOL    H8945103   6.726   0.428   0.043  1.0183  0.9834 -3.0344
  318MOL    H9045104   6.674   0.157   7.819 -3.3112  0.2991 -1.6250
  318MOL    H9145105   6.776   0.281   7.735  0.0075  1.1342  0.8558
  318MOL    H9245106   6.606   0.318   7.780  0.5291  1.9710  1.1102
  318MOL    C9345107   6.675   0.296   0.252 -0.2253  0.6372  0.3932
  318MOL    C9445108   6.539   0.338   0.296  0.1888  0.1486 -0.2749
  318MOL    O9545109   6.714   0.182   0.330 -0.5733 -0.2484  0.1584
  318MOL    H9645110   6.756   0.368   0.264  2.1406 -1.4885 -2.2289
  318MOL    H9745111   6.546   0.372   0.399  0.6788 -1.7699  0.3426
  318MOL    H9845112   6.474   0.252   0.309 -3.6311  2.5629 -2.3810
  318MOL    H9945113   6.501   0.423   0.238  3.0136  2.0728  0.5837
  318MOL   C10045114   6.847   0.145   0.328  0.5487 -0.1103  0.5072
  318MOL   C10145115   6.899   0.189   0.467 -0.0167  0.2452  0.2322
  318MOL   O10245116   6.856   0.007   0.324 -0.0557 -0.5331 -0.1554
  318MOL   H10345117   6.898   0.197   0.248 -0.4190  0.3845  0.1996
  318MOL   H10445118   6.831   0.138   0.535  1.1499  0.0685  1.2702
  318MOL   H10545119   6.897   0.298   0.477  1.4091  0.4110 -1.0987
  318MOL   H10645120   6.996   0.142   0.483 -0.6539 -0.8834  0.8099
  318MOL   C10745121   6.855   7.869   0.199  0.1214 -0.0948  0.1921
  318MOL   C10845122   6.993   7.824   0.160  0.1351 -0.5911  0.2139
  318MOL   O10945123   6.781   7.751   0.197  0.2204 -0.1260  0.1608
  318MOL   H11045124   6.802   0.027   0.136  1.4604  2.2549  1.6811
  318MOL   H11145125   7.053   0.001   0.156 -0.7002 -0.0509 -0.0431
  318MOL   H11245126   6.987   7.764   0.069 -0.7231  2.6744 -1.9505
  318MOL   H11345127   7.035   7.758   0.237  0.8471 -0.9206 -0.4478
  318MOL   C11445128   6.643   7.772   0.204  0.3562  0.4301  0.4747
  318MOL   C11545129   6.606   7.752   0.052 -0.0931  0.2895 -0.2760
  318MOL   O11645130   6.577   7.685   0.287  0.3013  0.1854 -0.1951
  318MOL   H11745131   6.616   7.874   0.231 -0.0379  0.6128 -0.5584
  318MOL   H11845132   6.652   7.660   0.017  0.5475  0.1820  0.8126
  318MOL   H11945133   6.638   7.837   7.906 -0.3481  0.2700 -0.4397
  318MOL   H12045134   6.497   7.749   0.047 -0.0988  0.7072 -0.4249
  318MOL   C12145135   6.600   7.699   0.426  0.3512 -0.0275  0.3390
  318MOL   C12245136   6.485   7.786   0.484 -0.4445 -0.0309  0.3980
  318MOL   O12345137   6.585   7.574   0.486  0.8196 -0.0282  0.2062
  318MOL   H12445138   6.697   7.743   0.451 -0.5044  1.2144  1.5849
  318MOL   H12545139   6.501   7.767   0.590 -0.9865 -2.4117  0.0802
  318MOL   H12645140   6.387   7.751   0.450 -1.7067  1.2098  2.5551
  318MOL   H12745141   6.493   7.893   0.462 -1.1024 -0.2940 -1.1541
  318MOL   C12845142   6.707   7.495   0.471  0.1396  0.3466  0.1439
  318MOL   C12945143   6.766   7.466   0.609  0.5791 -0.5014 -0.4422
  318MOL   O13045144   6.677   7.369   0.412  0.2900  0.5396  0.4317
  318MOL   H13145145   6.776   7.537   0.398  0.2559  1.5784  0.9558
  318MOL   H13245146   6.685   7.424   0.670  0.1774  0.9906  0.0642
  318MOL   H13345147   6.802   7.558   0.655  1.1934 -1.1689  0.4403
  318MOL   H13445148   6.844   7.390   0.607  0.5294 -0.5534 -0.4217
  318MOL   C13545149   6.664   7.367   0.272 -0.6374 -0.1583 -0.2020
  318MOL   C13645150   6.679   7.221   0.224  0.0843  0.3959 -0.7460
  318MOL   O13745151   6.536   7.413   0.232  0.2364 -0.4031  0.3477
  318MOL   H13845152   6.739   7.430   0.225 -2.0851  0.0997 -2.2211
  318MOL   H13945153   6.646   7.222   0.120 -0.2966  2.7288 -0.6155
  318MOL   H14045154   6.613   7.155   0.280  4.3350 -0.9931  2.8830
  318MOL   H14145155   6.781   7.185   0.234 -0.5416 -0.6946  2.4281
  318MOL   H14245156   6.532   7.505   0.254 -5.7988  0.0922 -1.7926
  319MOL     C145157   7.320   3.809   3.033 -0.3699 -0.9182  0.5006
  319MOL     C245158   7.361   3.672   3.080 -0.7557 -0.2721 -0.9287
  319MOL     O345159   7.197   3.834   3.096  0.0770  0.7531 -0.6272
  319MOL     H445160   7.311   3.802   2.924  2.4013  1.0636  0.1122
  319MOL     H545161   7.295   3.589   3.051 -2.6249  0.6531  0.5903
  319MOL     H645162   7.353   3.668   3.189 -0.4174  2.5694 -0.7683
  319MOL     H745163   7.463   3.648   3.049 -0.1716 -0.0724  0.7897
  319MOL     H845164   7.388   3.891   3.054 -0.7430 -0.4082 -0.2690
  319MOL     C945165   7.133   3.946   3.039 -0.2387  0.1263 -0.8038
  319MOL    C1045166   7.022   3.890   2.944 -0.1125  0.0855 -0.7143
  319MOL    O1145167   7.069   4.027   3.133  0.2960 -0.2113 -0.5694
  319MOL    H1245168   7.197   4.008   2.976  1.2218 -1.4458 -0.8933
  319MOL    H1345169   6.968   3.961   2.883  1.0494  1.0874 -0.5930
  319MOL    H1445170   6.957   3.838   3.014 -1.8137  2.7274 -0.2824
  319MOL    H1545171   7.066   3.814   2.880 -1.2536 -1.0270 -0.2026
  319MOL    C1645172   7.144   4.055   3.243  0.2779  0.1277 -0.1894
  319MOL    C1745173   7.175   4.204   3.239 -0.2750 -0.1493 -0.3898
  319MOL    O1845174   7.063   4.040   3.361 -0.3693  0.5859 -0.1431
  319MOL    H1945175   7.242   4.010   3.260  0.4614  0.6529  0.1474
  319MOL    H2045176   7.081   4.260   3.244 -1.4540 -1.8898 -2.2813
  319MOL    H2145177   7.225   4.234   3.147 -0.3934  3.7844  0.7503
  319MOL    H2245178   7.228   4.237   3.329 -0.9768 -0.4972  0.1589
  319MOL    C2345179   7.039   3.913   3.392 -0.7666  0.5178  0.3217
  319MOL    C2445180   7.146   3.870   3.497 -0.0284 -1.0591  0.7218
  319MOL    O2545181   6.920   3.911   3.459 -0.3754 -0.2579 -0.0281
  319MOL    H2645182   7.031   3.844   3.308  0.6739  0.6693  0.0349
  319MOL    H2745183   7.249   3.871   3.459 -0.2665 -2.9865 -0.0388
  319MOL    H2845184   7.125   3.768   3.530 -1.4366 -1.5333 -1.4759
  319MOL    H2945185   7.144   3.931   3.587  0.1799 -0.5125  0.3602
  319MOL    C3045186   6.803   3.926   3.382  1.0090  0.4055  0.2887
  319MOL    C3145187   6.725   3.797   3.396  0.3398 -0.7638 -0.2122
  319MOL    O3245188   6.727   4.022   3.436 -0.2050  0.2796 -0.0577
  319MOL    H3345189   6.818   3.934   3.274  0.0706 -1.5664 -0.0221
  319MOL    H3445190   6.754   3.763   3.496  1.9971  1.2468  0.0051
  319MOL    H3545191   6.761   3.717   3.331 -0.9519 -1.2897 -0.3087
  319MOL    H3645192   6.618   3.808   3.375  0.7975  1.0083 -1.6136
  319MOL    C3745193   6.778   4.152   3.403 -0.2047  0.1897 -0.9023
  319MOL    C3845194   6.678   4.221   3.308  0.5811  0.3187 -1.3225
  319MOL    O3945195   6.788   4.239   3.511 -0.0266  0.9798  0.4072
  319MOL    H4045196   6.871   4.151   3.345  1.7606  1.3606  2.0910
  319MOL    H4145197   6.622   4.145   3.254 -0.9598 -1.3673  2.4285
  319MOL    H4245198   6.715   4.298   3.240  1.2005  1.7939  0.6243
  319MOL    H4345199   6.611   4.281   3.371  0.6174 -1.9519  0.9535
  319MOL    C4445200   6.902   4.205   3.600  0.3121  0.3034 -0.5099
  319MOL    C4545201   6.994   4.325   3.600  0.0356  0.0919  0.1171
  319MOL    O4645202   6.856   4.191   3.729  0.1460  0.2729 -0.0537
  319MOL    H4745203   6.975   4.127   3.577 -1.7269 -1.2615 -1.7758
  319MOL    H4845204   7.055   4.314   3.690 -0.2036  1.7984  0.4944
  319MOL    H4945205   6.941   4.420   3.606  0.1217  0.0634  1.4450
  319MOL    H5045206   7.065   4.329   3.517 -1.3605 -3.6381 -1.3768
  319MOL    C5145207   6.797   4.059   3.747  0.0336 -0.1376 -0.2186
  319MOL    C5245208   6.900   3.986   3.831 -0.4601 -0.3522  0.2210
  319MOL    O5345209   6.676   4.061   3.823 -0.6377  0.0529 -0.1514
  319MOL    H5445210   6.790   4.007   3.652 -2.1983 -0.7473  0.2432
  319MOL    H5545211   6.991   3.981   3.771 -0.0299 -2.6089  1.0137
  319MOL    H5645212   6.871   3.888   3.868 -1.0630  0.2814  1.4759
  319MOL    H5745213   6.925   4.046   3.918  1.1149 -0.2002 -0.3095
  319MOL    C5845214   6.563   4.102   3.755  0.3164 -0.2248  0.1324
  319MOL    C5945215   6.457   3.996   3.777 -0.0187  0.1015 -0.5243
  319MOL    O6045216   6.512   4.219   3.815 -0.2904 -0.2337 -0.7722
  319MOL    H6145217   6.588   4.124   3.652 -0.7822  1.7258  0.2527
  319MOL    H6245218   6.445   3.957   3.878 -1.5109 -0.1186 -0.7725
  319MOL    H6345219   6.481   3.917   3.706  1.8550  0.1523  0.0282
  319MOL    H6445220   6.366   4.044   3.741 -0.0579 -0.5392 -1.2765
  319MOL    C6545221   6.564   4.338   3.770  0.4288 -0.1035 -0.0087
  319MOL    C6645222   6.470   4.407   3.672 -0.6112  0.3337 -0.2814
  319MOL    O6745223   6.595   4.417   3.880  0.0152  0.0033 -0.2851
  319MOL    H6845224   6.655   4.317   3.713  0.5587 -0.5366  0.3555
  319MOL    H6945225   6.383   4.445   3.725 -0.3224  0.3705  0.1703
  319MOL    H7045226   6.452   4.340   3.588 -0.8321  2.0973 -1.6856
  319MOL    H7145227   6.525   4.494   3.634  0.9527 -0.0896  0.9409
  319MOL    C7245228   6.707   4.380   3.966  0.1075 -0.1393 -0.4427
  319MOL    C7345229   6.814   4.484   3.937  0.0249  1.1475 -0.0360
  319MOL    O7445230   6.686   4.378   4.105  0.5926  0.5268  0.1070
  319MOL    H7545231   6.750   4.283   3.940  2.2109  0.1771  1.6468
  319MOL    H7645232   6.852   4.480   3.836 -1.8781 -2.0886 -0.7038
  319MOL    H7745233   6.898   4.482   4.007 -0.5346  1.0421  0.6452
  319MOL    H7845234   6.773   4.585   3.946 -0.8474  0.7893  0.0765
  319MOL    C7945235   6.582   4.287   4.141 -0.4766  0.0262 -0.1651
  319MOL    C8045236   6.640   4.163   4.206 -0.6965  0.3007 -0.2784
  319MOL    O8145237   6.504   4.345   4.243  0.4216 -0.0327  0.0126
  319MOL    H8245238   6.522   4.258   4.055  1.6087  2.6667 -2.6194
  319MOL    H8345239   6.720   4.121   4.145  0.2335  2.0880 -0.3459
  319MOL    H8445240   6.556   4.095   4.214 -0.3117 -0.3779 -1.9037
  319MOL    H8545241   6.689   4.196   4.299 -1.2676 -2.0184  0.8800
  319MOL    C8645242   6.418   4.447   4.197 -0.3759  0.5624 -0.2773
  319MOL    C8745243   6.277   4.383   4.167 -0.7190  0.1312 -0.0481
  319MOL    O8845244   6.398   4.546   4.296  0.2741  0.3277 -0.1422
  319MOL    H8945245   6.461   4.501   4.113  1.2143 -0.3848 -0.0973
  319MOL    H9045246   6.231   4.346   4.259 -0.7911  2.1456  0.7655
  319MOL    H9145247   6.297   4.306   4.092  0.8900  0.6675 -0.1839
  319MOL    H9245248   6.214   4.464   4.130  0.9671  1.4802 -0.0391
  319MOL    C9345249   6.500   4.639   4.303 -0.4270  0.3942 -0.2568
  319MOL    C9445250   6.433   4.774   4.269  0.0272 -0.3445 -0.5882
  319MOL    O9545251   6.536   4.661   4.442  0.4338  0.2858  0.1187
  319MOL    H9645252   6.584   4.622   4.235  0.4655 -0.8796  1.1323
  319MOL    H9745253   6.505   4.855   4.283  0.9892 -1.3792  0.5107
  319MOL    H9845254   6.342   4.787   4.329  0.9864  0.2392  0.7635
  319MOL    H9945255   6.399   4.755   4.167  1.0573  2.5809 -1.5192
  319MOL   C10045256   6.605   4.554   4.498  0.6287  0.5999 -0.2422
  319MOL   C10145257   6.735   4.612   4.544 -0.5292 -0.2171  0.1722
  319MOL   O10245258   6.526   4.516   4.608 -0.0352 -0.3474 -0.2090
  319MOL   H10345259   6.620   4.465   4.436 -0.1836 -0.8361  1.5744
  319MOL   H10445260   6.790   4.558   4.621  1.4306 -2.2284 -2.5196
  319MOL   H10545261   6.707   4.703   4.596  0.3191 -1.2952  2.6274
  319MOL   H10645262   6.815   4.645   4.478 -1.0143 -0.0143 -0.3109
  319MOL   C10745263   6.430   4.418   4.586  0.8630 -0.2556 -0.1866
  319MOL   C10845264   6.475   4.280   4.642 -0.6232 -0.7340 -0.5314
  319MOL   O10945265   6.309   4.443   4.658  0.3062  0.0230 -0.1219
  319MOL   H11045266   6.400   4.407   4.482 -1.5261 -1.2903  0.5819
  319MOL   H11145267   6.489   4.273   4.750 -2.1656  2.2280 -0.0769
  319MOL   H11245268   6.569   4.246   4.599 -0.2775 -0.7919  0.2493
  319MOL   H11345269   6.402   4.205   4.610 -1.6349 -0.0438  0.1217
  319MOL   C11445270   6.241   4.558   4.617 -0.1707 -0.1300  0.1719
  319MOL   C11545271   6.100   4.528   4.569  0.1206 -0.0765  0.4531
  319MOL   O11645272   6.209   4.636   4.731 -0.6275  0.4166 -0.2919
  319MOL   H11745273   6.293   4.615   4.540  0.6536  0.4202  1.1304
  319MOL   H11845274   6.115   4.452   4.492  0.0413  2.5249 -2.2245
  319MOL   H11945275   6.051   4.612   4.518  0.5451  0.6559  1.2426
  319MOL   H12045276   6.040   4.482   4.648  0.5698 -1.1117  0.1998
  319MOL   C12145277   6.319   4.697   4.778  0.1883  0.0748  0.2710
  319MOL   C12245278   6.320   4.826   4.705  0.5979  0.1778  0.4277
  319MOL   O12345279   6.308   4.715   4.908 -0.0873 -0.1144 -0.0215
  319MOL   H12445280   6.411   4.643   4.759  0.6567  0.0067  2.5192
  319MOL   H12545281   6.238   4.893   4.731  1.3021  1.2262  0.0033
  319MOL   H12645282   6.323   4.821   4.596 -0.0844  0.2666  0.4028
  319MOL   H12745283   6.413   4.874   4.736  0.1956  0.7110  0.8158
  319MOL   C12845284   6.328   4.594   4.982 -0.4225 -0.4433  0.1253
  319MOL   C12945285   6.472   4.603   5.053 -0.0097 -0.6200  0.0695
  319MOL   O13045286   6.234   4.573   5.079 -0.6883 -0.5384 -0.0459
  319MOL   H13145287   6.333   4.506   4.917 -3.3857 -0.8196  0.3402
  319MOL   H13245288   6.462   4.676   5.134 -1.7148  1.1146 -1.6515
  319MOL   H13345289   6.550   4.620   4.979 -1.5044  1.8060 -1.0234
  319MOL   H13445290   6.485   4.520   5.122 -1.2940  0.1242  1.2314
  319MOL   C13545291   6.107   4.540   5.015  0.1343  0.1469  0.2688
  319MOL   C13645292   6.027   4.445   5.106  0.5071 -0.4674 -0.7359
  319MOL   O13745293   6.035   4.660   4.988 -0.2842  0.3567 -0.1446
  319MOL   H13845294   6.125   4.483   4.924 -0.0640 -1.6436  1.3257
  319MOL   H13945295   5.997   4.495   5.198 -1.1064 -0.2911 -1.3608
  319MOL   H14045296   6.095   4.363   5.132  3.4216  1.8003 -0.8594
  319MOL   H14145297   5.937   4.410   5.056 -0.1743 -1.5734  1.1889
  319MOL   H14245298   6.086   4.708   4.924  0.9406 -1.9459 -0.9461
  320MOL     C145299   7.447   7.653   3.892  0.1241 -0.8182  0.3396
  320MOL     C245300   7.308   7.714   3.907 -0.5476 -0.2531 -0.6709
  320MOL     O345301   7.508   7.606   4.015  0.0302 -0.0211  0.0577
  320MOL     H445302   7.512   7.726   3.845 -2.1936  1.3726  0.3857
  320MOL     H545303   7.285   7.753   3.807  0.1796 -2.1748 -1.6077
  320MOL     H645304   7.306   7.800   3.973 -2.0280 -0.7347 -0.0617
  320MOL     H745305   7.238   7.640   3.945  1.3712 -2.5052 -1.4478
  320MOL     H845306   7.443   7.565   3.828  0.9637 -0.0236 -0.8230
  320MOL     C945307   7.639   7.551   4.013  0.3136  0.3110 -0.2892
  320MOL    C1045308   7.715   7.603   4.142  0.0650 -0.1580 -0.8491
  320MOL    O1145309   7.620   7.417   4.031  0.1776  0.5004  0.0343
  320MOL    H1245310   7.706   7.567   3.929 -0.4128 -1.9478 -1.3194
  320MOL    H1345311   7.809   7.549   4.156 -0.0449 -0.1178  0.0581
  320MOL    H1445312   7.657   7.586   4.233  1.6164 -1.5259 -0.0843
  320MOL    H1545313   7.727   7.710   4.155  0.2748 -0.1375 -1.1888
  320MOL    C1645314   7.639   7.329   3.925 -0.9046  0.0471  0.4893
  320MOL    C1745315   7.773   7.261   3.940 -0.1709  0.3710  0.1841
  320MOL    O1845316   7.547   7.225   3.932  0.1876  0.2482 -0.3675
  320MOL    H1945317   7.620   7.376   3.829  0.0234 -1.5859 -0.5074
  320MOL    H2045318   7.785   7.179   3.870 -1.4633  0.9403 -0.7217
  320MOL    H2145319   7.765   7.222   4.042  0.3457  0.0168  0.0895
  320MOL    H2245320   7.860   7.327   3.941 -1.0438  1.5282  0.3828
  320MOL    C2345321   7.417   7.270   3.915  0.3916 -0.4494  0.3927
  320MOL    C2445322   7.375   7.253   3.768 -0.4652 -0.1657 -0.3529
  320MOL    O2545323   7.325   7.215   4.001  0.7873  0.5634 -0.4984
  320MOL    H2645324   7.396   7.375   3.935  1.2217  0.0494 -1.2847
  320MOL    H2745325   7.459   7.272   3.701 -0.6746  1.4334 -0.1790
  320MOL    H2845326   7.293   7.322   3.749  0.1113  0.9372  1.0015
  320MOL    H2945327   7.333   7.155   3.750 -1.5228 -0.1410  1.8231
  320MOL    C3045328   7.361   7.241   4.137 -0.3613 -0.0601  0.3810
  320MOL    C3145329   7.224   7.314   4.189  0.9856  0.2216  0.0988
  320MOL    O3245330   7.381   7.123   4.209  0.0168  0.1138  0.3843
  320MOL    H3345331   7.437   7.318   4.150 -2.2204  1.9899 -0.5186
  320MOL    H3445332   7.204   7.399   4.122  0.7686 -1.5445 -2.1411
  320MOL    H3545333   7.250   7.361   4.283  0.6970 -1.9484  1.2869
  320MOL    H3645334   7.134   7.253   4.196  1.0350 -0.0462 -1.4228
  320MOL    C3745335   7.515   7.093   4.232 -0.5100 -0.2327  0.1603
  320MOL    C3845336   7.555   7.128   4.380  0.0167 -0.0531 -0.0175
  320MOL    O3945337   7.546   6.959   4.202  0.0774 -0.1455  0.3258
  320MOL    H4045338   7.581   7.150   4.167  0.3604 -1.6349 -0.2157
  320MOL    H4145339   7.660   7.108   4.402  0.4766  2.3424  0.1050
  320MOL    H4245340   7.484   7.076   4.444 -0.2431 -0.2980 -0.5107
  320MOL    H4345341   7.540   7.234   4.396  2.9254  0.2918  0.6511
  320MOL    C4445342   7.546   6.922   4.065 -1.3770 -0.6351  0.0643
  320MOL    C4545343   7.694   6.894   4.026 -0.1816  0.2921  0.2444
  320MOL    O4645344   7.468   6.811   4.034 -0.6028  0.2760  0.4147
  320MOL    H4745345   7.516   7.012   4.010 -1.0892 -0.4326  0.2361
  320MOL    H4845346   7.695   6.882   3.917 -0.1165  0.8933  0.1776
  320MOL    H4945347   7.728   6.802   4.073 -1.8443 -1.0233 -1.0514
  320MOL    H5045348   7.750   6.987   4.039  1.7215 -0.8435  0.3504
  320MOL    C5145349   7.332   6.849   4.020 -0.1783 -0.5485 -0.2971
  320MOL    C5245350   7.315   6.856   3.870 -0.1145  0.7459 -0.5935
  320MOL    O5345351   7.260   6.747   4.069  0.2144  0.2343  0.4761
  320MOL    H5445352   7.306   6.941   4.073  2.1238  0.1119 -0.2329
  320MOL    H5545353   7.213   6.881   3.839 -0.7120  2.1613  2.3343
  320MOL    H5645354   7.349   6.758   3.837  1.1373  1.1172 -0.4383
  320MOL    H5745355   7.382   6.923   3.817  1.0636  0.8413  0.9772
  320MOL    C5845356   7.255   6.745   4.210 -0.5238 -0.3510  0.3378
  320MOL    C5945357   7.110   6.774   4.254 -0.2330  0.4402  0.4565
  320MOL    O6045358   7.293   6.626   4.264 -0.4943 -0.4156 -0.0591
  320MOL    H6145359   7.320   6.821   4.254  0.5859 -0.2987 -1.3440
  320MOL    H6245360   7.051   6.690   4.217  0.6173  0.8889 -2.0563
  320MOL    H6345361   7.075   6.873   4.224 -0.5151  0.1633 -0.1302
  320MOL    H6445362   7.097   6.774   4.362 -1.7038 -0.2724  0.2828
  320MOL    C6545363   7.430   6.595   4.262  0.3933 -0.3764  0.1686
  320MOL    C6645364   7.467   6.557   4.408 -0.4262  0.2000  0.5946
  320MOL    O6745365   7.449   6.481   4.191  0.2102 -0.0690  0.4701
  320MOL    H6845366   7.490   6.679   4.227 -0.0107  0.5252  1.5999
  320MOL    H6945367   7.572   6.528   4.407 -1.2649 -3.0253 -0.7626
  320MOL    H7045368   7.405   6.474   4.442  0.2574 -0.9735 -0.9569
  320MOL    H7145369   7.442   6.644   4.467  1.3922 -0.6217  2.6221
  320MOL    C7245370   7.458   6.492   4.055  0.4733  0.3077  0.0365
  320MOL    C7345371   7.604   6.490   4.018 -0.1161  0.3660 -0.1308
  320MOL    O7445372   7.396   6.380   3.996 -0.6331 -0.0212  0.1738
  320MOL    H7545373   7.419   6.582   4.008 -0.9387 -0.0200  0.5725
  320MOL    H7645374   7.661   6.409   4.064  0.5061  1.3978  0.9301
  320MOL    H7745375   7.642   6.587   4.048 -1.9080  1.3176 -0.8155
  320MOL    H7845376   7.607   6.480   3.909  0.6714  0.5099 -0.1188
  320MOL    C7945377   7.258   6.380   3.994  0.1698  0.3624  0.3686
  320MOL    C8045378   7.216   6.406   3.843  0.0671  0.5886  0.0821
  320MOL    O8145379   7.205   6.258   4.037  0.0828 -0.2508 -0.5149
  320MOL    H8245380   7.219   6.465   4.051  0.4741  1.3272 -0.8282
  320MOL    H8345381   7.259   6.327   3.782 -0.6016  0.1831  0.1232
  320MOL    H8445382   7.256   6.501   3.808  1.7910  0.4527  1.6142
  320MOL    H8545383   7.108   6.413   3.831 -0.0895  0.3341  1.2291
  320MOL    C8645384   7.220   6.242   4.176 -0.3721  0.4609  0.5296
  320MOL    C8745385   7.089   6.283   4.238 -0.4974 -0.5405  0.3322
  320MOL    O8845386   7.238   6.103   4.199  0.0186  0.0430 -0.3021
  320MOL    H8945387   7.308   6.301   4.203  1.1689  0.3464 -3.7399
  320MOL    H9045388   7.090   6.277   4.346 -0.3338  1.7235  0.4873
  320MOL    H9145389   7.002   6.230   4.199 -1.2539  1.1193 -0.3117
  320MOL    H9245390   7.069   6.387   4.211 -1.0228 -0.6153  0.4291
  320MOL    C9345391   7.356   6.057   4.139 -0.1982 -0.7239  0.6220
  320MOL    C9445392   7.444   6.010   4.254 -0.5064 -0.0850  0.7721
  320MOL    O9545393   7.319   5.944   4.065  0.5455 -0.5958 -0.6693
  320MOL    H9645394   7.413   6.122   4.072 -0.6295 -2.0279 -1.0441
  320MOL    H9745395   7.484   6.104   4.291 -0.2652  0.5056 -0.9062
  320MOL    H9845396   7.526   5.946   4.220  0.1583  0.7248  0.8281
  320MOL    H9945397   7.379   5.955   4.322  0.2297 -1.6770  0.2296
  320MOL   C10045398   7.264   5.966   3.938  0.3229  0.1419 -0.8239
  320MOL   C10145399   7.362   5.904   3.836  0.3145 -0.2991  0.2585
  320MOL   O10245400   7.137   5.902   3.920  0.1129 -0.1856  0.5657
  320MOL   H10345401   7.250   6.073   3.922  0.8012  0.5617  1.3801
  320MOL   H10445402   7.451   5.965   3.821 -0.1057  0.2823  0.1209
  320MOL   H10545403   7.307   5.920   3.744 -0.8893 -3.7086  0.3198
  320MOL   H10645404   7.376   5.796   3.841 -2.1757 -0.7956 -2.4532
  320MOL   C10745405   7.036   5.960   4.000  0.5493  0.5041 -0.9583
  320MOL   C10845406   6.919   5.988   3.898 -0.1973 -0.1658 -0.4689
  320MOL   O10945407   6.980   5.860   4.081 -0.3742  0.2286  0.7016
  320MOL   H11045408   7.049   6.046   4.064 -0.0572 -0.7854  0.9330
  320MOL   H11145409   6.887   5.894   3.852 -1.6490 -0.0126  0.1989
  320MOL   H11245410   6.955   6.048   3.815  1.3729 -1.3045 -0.6361
  320MOL   H11345411   6.834   6.039   3.943  0.5299  0.3450  0.3345
  320MOL   C11445412   7.044   5.848   4.205 -0.0177  0.1781 -0.5845
  320MOL   C11545413   6.955   5.911   4.315  0.4833  0.1477  0.0786
  320MOL   O11645414   7.071   5.714   4.236  0.0170 -0.1542  0.5974
  320MOL   H11745415   7.135   5.906   4.220  1.5756 -2.8262  2.1038
  320MOL   H11845416   6.864   5.852   4.328  0.1338  1.2180  2.9195
  320MOL   H11945417   6.922   6.013   4.293 -0.1758 -0.4461 -1.7134
  320MOL   H12045418   7.006   5.909   4.411 -2.5658 -0.9029  1.7297
  320MOL   C12145419   7.191   5.663   4.180 -0.9657 -0.0505 -0.7367
  320MOL   C12245420   7.282   5.629   4.294 -0.0153 -0.3555  0.1745
  320MOL   O12345421   7.165   5.539   4.111 -0.4346  0.5532 -0.1659
  320MOL   H12445422   7.236   5.732   4.109 -1.7570 -0.1405 -1.3255
  320MOL   H12545423   7.235   5.548   4.350 -0.0298  1.8758  3.5833
  320MOL   H12645424   7.297   5.709   4.367  0.6343 -1.4520  1.2757
  320MOL   H12745425   7.377   5.584   4.266  0.3884 -0.0148  0.9715
  320MOL   C12845426   7.106   5.557   3.982  0.3085 -0.7907  0.3965
  320MOL   C12945427   7.200   5.482   3.887  0.2398  0.1931 -0.5378
  320MOL   O13045428   6.980   5.503   3.973  0.3786 -0.1978  0.1420
  320MOL   H13145429   7.108   5.661   3.951  3.4467 -1.5089 -2.0900
  320MOL   H13245430   7.158   5.485   3.786 -0.9614  0.4321 -0.0342
  320MOL   H13345431   7.212   5.376   3.913  1.4074  0.0168 -1.7093
  320MOL   H13445432   7.302   5.520   3.877  0.7513 -1.5726 -2.3895
  320MOL   C13545433   6.875   5.595   4.001  0.6263  0.4827  0.4341
  320MOL   C13645434   6.747   5.549   3.933  0.4013 -0.1013  0.2141
  320MOL   O13745435   6.849   5.609   4.138 -0.2734  0.2175  0.5253
  320MOL   H13845436   6.894   5.689   3.949 -1.2864  0.6575  0.0093
  320MOL   H13945437   6.657   5.605   3.956 -1.0052 -2.5185  0.7256
  320MOL   H14045438   6.734   5.450   3.977 -2.1068  0.0430 -0.1610
  320MOL   H14145439   6.757   5.546   3.825  0.2056  1.7280  0.1195
  320MOL   H14245440   6.933   5.613   4.181  0.1206  2.2335 -0.3863
  321MOL     C145441   0.371   7.543   7.750 -0.3996  0.1119 -0.0511
  321MOL     C245442   0.510   7.567   7.698 -0.6301 -0.1450 -0.2010
  321MOL     O345443   0.370   7.567   7.889 -0.2223  0.3032 -0.7913
  321MOL     H445444   0.337   7.442   7.728  1.1964 -0.1087 -1.6225
  321MOL     H545445   0.577   7.506   7.759  0.1486  1.8750  1.0337
  321MOL     H645446   0.540   7.671   7.705 -0.1409 -0.3494  0.9553
  321MOL     H745447   0.504   7.536   7.594 -2.5979  0.4399 -0.2894
  321MOL     H845448   0.299   7.612   7.707 -2.3772 -1.4442  0.7007
  321MOL     C945449   0.240   7.592   0.024  0.2719  0.0035 -0.9879
  321MOL    C1045450   0.168   7.448   0.012  0.3783  0.0657 -0.9395
  321MOL    O1145451   0.253   7.626   0.161  0.4820 -0.1186  0.3378
  321MOL    H1245452   0.187   7.671   7.886  3.9792  1.6922 -2.3439
  321MOL    H1345453   0.228   7.363   0.045 -1.3533 -0.7452  0.1514
  321MOL    H1445454   0.146   7.423   7.822 -0.1275  1.5993 -1.2168
  321MOL    H1545455   0.084   7.461   0.080  0.6784 -0.1394 -0.5235
  321MOL    C1645456   0.305   7.751   0.186 -0.4687  0.0193  0.1817
  321MOL    C1745457   0.200   7.823   0.264 -0.3787  0.0082  0.8256
  321MOL    O1845458   0.426   7.755   0.256 -0.2295 -0.6970 -0.0949
  321MOL    H1945459   0.324   7.809   0.096 -0.6386 -2.1508 -1.3047
  321MOL    H2045460   0.103   7.826   0.215 -0.5542 -0.9479  1.0986
  321MOL    H2145461   0.240   0.009   0.275  0.5113 -0.1410 -0.8230
  321MOL    H2245462   0.175   7.777   0.359 -2.1208  0.8867  0.8026
  321MOL    C2345463   0.526   7.665   0.220  0.5520  0.1394  0.0466
  321MOL    C2445464   0.621   7.735   0.120 -0.5248 -0.7084  0.7069
  321MOL    O2545465   0.608   7.639   0.335  0.8597  0.8095  0.1208
  321MOL    H2645466   0.495   7.571   0.175 -0.8050  1.6520 -2.2790
  321MOL    H2745467   0.641   7.833   0.163 -0.1219 -1.0002  1.1947
  321MOL    H2845468   0.566   7.750   0.027  0.5914  0.1036  0.1678
  321MOL    H2945469   0.713   7.678   0.107  0.0412  0.2898  0.2932
  321MOL    C3045470   0.547   7.560   0.434 -0.7316 -0.4515  0.6085
  321MOL    C3145471   0.624   7.435   0.430 -0.5796 -0.2500 -0.3703
  321MOL    O3245472   0.549   7.614   0.561 -0.2487 -0.0319 -0.1228
  321MOL    H3345473   0.448   7.535   0.395 -1.6601  1.7274  1.5433
  321MOL    H3445474   0.581   7.356   0.493  2.0601  0.2621  2.1559
  321MOL    H3545475   0.730   7.447   0.454 -1.1258  0.3592  1.8937
  321MOL    H3645476   0.632   7.395   0.329 -0.0661  0.2706 -0.5363
  321MOL    C3745477   0.451   7.709   0.587 -0.6406  0.7830  0.4933
  321MOL    C3845478   0.361   7.666   0.706 -0.4594  0.0642  0.1076
  321MOL    O3945479   0.510   7.821   0.634  0.4184  0.6749 -0.3891
  321MOL    H4045480   0.394   7.738   0.499 -0.6188 -1.1244 -0.1786
  321MOL    H4145481   0.299   7.750   0.740  1.3260  2.0171 -1.3681
  321MOL    H4245482   0.421   7.635   0.792  1.1576  1.7829 -0.3615
  321MOL    H4345483   0.294   7.586   0.676  0.2621 -0.0492 -1.2048
  321MOL    C4445484   0.582   7.896   0.537  0.2154 -0.0355 -0.0110
  321MOL    C4545485   0.503   0.106   0.493  0.8139 -0.0471  0.2244
  321MOL    O4645486   0.706   0.024   0.595 -0.0664  0.7290 -0.1168
  321MOL    H4745487   0.601   7.834   0.450  0.4234 -0.0729  0.0623
  321MOL    H4845488   0.567   0.169   0.432  0.8299  0.9153  1.2281
  321MOL    H4945489   0.452   0.161   0.572  0.0334  0.4235 -0.5956
  321MOL    H5045490   0.420   0.073   0.430  1.6880 -1.3591 -0.2643
  321MOL    C5145491   0.801   7.840   0.604  0.2627 -0.4409 -0.2362
  321MOL    C5245492   0.875   7.826   0.473  0.0976  0.1896 -0.0350
  321MOL    O5345493   0.903   7.865   0.697 -0.0908 -0.2842 -0.2765
  321MOL    H5445494   0.752   7.750   0.643 -0.4252 -0.4648 -1.1386
  321MOL    H5545495   0.823   7.771   0.394 -0.2816  2.5540 -1.4960
  321MOL    H5645496   0.959   7.761   0.497  0.9566  1.1974 -0.2790
  321MOL    H5745497   0.905   0.014   0.445  2.3127  0.4446  3.0795
  321MOL    C5845498   0.855   7.873   0.834 -0.0116 -0.1158 -0.0307
  321MOL    C5945499   0.942   7.771   0.916 -0.3530  0.1510 -0.4245
  321MOL    O6045500   0.884   0.088   0.882  0.4740  0.1154 -0.1536
  321MOL    H6145501   0.748   7.858   0.844 -0.2239  2.1219  1.3418
  321MOL    H6245502   1.043   7.811   0.913 -1.1055  2.0525 -1.1190
  321MOL    H6345503   0.955   7.676   0.865  0.3238  0.7671 -1.4111
  321MOL    H6445504   0.905   7.759   1.018  1.9143  0.1097  0.4346
  321MOL    C6545505   0.785   0.183   0.856 -0.7358 -0.2879  0.1823
  321MOL    C6645506   0.731   0.226   0.988  1.0751  0.1385 -0.0788
  321MOL    O6745507   0.836   0.300   0.807  0.9816 -0.2725 -0.2771
  321MOL    H6845508   0.704   0.150   0.790 -1.0898  0.7997  0.0706
  321MOL    H6945509   0.689   0.140   1.040  0.7355  1.6375  2.1697
  321MOL    H7045510   0.656   0.303   0.968  0.0178 -1.4262 -2.3549
  321MOL    H7145511   0.807   0.280   1.044 -1.2328 -0.4053  3.7446
  321MOL    C7245512   0.899   0.292   0.680  0.2926  0.1124  0.3108
  321MOL    C7345513   0.812   0.373   0.582 -0.0384  0.2799  0.7786
  321MOL    O7445514   1.027   0.347   0.687 -0.2929 -0.0841 -0.7937
  321MOL    H7545515   0.889   0.189   0.647  2.1382 -1.4413  4.2417
  321MOL    H7645516   0.796   0.478   0.606 -0.8040  0.5233 -0.7081
  321MOL    H7745517   0.712   0.331   0.587  0.8009 -1.7167  1.2128
  321MOL    H7845518   0.855   0.361   0.482 -0.5936 -0.8922  0.6714
  321MOL    C7945519   1.120   0.250   0.716 -0.3886 -0.5662  0.8944
  321MOL    C8045520   1.191   0.211   0.583  0.1990  0.4822  0.4017
  321MOL    O8145521   1.218   0.294   0.790 -0.0067  0.1100 -0.3172
  321MOL    H8245522   1.080   0.167   0.774 -1.5483  0.3889  1.4783
  321MOL    H8345523   1.263   0.130   0.589 -0.5320 -0.3440 -1.6222
  321MOL    H8445524   1.244   0.301   0.552  0.5286  0.9035  2.1141
  321MOL    H8545525   1.116   0.181   0.511 -0.2951  2.0282  0.2611
  321MOL    C8645526   1.178   0.344   0.915 -0.2037  0.2785 -0.9307
  321MOL    C8745527   1.231   0.245   1.033  0.6272 -0.0924  0.2756
  321MOL    O8845528   1.247   0.463   0.947  0.5441 -0.3002  0.1696
  321MOL    H8945529   1.071   0.339   0.933 -0.1882  1.8105 -0.3359
  321MOL    H9045530   1.191   0.145   1.015  0.3835  0.0871 -0.2050
  321MOL    H9145531   1.195   0.273   1.131  2.2722  0.1714  0.8222
  321MOL    H9245532   1.340   0.240   1.038  0.6767  0.3376 -0.2422
  321MOL    C9345533   1.208   0.569   0.864 -0.3978 -0.1600  0.1436
  321MOL    C9445534   1.136   0.672   0.950  0.2212 -0.3446 -0.0918
  321MOL    O9545535   1.324   0.633   0.815  0.4673  0.3649  0.4104
  321MOL    H9645536   1.148   0.542   0.776 -1.1672 -0.4809  0.7633
  321MOL    H9745537   1.203   0.714   1.026  0.9378 -0.9712 -0.3665
  321MOL    H9845538   1.042   0.635   0.991  0.2675  0.7514  1.0304
  321MOL    H9945539   1.113   0.756   0.885  0.1684 -0.1411  0.1895
  321MOL   C10045540   1.380   0.573   0.703  0.4637  0.8635 -0.0999
  321MOL   C10145541   1.352   0.664   0.582 -0.0907  0.9774 -0.2102
  321MOL   O10245542   1.516   0.556   0.726 -0.1198  0.1229  0.4570
  321MOL   H10345543   1.338   0.475   0.680  0.9996  0.7302 -0.5114
  321MOL   H10445544   1.407   0.626   0.496 -3.2391 -0.5690 -1.6187
  321MOL   H10545545   1.379   0.767   0.605 -0.2482  1.0295 -0.2583
  321MOL   H10645546   1.245   0.655   0.565  0.1493 -2.9948 -0.1774
  321MOL   C10745547   1.553   0.456   0.823 -0.5075  0.0338 -0.7964
  321MOL   C10845548   1.621   0.345   0.741  0.8938 -0.4988  0.1899
  321MOL   O10945549   1.640   0.496   0.924  0.1157 -0.0342 -0.3740
  321MOL   H11045550   1.467   0.405   0.868 -0.3139 -0.7236 -1.2942
  321MOL   H11145551   1.544   0.296   0.682 -0.8518  1.5531  0.6752
  321MOL   H11245552   1.661   0.285   0.823 -0.9902  0.5838  1.9639
  321MOL   H11345553   1.698   0.387   0.676  0.1983 -0.6374 -0.7365
  321MOL   C11445554   1.572   0.563   1.031 -0.2848  0.2235  0.3100
  321MOL   C11545555   1.589   0.464   1.147 -0.3992 -0.1747  0.0871
  321MOL   O11645556   1.632   0.682   1.082 -0.1534  0.1393 -0.0423
  321MOL   H11745557   1.464   0.576   1.021 -0.3636 -0.4635  0.2715
  321MOL   H11845558   1.541   0.497   1.239 -1.0995  0.6145 -0.5512
  321MOL   H11945559   1.693   0.441   1.167 -0.4905  1.7488  3.1125
  321MOL   H12045560   1.547   0.368   1.121  0.8370 -1.1182  1.4829
  321MOL   C12145561   1.628   0.795   0.990  0.4919  0.0920  0.1234
  321MOL   C12245562   1.550   0.912   1.055 -0.1190 -0.0664  0.8956
  321MOL   O12345563   1.750   0.834   0.951  0.1838 -0.0001 -0.1905
  321MOL   H12445564   1.570   0.764   0.903  1.9074  0.9366 -1.1438
  321MOL   H12545565   1.543   0.999   0.990 -1.9668 -0.9093 -0.0712
  321MOL   H12645566   1.585   0.945   1.153 -1.4694  0.2295  1.2909
  321MOL   H12745567   1.445   0.883   1.063  0.1147 -1.2103 -0.1635
  321MOL   C12845568   1.809   0.759   0.850  0.1739  0.1672  0.5757
  321MOL   C12945569   1.813   0.861   0.735  0.0572  0.6269  0.5709
  321MOL   O13045570   1.944   0.718   0.873  0.3058  0.3221 -0.7053
  321MOL   H13145571   1.751   0.674   0.814  1.2342  0.0172 -0.8529
  321MOL   H13245572   1.710   0.876   0.702  0.1683  1.0236  0.3998
  321MOL   H13345573   1.870   0.827   0.650  0.2856  0.7766  0.6644
  321MOL   H13445574   1.857   0.951   0.778  0.4466  1.0220 -0.6469
  321MOL   C13545575   1.956   0.592   0.938 -0.7301 -0.0166  1.4041
  321MOL   C13645576   2.101   0.569   0.949 -0.2823  0.4119 -0.6576
  321MOL   O13745577   1.908   0.586   1.068  0.1030 -0.1794 -0.0607
  321MOL   H13845578   1.902   0.517   0.881  2.3886  0.2377 -2.1196
  321MOL   H13945579   2.149   0.576   0.851  2.6070 -1.2663  0.5618
  321MOL   H14045580   2.127   0.472   0.992 -1.5095 -0.2001 -1.2882
  321MOL   H14145581   2.148   0.644   1.014  2.9873 -1.8571 -0.2993
  321MOL   H14245582   1.814   0.591   1.060  0.2801 -0.6202 -2.9126
  322MOL     C145583   4.328   1.779   1.219 -0.0003  0.0260  0.3986
  322MOL     C245584   4.367   1.724   1.082  0.1703  0.5491  0.0573
  322MOL     O345585   4.432   1.753   1.317  0.3969 -0.4191  0.3347
  322MOL     H445586   4.236   1.725   1.239 -1.2731  2.6179  1.9412
  322MOL     H545587   4.290   1.691   1.013  0.1078  0.6210  0.0928
  322MOL     H645588   4.437   1.642   1.098  0.2904  0.5136 -0.6635
  322MOL     H745589   4.428   1.801   1.035  0.4621  0.3570  0.1223
  322MOL     H845590   4.299   1.884   1.216  3.6407  1.0875  0.1549
  322MOL     C945591   4.404   1.788   1.449  0.4301  0.2644 -0.4726
  322MOL    C1045592   4.404   1.658   1.528  0.9687  0.7905 -0.7276
  322MOL    O1145593   4.503   1.866   1.501  0.1482  0.1889 -0.5594
  322MOL    H1245594   4.310   1.843   1.446 -0.8384 -1.7840  0.5837
  322MOL    H1345595   4.404   1.679   1.635  2.2778 -1.7511 -0.1861
  322MOL    H1445596   4.496   1.603   1.509  0.8488  0.4274 -0.2694
  322MOL    H1545597   4.320   1.594   1.504  0.4171  1.3489 -0.3061
  322MOL    C1645598   4.514   1.989   1.440 -0.7287 -0.9612 -0.1621
  322MOL    C1745599   4.474   2.089   1.543 -0.7840 -0.5405  0.1252
  322MOL    O1845600   4.645   2.016   1.409 -0.0646 -0.0332  0.5718
  322MOL    H1945601   4.455   1.999   1.349 -1.6976 -0.1322  0.5406
  322MOL    H2045602   4.372   2.062   1.571 -0.2685 -0.4215  2.1691
  322MOL    H2145603   4.473   2.184   1.489  0.7105 -1.1602 -1.0237
  322MOL    H2245604   4.535   2.095   1.633  3.0102  0.4595 -2.3817
  322MOL    C2345605   4.699   1.959   1.290  0.9530 -0.2438  0.1449
  322MOL    C2445606   4.715   2.082   1.196  0.1883  1.1159 -0.5645
  322MOL    O2545607   4.819   1.894   1.309 -0.1642  0.0503  0.1986
  322MOL    H2645608   4.622   1.894   1.249  0.7507  0.7200 -1.0543
  322MOL    H2745609   4.719   2.061   1.089 -0.6624 -0.1874 -0.3543
  322MOL    H2845610   4.801   2.135   1.236  0.9521 -0.9399  0.5449
  322MOL    H2945611   4.621   2.137   1.199  0.3391  1.3330  0.2016
  322MOL    C3045612   4.809   1.767   1.371  0.9790 -0.3309 -0.0726
  322MOL    C3145613   4.849   1.654   1.267 -0.7353  0.1390  0.3899
  322MOL    O3245614   4.919   1.759   1.460 -0.4544  0.9589 -0.5211
  322MOL    H3345615   4.708   1.746   1.406  1.2952 -2.1492 -0.2127
  322MOL    H3445616   4.940   1.677   1.212  0.1488 -0.5602  1.5414
  322MOL    H3545617   4.765   1.661   1.198  0.2451  1.0210 -0.7306
  322MOL    H3645618   4.856   1.561   1.323  1.5456  0.5114  0.7592
  322MOL    C3745619   4.893   1.821   1.576  0.1102 -0.2769 -0.0840
  322MOL    C3845620   4.841   1.725   1.692 -0.2822  0.0555  0.0844
  322MOL    O3945621   5.007   1.879   1.626  0.6754  0.1417  0.3574
  322MOL    H4045622   4.823   1.903   1.562 -0.2368 -0.1386  2.2581
  322MOL    H4145623   4.744   1.679   1.671  0.7452 -1.3967 -1.5952
  322MOL    H4245624   4.829   1.785   1.782  0.7071 -2.6216  2.0606
  322MOL    H4345625   4.910   1.645   1.718 -1.7162 -1.3355 -0.2456
  322MOL    C4445626   5.055   1.993   1.554  0.3833  0.0592  0.8213
  322MOL    C4545627   5.058   2.114   1.649 -0.5643  0.2054  0.2430
  322MOL    O4645628   5.188   1.979   1.515 -0.3823 -0.4040 -0.1550
  322MOL    H4745629   4.989   2.017   1.470  2.4324  1.8680 -0.3271
  322MOL    H4845630   4.960   2.137   1.689 -1.1056 -0.4864 -0.6618
  322MOL    H4945631   5.072   2.204   1.589 -0.2043 -0.1920 -0.2790
  322MOL    H5045632   5.125   2.093   1.732 -2.8515 -0.9651  1.8266
  322MOL    C5145633   5.217   1.928   1.385 -0.2628 -0.0756 -0.0409
  322MOL    C5245634   5.269   2.047   1.303  0.5648  0.7430  0.0032
  322MOL    O5345635   5.318   1.831   1.391 -0.5874 -0.4255 -0.0912
  322MOL    H5445636   5.130   1.883   1.338 -0.1238 -0.5214  0.1292
  322MOL    H5545637   5.184   2.113   1.286  0.2277 -0.3884 -2.8313
  322MOL    H5645638   5.300   2.016   1.204  1.7332  0.6705  0.3876
  322MOL    H5745639   5.346   2.089   1.369  0.2138 -0.4985  1.2293
  322MOL    C5845640   5.270   1.713   1.452  0.3118 -0.0317  1.2167
  322MOL    C5945641   5.259   1.609   1.343  0.4831 -0.5316  0.0303
  322MOL    O6045642   5.351   1.655   1.546  0.1304  0.4987  0.1662
  322MOL    H6145643   5.169   1.720   1.491 -0.4066 -2.4320 -0.1439
  322MOL    H6245644   5.174   1.631   1.279  0.3024  0.1661  0.4933
  322MOL    H6345645   5.251   1.507   1.381 -1.9001 -0.0572  0.9333
  322MOL    H6445646   5.355   1.599   1.292  0.7151  2.5377 -0.2389
  322MOL    C6545647   5.339   1.703   1.677  0.4870  0.7752 -0.1555
  322MOL    C6645648   5.293   1.596   1.774 -0.4466  0.6079  0.4676
  322MOL    O6745649   5.472   1.740   1.728 -0.5358 -0.0816  0.1757
  322MOL    H6845650   5.273   1.789   1.674  0.9653  1.1666  0.4511
  322MOL    H6945651   5.191   1.560   1.764 -0.6660  1.0355  1.1508
  322MOL    H7045652   5.281   1.642   1.872 -0.5399  1.1355  0.2109
  322MOL    H7145653   5.365   1.516   1.791  0.3631  1.5012  1.2937
  322MOL    C7245654   5.538   1.844   1.665  0.2850  0.3974  0.4140
  322MOL    C7345655   5.516   1.974   1.743  0.1689  0.3690  0.1894
  322MOL    O7445656   5.673   1.816   1.652  0.1344  0.3535  0.1122
  322MOL    H7545657   5.502   1.850   1.562 -0.9350  0.4135  0.8279
  322MOL    H7645658   5.547   1.954   1.845 -0.6790 -1.2980  0.1374
  322MOL    H7745659   5.412   1.999   1.763  0.0686  0.1120  0.0035
  322MOL    H7845660   5.572   2.055   1.697  1.4384 -1.3939 -1.4279
  322MOL    C7945661   5.695   1.719   1.553 -0.5045  0.0295 -0.0411
  322MOL    C8045662   5.744   1.785   1.427 -0.4985 -0.2808  0.2277
  322MOL    O8145663   5.791   1.618   1.587 -0.5321 -0.3245  0.8208
  322MOL    H8245664   5.606   1.660   1.532  0.0598 -0.6406 -0.6001
  322MOL    H8345665   5.669   1.854   1.387  0.1989  0.4259  0.1166
  322MOL    H8445666   5.764   1.714   1.347  2.4402 -0.1212  0.7521
  322MOL    H8545667   5.825   1.857   1.444  0.3843 -0.8319 -1.5548
  322MOL    C8645668   5.757   1.537   1.695 -0.3156  0.4981 -0.1609
  322MOL    C8745669   5.756   1.395   1.645 -0.4043 -0.3043 -0.8817
  322MOL    O8845670   5.852   1.535   1.801  0.1776 -0.3555 -0.1711
  322MOL    H8945671   5.655   1.552   1.729  0.3282 -0.1874  2.1181
  322MOL    H9045672   5.697   1.318   1.694  2.3546 -1.8999  0.0201
  322MOL    H9145673   5.859   1.362   1.635  0.0147  0.7548 -0.1742
  322MOL    H9245674   5.720   1.397   1.542 -0.0122  2.0304 -1.0138
  322MOL    C9345675   5.857   1.655   1.879 -0.8166  0.1912  0.4679
  322MOL    C9445676   5.761   1.638   1.994  0.1059  0.0914 -0.2917
  322MOL    O9545677   5.982   1.670   1.931  0.9088 -0.7486 -0.1308
  322MOL    H9645678   5.830   1.741   1.818  0.0573  0.5525  0.5833
  322MOL    H9745679   5.661   1.617   1.959  0.0915 -1.2688  0.5369
  322MOL    H9845680   5.767   1.734   2.046 -0.9130  0.7531 -1.3752
  322MOL    H9945681   5.788   1.549   2.051  0.0418  0.2578  0.0045
  322MOL   C10045682   6.078   1.720   1.839  1.1110 -0.0752  0.0581
  322MOL   C10145683   6.114   1.849   1.900 -0.4780 -0.5930  0.0370
  322MOL   O10245684   6.191   1.642   1.828  0.1126  0.6745  0.0363
  322MOL   H10345685   6.041   1.732   1.738 -1.1926 -1.2230  0.7285
  322MOL   H10445686   6.120   1.845   2.009  0.5582 -0.6828 -0.0152
  322MOL   H10545687   6.034   1.923   1.893  0.5916  0.7318  1.2830
  322MOL   H10645688   6.201   1.896   1.853  0.9695 -1.6646  1.5871
  322MOL   C10745689   6.171   1.534   1.746  0.1509  0.1552  0.2882
  322MOL   C10845690   6.221   1.576   1.602 -0.0205  0.8446  0.5697
  322MOL   O10945691   6.243   1.426   1.789  0.1514 -0.6885  0.1592
  322MOL   H11045692   6.073   1.489   1.731  0.3830 -0.0003 -0.8648
  322MOL   H11145693   6.323   1.615   1.603  0.3868 -0.2205  0.9367
  322MOL   H11245694   6.157   1.652   1.556  0.6702  1.8023  1.1544
  322MOL   H11345695   6.212   1.495   1.530  1.6916 -0.9519  2.3265
  322MOL   C11445696   6.185   1.369   1.905  0.9588  0.8176 -0.5336
  322MOL   C11545697   6.140   1.228   1.862  0.9344  0.0731 -0.5406
  322MOL   O11645698   6.275   1.346   2.010 -0.2807 -0.7961 -0.0162
  322MOL   H11745699   6.100   1.422   1.947  0.9394  1.3084 -1.1901
  322MOL   H11845700   6.075   1.232   1.775 -0.6496 -0.2047  0.6156
  322MOL   H11945701   6.090   1.184   1.949  0.4625 -1.5807 -1.6301
  322MOL   H12045702   6.232   1.173   1.843  1.0842 -0.2351  0.9827
  322MOL   C12145703   6.321   1.464   2.063 -0.2055 -0.0282  0.4995
  322MOL   C12245704   6.227   1.493   2.185 -0.1699  0.5351 -0.0467
  322MOL   O12345705   6.456   1.436   2.104 -0.4921  0.2191  0.5857
  322MOL   H12445706   6.329   1.542   1.988  0.2199 -0.9671 -0.4539
  322MOL   H12545707   6.124   1.495   2.149  0.7080 -1.3050 -2.8818
  322MOL   H12645708   6.259   1.590   2.221  1.0583  0.0727  0.1441
  322MOL   H12745709   6.228   1.411   2.256  0.7650  0.6173  0.0418
  322MOL   C12845710   6.553   1.426   2.001  0.7994 -0.2524  0.3638
  322MOL   C12945711   6.619   1.568   1.993 -0.0492  0.3975  0.3830
  322MOL   O13045712   6.657   1.346   2.041 -0.4772 -0.3951 -0.0562
  322MOL   H13145713   6.504   1.381   1.914  0.6215  2.6447 -1.1233
  322MOL   H13245714   6.631   1.612   2.092  1.0948  0.3013  0.2901
  322MOL   H13345715   6.551   1.630   1.934  0.5751  2.0218  1.3332
  322MOL   H13445716   6.714   1.563   1.939  0.5198  1.3004  1.2677
  322MOL   C13545717   6.625   1.214   2.042 -0.3497  0.2527  0.3405
  322MOL   C13645718   6.764   1.144   2.030  0.3646  0.0736  0.1221
  322MOL   O13745719   6.561   1.181   2.159 -0.7670 -0.2563  0.5282
  322MOL   H13845720   6.557   1.185   1.963 -0.3557  0.3376  0.3143
  322MOL   H13945721   6.837   1.182   2.100  0.9822 -1.5779  0.4028
  322MOL   H14045722   6.799   1.160   1.928  0.9241  0.0105  0.3036
  322MOL   H14145723   6.756   1.037   2.047  1.3775 -0.3182 -1.7593
  322MOL   H14245724   6.485   1.237   2.164 -1.9714 -1.7056 -0.8412
  323MOL     C145725   6.778   4.615   5.516 -0.2721 -0.3828 -0.6014
  323MOL     C245726   6.768   4.564   5.369 -0.2769 -0.6355  0.6480
  323MOL     O345727   6.857   4.733   5.525  0.1445  0.0252 -0.2513
  323MOL     H445728   6.818   4.536   5.580 -0.9404 -0.0425  0.2513
  323MOL     H545729   6.693   4.486   5.354  1.4138 -2.2827  0.5535
  323MOL     H645730   6.865   4.525   5.340 -1.4721 -1.9455 -1.7077
  323MOL     H745731   6.743   4.648   5.305 -0.4591 -0.2733  1.1904
  323MOL     H845732   6.674   4.635   5.542 -0.3002 -1.3608  0.0692
  323MOL     C945733   6.864   4.790   5.652  0.5144  0.0934 -0.0143
  323MOL    C1045734   6.988   4.893   5.646  0.3874  0.3225  0.4198
  323MOL    O1145735   6.741   4.853   5.690  0.1716  0.7604 -0.1375
  323MOL    H1245736   6.877   4.715   5.730  1.7344 -0.4670 -0.7523
  323MOL    H1345737   7.083   4.840   5.640 -0.6794 -1.4763 -1.1050
  323MOL    H1445738   7.000   4.935   5.746  2.6022 -3.4333  1.8646
  323MOL    H1545739   6.982   4.964   5.564 -0.2149 -0.2131 -0.0012
  323MOL    C1645740   6.692   4.954   5.614 -0.2813  0.4111  0.4406
  323MOL    C1745741   6.557   4.903   5.556  0.9996  0.0968 -0.0419
  323MOL    O1845742   6.657   5.064   5.696 -0.6044  0.1269 -0.0236
  323MOL    H1945743   6.762   4.986   5.536  0.5795 -0.6610  0.7498
  323MOL    H2045744   6.490   4.891   5.641 -0.1975  1.3978 -0.7663
  323MOL    H2145745   6.556   4.813   5.494 -1.5001 -0.4503  0.7287
  323MOL    H2245746   6.518   4.984   5.494  1.8058  0.7508  0.2989
  323MOL    C2345747   6.759   5.154   5.718  0.2824  0.1857 -0.6351
  323MOL    C2445748   6.794   5.230   5.583  0.1891  0.1919  0.8516
  323MOL    O2545749   6.714   5.245   5.807 -0.4592  0.0258  0.1072
  323MOL    H2645750   6.844   5.103   5.765 -0.5586 -0.2771  0.4032
  323MOL    H2745751   6.858   5.314   5.612  2.2503 -0.3520 -1.8293
  323MOL    H2845752   6.698   5.267   5.547  0.3949  0.0604  0.1513
  323MOL    H2945753   6.837   5.170   5.502 -0.3434  1.1086 -0.1272
  323MOL    C3045754   6.667   5.200   5.927 -0.5709  0.0423 -0.9639
  323MOL    C3145755   6.774   5.225   6.031 -0.1155  0.6899  0.3790
  323MOL    O3245756   6.563   5.284   5.964 -0.1144  0.4205 -0.5648
  323MOL    H3345757   6.644   5.093   5.924 -0.8451  0.1199 -1.8599
  323MOL    H3445758   6.737   5.205   6.132 -0.6795  1.9361  0.4396
  323MOL    H3545759   6.810   5.327   6.014  2.9383 -0.0420  2.1820
  323MOL    H3645760   6.861   5.168   5.997  0.0972  0.5210  1.2074
  323MOL    C3745761   6.436   5.256   5.912  0.1816  0.5927  0.5899
  323MOL    C3845762   6.345   5.212   6.017  0.1826 -0.0007 -0.8222
  323MOL    O3945763   6.381   5.372   5.863  0.2894  0.4329 -0.6256
  323MOL    H4045764   6.454   5.180   5.836  0.0875  1.8250 -0.6884
  323MOL    H4145765   6.336   5.278   6.102 -2.8229 -2.1527  0.6406
  323MOL    H4245766   6.385   5.118   6.055 -3.9931 -1.3676  0.4838
  323MOL    H4345767   6.247   5.192   5.973 -1.2017 -1.0328  2.5746
  323MOL    C4445768   6.406   5.390   5.733  0.0042 -0.4553 -0.4078
  323MOL    C4545769   6.284   5.349   5.657 -0.1530  0.6063 -0.3665
  323MOL    O4645770   6.420   5.526   5.715 -0.1401 -0.6257 -0.3253
  323MOL    H4745771   6.495   5.349   5.685  0.5924 -1.1488  1.2428
  323MOL    H4845772   6.292   5.240   5.649 -3.2856  0.4629 -2.9150
  323MOL    H4945773   6.280   5.382   5.553 -0.5490 -2.1893 -1.2847
  323MOL    H5045774   6.188   5.366   5.706 -0.8188  0.0608 -1.4430
  323MOL    C5145775   6.538   5.583   5.766 -0.4190  0.0617  0.0070
  323MOL    C5245776   6.625   5.611   5.648 -0.5543  0.1101 -0.4648
  323MOL    O5345777   6.527   5.703   5.832 -0.5655  0.2306  0.8283
  323MOL    H5445778   6.589   5.514   5.833 -0.5374  0.1950  0.2374
  323MOL    H5545779   6.711   5.668   5.681 -0.3020 -0.1854 -0.6129
  323MOL    H5645780   6.569   5.672   5.578  0.1061  0.6030 -0.5612
  323MOL    H5745781   6.658   5.517   5.605 -0.2324  0.1812 -0.3740
  323MOL    C5845782   6.499   5.692   5.966 -0.2242 -0.3550 -0.3102
  323MOL    C5945783   6.620   5.738   6.046 -0.4761 -0.2185 -0.5390
  323MOL    O6045784   6.401   5.786   5.986 -0.6491 -0.0982 -0.0112
  323MOL    H6145785   6.473   5.591   5.995  0.3356 -0.5938 -0.6120
  323MOL    H6245786   6.625   5.842   6.017  2.8085 -1.1730 -3.8239
  323MOL    H6345787   6.712   5.681   6.030 -0.7784 -1.6865  2.6046
  323MOL    H6445788   6.609   5.749   6.154  1.7474  0.5184 -0.3595
  323MOL    C6545789   6.270   5.742   5.971 -0.2592  0.0997 -0.1032
  323MOL    C6645790   6.201   5.755   6.109 -0.3104 -0.0839  0.5127
  323MOL    O6745791   6.205   5.839   5.891  0.3033 -0.0933  0.0463
  323MOL    H6845792   6.252   5.640   5.937 -0.7527 -0.3006  1.3156
  323MOL    H6945793   6.242   5.677   6.173 -0.7060 -0.4341  0.3412
  323MOL    H7045794   6.096   5.735   6.086 -0.5717 -0.0083  1.6440
  323MOL    H7145795   6.208   5.853   6.156 -0.1818 -0.4108  1.1781
  323MOL    C7245796   6.243   5.831   5.757 -0.2390 -0.6853 -0.6986
  323MOL    C7345797   6.120   5.780   5.688  0.3607  0.0421  0.3585
  323MOL    O7445798   6.262   5.950   5.700 -0.8397  0.3062  1.0417
  323MOL    H7545799   6.325   5.760   5.745 -0.2800 -0.9582  0.6365
  323MOL    H7645800   6.038   5.852   5.695 -1.9364 -2.4669  0.1079
  323MOL    H7745801   6.084   5.689   5.736 -2.1358 -0.9450 -3.2431
  323MOL    H7845802   6.149   5.755   5.586  2.8002 -0.0364  1.0451
  323MOL    C7945803   6.382   6.012   5.729  0.2648  0.0785  0.3597
  323MOL    C8045804   6.461   6.026   5.597  0.0624  0.5957 -0.4095
  323MOL    O8145805   6.359   6.143   5.775  0.9644  0.0308 -0.3103
  323MOL    H8245806   6.445   5.959   5.801  0.6062 -0.6700 -0.4826
  323MOL    H8345807   6.497   5.927   5.569  2.7953  0.7729  2.1405
  323MOL    H8445808   6.552   6.083   5.619  0.0574  0.8870 -1.1357
  323MOL    H8545809   6.395   6.063   5.518  0.1537  1.6092 -0.0151
  323MOL    C8645810   6.333   6.150   5.912 -0.0603 -0.4285 -0.0463
  323MOL    C8745811   6.453   6.211   5.994  0.5170  0.1662  0.1636
  323MOL    O8845812   6.227   6.227   5.942  0.0493 -0.1840 -0.4219
  323MOL    H8945813   6.313   6.049   5.949  1.1454 -0.6035  0.1322
  323MOL    H9045814   6.544   6.152   5.988 -0.1617 -1.2552  2.8897
  323MOL    H9145815   6.430   6.212   6.100 -0.2612 -1.3661  0.0249
  323MOL    H9245816   6.464   6.314   5.960 -2.6466  0.3490 -0.4530
  323MOL    C9345817   6.103   6.175   5.890  0.0089  0.4479  0.2007
  323MOL    C9445818   6.026   6.139   6.018  0.2442 -0.0904 -0.1223
  323MOL    O9545819   6.027   6.263   5.813  0.4923  0.0955 -0.3281
  323MOL    H9645820   6.110   6.084   5.831  2.2874  1.5606 -1.3075
  323MOL    H9745821   5.934   6.082   6.003 -0.0820  0.5864 -0.6909
  323MOL    H9845822   5.998   6.232   6.067 -2.3055 -0.0384 -1.6038
  323MOL    H9945823   6.090   6.077   6.082  1.6100  0.6701 -0.7315
  323MOL   C10045824   6.066   6.283   5.685  0.0827  0.7869  0.2175
  323MOL   C10145825   5.951   6.233   5.602 -0.0117  0.0400  0.1583
  323MOL   O10245826   6.086   6.412   5.651  0.2666 -0.2825  0.1274
  323MOL   H10345827   6.155   6.233   5.646  0.2030  1.2402 -0.0980
  323MOL   H10445828   5.977   6.274   5.504 -2.0478  2.5610  0.6114
  323MOL   H10545829   5.853   6.260   5.641  0.5852  1.0735  0.9511
  323MOL   H10645830   5.956   6.124   5.597 -0.1876 -0.0181  1.2583
  323MOL   C10745831   6.210   6.461   5.708  0.1248  0.2697  0.8123
  323MOL   C10845832   6.326   6.450   5.615  0.2599  0.0366  0.1267
  323MOL   O10945833   6.193   6.593   5.742 -0.0178 -0.0359  0.0254
  323MOL   H11045834   6.244   6.402   5.792 -0.4508 -1.0355  0.1390
  323MOL   H11145835   6.412   6.500   5.659  0.7991  1.1068 -2.0635
  323MOL   H11245836   6.301   6.511   5.528 -3.0493  1.3613  1.8999
  323MOL   H11345837   6.344   6.348   5.582 -1.2559 -0.6851  1.4944
  323MOL   C11445838   6.144   6.610   5.878 -0.4065 -0.1851  0.4660
  323MOL   C11545839   6.248   6.710   5.946  0.7205  0.4587 -0.0719
  323MOL   O11645840   6.021   6.678   5.867  0.1080 -0.0365  0.1190
  323MOL   H11745841   6.142   6.516   5.933  0.6625 -0.9932 -0.8422
  323MOL   H11845842   6.206   6.732   6.044  0.9204 -2.7841  0.7985
  323MOL   H11945843   6.265   6.799   5.887  0.6077  0.4421 -0.1289
  323MOL   H12045844   6.341   6.652   5.953 -0.1569 -1.0470 -0.6889
  323MOL   C12145845   5.909   6.602   5.881  0.3801 -0.1550 -0.2553
  323MOL   C12245846   5.868   6.619   6.024  0.1435  0.1591  0.4227
  323MOL   O12345847   5.810   6.645   5.799 -0.1209  0.5222  0.6228
  323MOL   H12445848   5.926   6.495   5.866 -1.0289 -0.3636 -0.5193
  323MOL   H12545849   5.836   6.723   6.032 -0.3947  0.0063  0.2640
  323MOL   H12645850   5.949   6.588   6.090  1.1910 -3.1952 -2.2359
  323MOL   H12745851   5.782   6.557   6.050 -0.4350  0.4095 -0.8429
  323MOL   C12845852   5.786   6.570   5.679 -0.2713 -0.0507  0.7400
  323MOL   C12945853   5.651   6.504   5.704 -0.5682 -0.4712  0.4136
  323MOL   O13045854   5.779   6.649   5.566  0.3873  0.0699  0.0278
  323MOL   H13145855   5.857   6.491   5.655 -0.0244  0.1828  0.7080
  323MOL   H13245856   5.571   6.575   5.728 -0.6609 -0.3540 -0.2168
  323MOL   H13345857   5.655   6.427   5.781  1.2507 -0.0026  0.8059
  323MOL   H13445858   5.618   6.470   5.606  1.4575 -0.6866 -0.1970
  323MOL   C13545859   5.909   6.693   5.522 -0.3751 -0.0471 -0.4610
  323MOL   C13645860   5.892   6.765   5.394 -0.2875 -0.0576  0.3366
  323MOL   O13745861   5.967   6.783   5.611  0.2439  0.8514 -0.8010
  323MOL   H13845862   5.974   6.606   5.514  0.5154  0.3278  2.2033
  323MOL   H13945863   5.990   6.798   5.361 -1.2293  2.5562  0.0680
  323MOL   H14045864   5.819   6.843   5.417 -1.4487 -1.0216  0.0064
  323MOL   H14145865   5.844   6.698   5.323  1.1752  0.1487 -0.8638
  323MOL   H14245866   5.980   6.741   5.694 -1.9303 -1.6136 -1.6413
  324MOL     C145867   0.361   4.356   4.514  0.2362  0.2580 -0.3687
  324MOL     C245868   0.432   4.490   4.489 -0.1831 -0.2890 -0.2249
  324MOL     O345869   0.332   4.328   4.650 -0.3785 -0.1496  0.4650
  324MOL     H445870   0.415   4.271   4.472 -1.5881 -0.4995 -1.2126
  324MOL     H545871   0.449   4.506   4.383 -1.6824 -0.6637 -0.5360
  324MOL     H645872   0.532   4.490   4.532 -0.2007  1.4461 -0.1511
  324MOL     H745873   0.380   4.581   4.521  1.1086  0.4425 -0.1847
  324MOL     H845874   0.269   4.357   4.457  0.7130 -2.3678 -1.2538
  324MOL     C945875   0.289   4.197   4.670 -0.3754  0.4400  0.4424
  324MOL    C1045876   0.414   4.118   4.704  0.6032  0.1660  0.0972
  324MOL    O1145877   0.201   4.186   4.785  0.2841 -0.0996  0.0020
  324MOL    H1245878   0.235   4.173   4.579 -1.6931  1.6861  0.8832
  324MOL    H1345879   0.401   4.010   4.699  2.0600  0.0117 -0.3520
  324MOL    H1445880   0.437   4.146   4.807 -2.3389 -2.6646  1.6061
  324MOL    H1545881   0.493   4.149   4.636  1.0197  0.5920  0.7617
  324MOL    C1645882   0.081   4.248   4.776  0.2648  1.0962  0.3844
  324MOL    C1745883   7.888   4.137   4.749 -0.9504  0.2063 -0.4302
  324MOL    O1845884   0.049   4.306   4.896 -0.9412  0.4951 -0.0096
  324MOL    H1945885   0.087   4.323   4.697 -0.9981  0.1986 -0.5703
  324MOL    H2045886   7.888   4.055   4.821  1.0667  1.0747  0.5989
  324MOL    H2145887   7.899   4.106   4.645  0.6892 -0.3126 -0.1178
  324MOL    H2245888   7.790   4.186   4.747 -1.5522 -0.9692 -0.1105
  324MOL    C2345889   0.129   4.417   4.926  0.7777 -0.2932 -0.2950
  324MOL    C2445890   0.019   4.523   4.955  0.6176  0.6711  0.5468
  324MOL    O2545891   0.196   4.415   5.050 -0.6014  0.7514  0.2885
  324MOL    H2645892   0.194   4.462   4.852  0.9825 -1.6856 -0.9734
  324MOL    H2745893   7.847   4.510   4.889  0.7671  2.6948 -0.0809
  324MOL    H2845894   0.061   4.623   4.949  0.4648  0.5964 -2.5261
  324MOL    H2945895   7.890   4.502   5.053 -0.9810  0.5518 -0.1630
  324MOL    C3045896   0.296   4.322   5.060 -0.2150 -0.6998 -0.3979
  324MOL    C3145897   0.412   4.404   5.111 -0.0410 -0.3348 -0.1700
  324MOL    O3245898   0.257   4.225   5.160 -0.5985  0.0868 -0.3470
  324MOL    H3345899   0.320   4.278   4.963  1.1498 -0.2972 -0.2460
  324MOL    H3445900   0.499   4.340   5.099  1.0533  1.0969 -0.0539
  324MOL    H3545901   0.395   4.426   5.217 -0.0978  1.4147 -0.5328
  324MOL    H3645902   0.420   4.502   5.065 -0.1205 -0.3847 -0.2891
  324MOL    C3745903   0.190   4.114   5.124  0.0449 -0.4296  0.3992
  324MOL    C3845904   0.288   3.997   5.136 -0.0673  0.4803 -0.4000
  324MOL    O3945905   0.085   4.091   5.215  0.5740  0.3187  0.1471
  324MOL    H4045906   0.152   4.130   5.023  2.9197  1.0241 -0.5097
  324MOL    H4145907   0.328   3.983   5.237  0.4193  2.3061 -0.3331
  324MOL    H4245908   0.361   4.012   5.056 -0.3983  0.1827 -0.7614
  324MOL    H4345909   0.229   3.908   5.114  0.6980 -0.6585  1.9121
  324MOL    C4445910   7.903   4.195   5.205  0.0738  0.2392 -0.1865
  324MOL    C4545911   7.773   4.130   5.152  0.0752 -0.9881  0.1091
  324MOL    O4645912   7.881   4.235   5.340  0.4006 -0.2214  0.0106
  324MOL    H4745913   0.010   4.285   5.147 -2.1155  1.4333  0.8429
  324MOL    H4845914   7.743   4.046   5.215 -1.3859 -0.6892 -0.1555
  324MOL    H4945915   7.791   4.084   5.054 -1.1037  0.4129 -0.7984
  324MOL    H5045916   7.699   4.210   5.146  2.7249  1.6277  0.9515
  324MOL    C5145917   0.049   4.344   5.386 -0.5273  0.1020  0.1821
  324MOL    C5245918   7.868   4.464   5.405 -0.0409 -0.2016 -0.0512
  324MOL    O5345919   0.098   4.323   5.515 -0.2235  0.2975 -0.1950
  324MOL    H5445920   0.128   4.368   5.314  0.4321 -0.2802  1.0979
  324MOL    H5545921   7.809   4.471   5.314 -0.9775 -0.2149  0.5464
  324MOL    H5645922   0.013   4.552   5.430  0.8830 -1.1550  1.2246
  324MOL    H5745923   7.801   4.431   5.484  2.4277 -1.4016  1.6221
  324MOL    C5845924   0.205   4.243   5.523  0.3399 -0.2823  0.0678
  324MOL    C5945925   0.308   4.320   5.601  0.0865  0.0605 -1.0351
  324MOL    O6045926   0.166   4.129   5.605  0.0854 -0.3909 -0.1978
  324MOL    H6145927   0.256   4.209   5.433  1.8601 -0.8316  1.1162
  324MOL    H6245928   0.262   4.347   5.696  1.6775 -3.9744  1.0379
  324MOL    H6345929   0.347   4.399   5.537 -1.7231  1.2200 -0.7529
  324MOL    H6445930   0.386   4.251   5.631 -0.1805  0.2046 -0.0041
  324MOL    C6545931   0.145   4.011   5.531  0.1567  1.1997  0.3605
  324MOL    C6645932   0.266   3.929   5.506  0.5533 -0.3097 -0.0763
  324MOL    O6745933   0.056   3.933   5.596 -0.5116 -0.9805 -0.4013
  324MOL    H6845934   0.081   4.029   5.445  1.8218  1.9740 -0.7238
  324MOL    H6945935   0.350   3.987   5.468  0.6393 -0.1138  0.4187
  324MOL    H7045936   0.243   3.847   5.437 -0.4974  0.7094 -0.9702
  324MOL    H7145937   0.310   3.889   5.597 -1.9175 -0.0225  1.2647
  324MOL    C7245938   7.849   3.992   5.623  0.3212 -0.1250  0.1819
  324MOL    C7345939   7.746   3.923   5.534 -0.1858  0.4165  0.0178
  324MOL    O7445940   7.818   3.955   5.751  0.3770  0.6151 -0.7349
  324MOL    H7545941   7.843   4.098   5.601 -2.3853 -0.3698 -0.4376
  324MOL    H7645942   7.790   3.907   5.435 -0.0610  2.5106 -0.2886
  324MOL    H7745943   7.649   3.970   5.520 -0.3436  0.3794  1.0180
  324MOL    H7845944   7.724   3.824   5.572 -1.6002  1.7150  2.7062
  324MOL    C7945945   7.900   4.019   5.844  0.4099  0.2713 -0.3510
  324MOL    C8045946   7.832   4.150   5.884 -0.6133 -0.2601 -0.1091
  324MOL    O8145947   7.903   3.940   5.957  0.1043 -0.3692 -0.1465
  324MOL    H8245948   0.084   4.046   5.806 -1.0552  3.1714 -2.1850
  324MOL    H8345949   7.742   4.125   5.942 -0.4740  3.3587  1.7791
  324MOL    H8445950   7.791   4.202   5.798  1.1825  0.9517 -0.2493
  324MOL    H8545951   7.891   4.219   5.944  0.3467 -0.7302 -0.5006
  324MOL    C8645952   0.070   3.829   5.952  0.3302 -0.0353  0.2678
  324MOL    C8745953   0.201   3.853   6.028  0.0281 -0.2915 -0.4020
  324MOL    O8845954   0.006   3.722   6.005  0.1919 -0.2396  0.0042
  324MOL    H8945955   0.096   3.801   5.850  1.7834 -0.4408  0.7445
  324MOL    H9045956   0.193   3.909   6.121 -1.1531  1.1731 -1.3520
  324MOL    H9145957   0.254   3.922   5.963 -1.6567  0.5312 -0.9536
  324MOL    H9245958   0.259   3.763   6.043 -0.1328  0.1926  3.7811
  324MOL    C9345959   7.805   3.673   5.942  0.2311 -0.2521 -0.1216
  324MOL    C9445960   7.843   3.582   5.831  0.5155  0.7018  0.2099
  324MOL    O9545961   7.732   3.594   6.034  0.0036 -0.7516 -0.1191
  324MOL    H9645962   7.739   3.751   5.905 -0.6597 -1.2791 -0.7244
  324MOL    H9745963   7.901   3.500   5.872  2.9024  1.6138 -1.3058
  324MOL    H9845964   7.894   3.638   5.754  0.5625 -0.6731 -0.7802
  324MOL    H9945965   7.757   3.530   5.788 -0.6616  0.2812  2.9487
  324MOL   C10045966   7.705   3.642   6.159 -0.1852  0.2954 -0.1984
  324MOL   C10145967   7.552   3.669   6.162  0.0999  0.0557 -0.2069
  324MOL   O10245968   7.744   3.562   6.261  0.0056  0.0458 -0.3105
  324MOL   H10345969   7.751   3.740   6.176  0.1777  0.1155 -0.1425
  324MOL   H10445970   7.516   3.679   6.264 -2.0706  0.7607 -1.0142
  324MOL   H10545971   7.507   3.583   6.113 -0.9829  1.6418 -2.0575
  324MOL   H10645972   7.533   3.760   6.104  0.8574  0.4713  0.1799
  324MOL   C10745973   7.883   3.521   6.264  0.0961 -0.9505 -0.2019
  324MOL   C10845974   0.027   3.585   6.392 -0.2245 -0.4871  0.1159
  324MOL   O10945975   7.888   3.388   6.275  0.3588 -0.2312 -0.1131
  324MOL   H11045976   0.025   3.559   6.179  0.5377  1.4383  1.1046
  324MOL   H11145977   0.133   3.563   6.386 -0.0039  0.0251  2.0631
  324MOL   H11245978   7.884   3.550   6.478  0.2583 -2.0954 -0.2101
  324MOL   H11345979   0.016   3.692   6.375  1.9283 -0.3292 -0.4573
  324MOL   C11445980   0.010   3.322   6.166  0.4328  0.4573 -0.0296
  324MOL   C11545981   0.161   3.285   6.184 -0.1094 -0.6818 -0.3629
  324MOL   O11645982   7.849   3.202   6.158  0.1876  0.6212 -0.2838
  324MOL   H11745983   7.913   3.381   6.075  0.7127  1.6167  0.6741
  324MOL   H11845984   0.194   3.248   6.087  0.9961  0.8367 -0.5850
  324MOL   H11945985   0.174   3.201   6.253 -1.2937  0.2460  1.0227
  324MOL   H12045986   0.214   3.368   6.229  2.0058 -2.2504  0.1155
  324MOL   C12145987   7.711   3.222   6.137  0.0574  0.4697 -0.0322
  324MOL   C12245988   7.680   3.169   5.998 -0.6181  0.0407  0.2551
  324MOL   O12345989   7.621   3.156   6.219 -0.4091  0.3303  0.0587
  324MOL   H12445990   7.685   3.327   6.150  1.8110  0.6914  1.9196
  324MOL   H12545991   7.713   3.067   5.979  0.9733  0.4129  0.8940
  324MOL   H12645992   7.736   3.233   5.929 -0.9576 -0.0710 -0.1303
  324MOL   H12745993   7.573   3.181   5.981 -0.2877 -0.9526 -2.7993
  324MOL   C12845994   7.605   3.222   6.349  0.9026  1.2112 -0.0660
  324MOL   C12945995   7.462   3.244   6.373  0.1141  0.4412 -0.2831
  324MOL   O13045996   7.647   3.130   6.444  0.7003  0.3217 -0.0339
  324MOL   H13145997   7.662   3.315   6.359  1.0260  1.2782 -1.3121
  324MOL   H13245998   7.413   3.149   6.350  2.3703 -0.7041 -0.4723
  324MOL   H13345999   7.420   3.323   6.310  0.5789  0.5862 -0.4110
  324MOL   H13446000   7.446   3.265   6.478 -0.3644 -0.4070 -0.1801
  324MOL   C13546001   7.784   3.105   6.453 -0.1344  0.2732 -0.1718
  324MOL   C13646002   7.801   3.043   6.600  0.3688  0.0018  0.0100
  324MOL   O13746003   7.833   3.018   6.352  0.3194 -0.1770  0.2693
  324MOL   H13846004   7.835   3.200   6.436 -2.4670  1.6295  0.2297
  324MOL   H13946005   7.906   3.020   6.614  0.5213  0.5725 -0.1646
  324MOL   H14046006   7.741   2.953   6.611  0.2346  0.1691  0.6378
  324MOL   H14146007   7.773   3.120   6.672 -1.8157 -0.3582 -0.4165
  324MOL   H14246008   7.825   3.069   6.273 -1.5378 -0.0310  0.5375
  325MOL     C146009   7.149   1.563   2.052  0.4459 -0.1456  0.6334
  325MOL     C246010   7.031   1.522   1.963  0.3355 -0.5473  0.0661
  325MOL     O346011   7.266   1.501   1.991  0.2990 -0.4681  0.0376
  325MOL     H446012   7.131   1.526   2.153 -0.1114 -1.2523  0.1368
  325MOL     H546013   7.008   1.417   1.980 -0.4045 -0.0762  2.1540
  325MOL     H646014   7.052   1.534   1.856 -2.0559  1.2687 -0.2508
  325MOL     H746015   6.943   1.584   1.980  0.5199  0.1153 -1.3152
  325MOL     H846016   7.152   1.672   2.045 -1.8672 -0.0873  0.2485
  325MOL     C946017   7.383   1.507   2.070  0.2163  0.1570  0.2904
  325MOL    C1046018   7.484   1.413   2.005  0.2804 -0.6518 -0.0544
  325MOL    O1146019   7.434   1.634   2.076  0.4103 -0.3464  0.3725
  325MOL    H1246020   7.350   1.462   2.164 -0.7704 -1.2564 -0.7056
  325MOL    H1346021   7.574   1.419   2.067 -0.4683  0.2424  0.9572
  325MOL    H1446022   7.516   1.437   1.903  3.5948  0.3467  1.1319
  325MOL    H1546023   7.443   1.312   1.997  1.2854 -1.1590  0.9257
  325MOL    C1646024   7.451   1.682   2.211 -0.1528 -0.0096 -0.4171
  325MOL    C1746025   7.547   1.794   2.206 -0.3462  0.1913  0.0658
  325MOL    O1846026   7.336   1.735   2.265 -0.1186 -0.2003 -0.2135
  325MOL    H1946027   7.505   1.603   2.262  0.1617 -0.0025 -0.7348
  325MOL    H2046028   7.501   1.873   2.146  1.9704  0.7753 -1.0096
  325MOL    H2146029   7.644   1.774   2.159 -0.2682  1.0384 -0.1422
  325MOL    H2246030   7.568   1.833   2.305  0.5161 -0.6603  0.2296
  325MOL    C2346031   7.308   1.679   2.393  0.3181  0.0826 -0.1171
  325MOL    C2446032   7.192   1.757   2.461 -0.6954 -0.3560 -0.0464
  325MOL    O2546033   7.266   1.547   2.381  0.1126 -1.1485  0.1511
  325MOL    H2646034   7.392   1.688   2.462  1.5446 -0.9273 -1.4586
  325MOL    H2746035   7.100   1.734   2.407 -0.8780  1.1817 -0.4086
  325MOL    H2846036   7.204   1.865   2.457  0.8489 -0.4757  0.7444
  325MOL    H2946037   7.169   1.726   2.563  1.7553  0.4191  0.7782
  325MOL    C3046038   7.317   1.458   2.476 -0.1503 -0.1861 -0.1288
  325MOL    C3146039   7.226   1.329   2.474 -0.0020  0.0459 -0.9892
  325MOL    O3246040   7.447   1.426   2.438  0.3494 -0.2988  0.0473
  325MOL    H3346041   7.316   1.490   2.580  0.9618  0.5312 -0.3307
  325MOL    H3446042   7.126   1.357   2.508  0.9279  0.6822  1.2962
  325MOL    H3546043   7.259   1.257   2.548  0.5698  0.5916 -0.7031
  325MOL    H3646044   7.214   1.273   2.381  2.4299 -0.6161 -0.9442
  325MOL    C3746045   7.524   1.405   2.550 -1.2310  0.2582 -0.2000
  325MOL    C3846046   7.661   1.364   2.492  0.2885  0.3810  0.7074
  325MOL    O3946047   7.541   1.532   2.620 -0.2361  0.3027  0.3647
  325MOL    H4046048   7.492   1.321   2.611 -0.8401 -0.1851 -0.5948
  325MOL    H4146049   7.722   1.312   2.565  0.6141 -2.1948 -1.2963
  325MOL    H4246050   7.709   1.456   2.460 -1.4067  0.4489 -1.7982
  325MOL    H4346051   7.644   1.294   2.410 -0.9471 -0.4556  1.6577
  325MOL    C4446052   7.590   1.508   2.751  0.1284 -0.2954  0.4642
  325MOL    C4546053   7.626   1.639   2.822 -0.3312  0.2564 -0.0079
  325MOL    O4646054   7.484   1.455   2.829  0.3801  0.4894 -0.5491
  325MOL    H4746055   7.679   1.445   2.744 -0.2932 -0.6992 -1.6813
  325MOL    H4846056   7.710   1.689   2.774 -2.0725  0.2704 -3.1927
  325MOL    H4946057   7.655   1.617   2.924 -1.6214  0.5639  0.4295
  325MOL    H5046058   7.539   1.705   2.820 -0.7318 -0.2523  0.5960
  325MOL    C5146059   7.540   1.361   2.914 -0.4211 -0.5496  0.2158
  325MOL    C5246060   7.425   1.330   3.003  0.9973  0.4201 -0.7969
  325MOL    O5346061   7.560   1.252   2.841  0.0961  0.1536 -0.5610
  325MOL    H5446062   7.627   1.402   2.965 -0.8156  2.0790 -1.1525
  325MOL    H5546063   7.341   1.286   2.949  0.5351  1.2684 -0.7855
  325MOL    H5646064   7.383   1.416   3.055  0.4599 -0.5065  0.3327
  325MOL    H5746065   7.468   1.274   3.086 -0.7465  1.1324  0.6383
  325MOL    C5846066   7.662   1.164   2.880 -0.1989 -0.6095  0.1741
  325MOL    C5946067   7.625   1.019   2.836  0.4675 -0.6896 -0.6202
  325MOL    O6046068   7.778   1.205   2.822 -0.0231  0.5646  0.0826
  325MOL    H6146069   7.654   1.156   2.989 -0.8422 -1.2702  0.0801
  325MOL    H6246070   7.528   0.987   2.872  1.3018 -0.8905  1.5114
  325MOL    H6346071   7.699   0.946   2.869  1.3635  0.2344 -0.5402
  325MOL    H6446072   7.609   1.017   2.728 -0.3287  1.9366 -0.5821
  325MOL    C6546073   7.884   1.233   2.909  0.5166  0.1164  0.1999
  325MOL    C6646074   0.105   1.253   2.829  0.3417 -0.3425 -0.1497
  325MOL    O6746075   7.862   1.354   2.970 -0.2816  0.3925 -0.2672
  325MOL    H6846076   7.891   1.143   2.970  0.6947 -0.2112 -0.2980
  325MOL    H6946077   0.084   1.302   2.734  1.2976 -2.0220 -1.2483
  325MOL    H7046078   0.149   1.158   2.801 -0.8290 -0.6539 -0.9757
  325MOL    H7146079   0.179   1.310   2.886 -0.6384  1.1179 -0.3126
  325MOL    C7246080   7.875   1.343   3.106  0.0857 -0.4757 -0.5672
  325MOL    C7346081   7.907   1.480   3.160 -0.7445  0.2310 -0.3022
  325MOL    O7446082   7.757   1.315   3.167  0.4896 -0.3377  0.0528
  325MOL    H7546083   0.042   1.275   3.132 -0.0737 -0.1585  0.7680
  325MOL    H7646084   7.906   1.478   3.269 -2.5806  1.0985 -0.2896
  325MOL    H7746085   7.840   1.552   3.112 -2.2892 -1.4292 -0.6805
  325MOL    H7846086   0.094   1.505   3.128 -1.8741  2.9006 -1.9402
  325MOL    C7946087   7.762   1.210   3.260 -0.3650  0.0886 -0.3684
  325MOL    C8046088   7.632   1.207   3.351  0.4981  0.3122 -0.0069
  325MOL    O8146089   7.765   1.085   3.186  0.0947  0.0890 -0.1579
  325MOL    H8246090   7.853   1.234   3.316  0.9839 -0.6758 -2.1886
  325MOL    H8346091   7.547   1.169   3.295  1.5549 -1.7406 -0.2676
  325MOL    H8446092   7.618   1.297   3.411 -0.2062 -0.9967  1.8760
  325MOL    H8546093   7.656   1.129   3.423 -1.3570 -1.5992 -1.4051
  325MOL    C8646094   7.859   0.997   3.248 -0.3160  0.3595 -0.3591
  325MOL    C8746095   7.829   0.853   3.207  0.1017  0.3997  0.6098
  325MOL    O8846096   0.080   1.023   3.206  0.3165  0.1936 -0.2325
  325MOL    H8946097   7.849   0.993   3.357 -2.0873 -0.2686 -0.5285
  325MOL    H9046098   7.884   0.842   3.114  1.9787  2.6794  1.4208
  325MOL    H9146099   7.724   0.853   3.176 -0.0489  2.1791  1.0694
  325MOL    H9246100   7.860   0.787   3.288 -2.7215  1.1200  2.3557
  325MOL    C9346101   0.164   1.061   3.308  0.9872  0.3750 -0.0692
  325MOL    C9446102   0.304   1.057   3.243 -0.1121  0.2342 -0.2417
  325MOL    O9546103   0.147   1.193   3.355 -0.3737 -0.0783 -0.3853
  325MOL    H9646104   0.159   0.989   3.390 -1.0358 -0.7913 -1.1777
  325MOL    H9746105   0.310   1.131   3.163  1.4658 -0.8607 -1.1569
  325MOL    H9846106   0.326   0.955   3.210 -3.5404 -0.8501  0.5908
  325MOL    H9946107   0.376   1.097   3.314  1.6437 -1.7492 -0.8462
  325MOL   C10046108   0.133   1.202   3.494  0.2101 -0.5962  0.0517
  325MOL   C10146109   0.166   1.350   3.534  0.6232 -0.1432  0.4417
  325MOL   O10246110   0.001   1.169   3.535  1.0971  0.5139 -0.4926
  325MOL   H10346111   0.202   1.129   3.537 -2.9784 -2.7825  1.6663
  325MOL   H10446112   0.109   1.420   3.471 -1.3891  0.0916  2.4419
  325MOL   H10546113   0.274   1.351   3.524  0.4253  0.8084 -1.8140
  325MOL   H10646114   0.137   1.372   3.637  0.6526 -0.0741  0.4350
  325MOL   C10746115   7.911   1.072   3.631 -0.9635 -0.8653  0.2045
  325MOL   C10846116   7.786   1.108   3.712 -0.0131  0.0642 -0.0471
  325MOL   O10946117   7.907   0.946   3.578 -0.0529  0.2861  0.3077
  325MOL   H11046118   0.083   1.076   3.697  0.3712  2.0063 -1.5761
  325MOL   H11146119   7.801   1.202   3.765 -1.3798 -0.0243  0.5133
  325MOL   H11246120   7.756   1.031   3.783  1.3067 -1.8917 -1.5553
  325MOL   H11346121   7.696   1.128   3.654 -0.3216  0.9879  0.7377
  325MOL   C11446122   0.069   0.848   3.645  0.6496  0.4358 -0.5007
  325MOL   C11546123   0.020   0.712   3.590  0.1338  0.9733 -0.1656
  325MOL   O11646124   0.200   0.870   3.611  0.4988 -0.3723 -0.8100
  325MOL   H11746125   0.045   0.850   3.752 -0.1372  1.6168 -0.6838
  325MOL   H11846126   7.836   0.685   3.631  0.6020  1.4999  1.3036
  325MOL   H11946127   0.087   0.634   3.626  0.2502  1.2515  0.2079
  325MOL   H12046128   0.025   0.711   3.481 -1.0873 -3.5027 -0.2847
  325MOL   C12146129   0.292   0.829   3.703 -0.3232 -0.2521 -0.5822
  325MOL   C12246130   0.419   0.856   3.624  1.3304  0.8814  0.0510
  325MOL   O12346131   0.287   0.920   3.808  0.3907  0.2738 -1.0515
  325MOL   H12446132   0.284   0.726   3.737 -2.6331 -0.0160 -0.3141
  325MOL   H12546133   0.496   0.808   3.685  2.7349  2.8981 -0.0987
  325MOL   H12646134   0.439   0.962   3.611  0.3408  1.1779  0.8307
  325MOL   H12746135   0.419   0.799   3.532  0.6438  0.2673  0.4249
  325MOL   C12846136   0.325   0.865   3.932 -0.6030 -0.3215  0.2303
  325MOL   C12946137   0.335   0.973   4.034  0.1694  0.0854 -0.5326
  325MOL   O13046138   0.229   0.778   3.973 -0.5495 -0.2941 -0.0586
  325MOL   H13146139   0.423   0.819   3.914  0.1120  0.4309  2.1320
  325MOL   H13246140   0.361   1.073   3.998  0.6658 -0.1215 -0.7510
  325MOL   H13346141   0.412   0.946   4.107 -1.3832 -0.3546  0.9574
  325MOL   H13446142   0.236   0.984   4.078 -0.6439  2.8492 -2.9206
  325MOL   C13546143   0.282   0.670   4.046  0.7903  0.0224  0.5610
  325MOL   C13646144   0.283   0.687   4.197  0.6406  1.0650  0.1438
  325MOL   O13746145   0.196   0.563   4.007 -0.3742  0.1633 -0.0621
  325MOL   H13846146   0.373   0.635   3.997 -0.2736 -0.8172 -0.8478
  325MOL   H13946147   0.284   0.592   4.250 -2.9734  1.2016  0.5228
  325MOL   H14046148   0.194   0.732   4.240 -1.9331 -0.4442 -3.3838
  325MOL   H14146149   0.373   0.742   4.227  0.9550  0.2005  0.8057
  325MOL   H14246150   0.106   0.565   4.035  0.0805 -0.3667  1.4950
  326MOL     C146151   5.824   0.624   4.333 -0.2000  0.2045 -0.4044
  326MOL     C246152   5.913   0.723   4.261 -0.0910  0.2088  0.5807
  326MOL     O346153   5.811   0.504   4.257 -0.2268  0.1304  0.0213
  326MOL     H446154   5.728   0.662   4.368  1.6348  1.2093  3.8829
  326MOL     H546155   5.907   0.813   4.322  0.0732 -0.1867  1.1855
  326MOL     H646156   5.863   0.749   4.168 -0.7971 -0.7161  0.6934
  326MOL     H746157   6.021   0.712   4.250  0.0115  1.3614  0.3556
  326MOL     H846158   5.877   0.589   4.422 -2.3605  2.2893  1.7681
  326MOL     C946159   5.756   0.395   4.326 -0.0757  0.7367 -0.8892
  326MOL    C1046160   5.619   0.368   4.266  0.1733 -0.3624 -0.3067
  326MOL    O1146161   5.828   0.280   4.300 -0.2237  0.2987  0.2860
  326MOL    H1246162   5.750   0.417   4.432 -1.3490 -1.7815 -0.4004
  326MOL    H1346163   5.576   0.277   4.307  2.1776 -0.9511  0.5656
  326MOL    H1446164   5.622   0.368   4.157  1.3720 -0.8277 -0.2841
  326MOL    H1546165   5.538   0.436   4.292  0.3272  0.0587 -0.9107
  326MOL    C1646166   5.950   0.275   4.363 -0.1003  0.4857 -0.4655
  326MOL    C1746167   5.928   0.181   4.487 -0.2945  0.0531 -0.1968
  326MOL    O1846168   6.041   0.219   4.277  0.4454  0.6168 -0.0883
  326MOL    H1946169   5.996   0.371   4.389 -3.4211  2.6664 -2.2122
  326MOL    H2046170   5.849   0.218   4.552  1.7848 -0.0683  2.4901
  326MOL    H2146171   6.017   0.171   4.549 -0.5654  2.6716  0.6911
  326MOL    H2246172   5.913   0.083   4.442  1.7945  0.3964 -1.6989
  326MOL    C2346173   6.068   0.297   4.157  0.2567 -0.3038  0.1773
  326MOL    C2446174   6.207   0.350   4.170 -0.9682 -0.5461  0.4911
  326MOL    O2546175   6.076   0.215   4.042 -0.2546  0.3594  0.3892
  326MOL    H2646176   5.996   0.378   4.143  0.0229 -0.5303  0.0632
  326MOL    H2746177   6.279   0.268   4.171  2.3717  2.2273  0.2549
  326MOL    H2846178   6.229   0.409   4.259  0.6282  1.2601 -1.0634
  326MOL    H2946179   6.229   0.406   4.079 -2.3733 -2.5346 -1.1022
  326MOL    C3046180   5.946   0.172   4.001  0.2641 -0.5029  0.3650
  326MOL    C3146181   5.872   0.284   3.921  0.8158  0.4643  0.1301
  326MOL    O3246182   5.948   0.063   3.914 -0.9354  0.2524 -0.2947
  326MOL    H3346183   5.893   0.133   4.088  0.8823  0.3410  1.1378
  326MOL    H3446184   5.860   0.373   3.983 -0.8398  0.3186  0.0373
  326MOL    H3546185   5.774   0.252   3.887  1.3001  1.2268 -2.0216
  326MOL    H3646186   5.935   0.297   3.833 -1.2238  0.3401 -1.3786
  326MOL    C3746187   6.003   7.864   3.969 -0.8709 -0.6337 -0.2060
  326MOL    C3846188   5.882   7.767   3.975  0.2151 -0.1024  0.3666
  326MOL    O3946189   6.098   7.805   3.884  0.0417 -0.6326 -0.0723
  326MOL    H4046190   6.048   7.874   4.068 -1.4190  0.5327 -0.0611
  326MOL    H4146191   5.900   7.674   4.029  0.4153 -0.1604  0.2001
  326MOL    H4246192   5.867   7.725   3.875 -2.3846  0.2921  0.5477
  326MOL    H4346193   5.791   7.818   4.007 -2.0677 -3.4024 -0.5642
  326MOL    C4446194   6.219   7.881   3.875 -0.3503  0.3502 -0.4914
  326MOL    C4546195   6.313   7.815   3.976 -0.1223 -0.2252 -0.2841
  326MOL    O4646196   6.276   7.873   3.752  0.2846  0.1657  0.2092
  326MOL    H4746197   6.211   0.074   3.894 -1.0198  0.2362 -0.1029
  326MOL    H4846198   6.262   7.793   4.069  1.0357 -1.4471  0.0859
  326MOL    H4946199   6.403   7.877   3.975 -0.8935  0.9175 -1.4394
  326MOL    H5046200   6.337   7.723   3.922 -0.2481  0.5151 -1.6249
  326MOL    C5146201   6.237   0.054   3.652  0.0145  0.0834 -0.2424
  326MOL    C5246202   6.369   0.126   3.615 -0.7695 -0.0004  0.2097
  326MOL    O5346203   6.191   7.894   3.542 -0.0406 -0.6910 -0.2879
  326MOL    H5446204   6.159   0.113   3.700 -0.8313  0.0959 -1.6417
  326MOL    H5546205   6.457   0.062   3.629 -1.3336 -0.3930  2.0911
  326MOL    H5646206   6.389   0.199   3.693 -1.4421 -2.1798  2.5004
  326MOL    H5746207   6.348   0.159   3.513 -1.8572 -3.5284 -0.7670
  326MOL    C5846208   6.051   7.862   3.547 -0.6023 -0.3321 -0.5062
  326MOL    C5946209   5.973   0.048   3.458 -0.6424  0.0927 -0.1757
  326MOL    O6046210   6.043   7.732   3.487  0.7492  0.0783 -1.0156
  326MOL    H6146211   6.002   7.868   3.643  1.4170  1.2986  0.4684
  326MOL    H6246212   5.991   0.148   3.497  3.2868 -1.0572  1.1892
  326MOL    H6346213   5.867   0.027   3.463 -0.9149  1.1772 -1.1663
  326MOL    H6446214   6.023   0.048   3.361 -0.1274  2.3505  0.0680
  326MOL    C6546215   6.086   7.629   3.578 -0.1714 -0.5724 -0.1479
  326MOL    C6646216   5.960   7.556   3.625 -0.0084  0.1749 -0.0650
  326MOL    O6746217   6.161   7.530   3.509 -0.0613 -0.2985  0.1083
  326MOL    H6846218   6.142   7.674   3.660 -0.2462  1.4404 -1.1641
  326MOL    H6946219   5.886   7.626   3.665 -0.1950  0.7869 -1.4660
  326MOL    H7046220   5.977   7.474   3.694  0.1286 -1.3670 -1.8990
  326MOL    H7146221   5.916   7.513   3.536  0.1056  0.5606 -0.3082
  326MOL    C7246222   6.290   7.563   3.473 -0.6322 -0.1726  0.2389
  326MOL    C7346223   6.377   7.470   3.557 -0.7758 -0.3142  0.3056
  326MOL    O7446224   6.319   7.525   3.340 -0.6569 -0.4900 -0.2274
  326MOL    H7546225   6.300   7.671   3.485  1.3166 -0.2978 -0.1742
  326MOL    H7646226   6.478   7.492   3.523 -1.1517 -0.6879 -1.1034
  326MOL    H7746227   6.350   7.366   3.540  0.5566 -0.5682 -0.2698
  326MOL    H7846228   6.365   7.491   3.663 -2.1222 -1.9217  0.4944
  326MOL    C7946229   6.262   7.617   3.244  0.2363 -0.8663  0.5701
  326MOL    C8046230   6.379   7.693   3.192 -0.1688 -0.1097 -0.5250
  326MOL    O8146231   6.207   7.546   3.141 -0.1180 -0.6377  0.1752
  326MOL    H8246232   6.192   7.685   3.292 -0.4679 -0.9585 -0.3232
  326MOL    H8346233   6.462   7.628   3.166 -0.6217 -1.4252  1.2256
  326MOL    H8446234   6.409   7.759   3.274  0.9311 -0.9658 -0.2285
  326MOL    H8546235   6.335   7.749   3.110  1.0276 -0.5543 -1.4665
  326MOL    C8646236   6.076   7.501   3.165 -0.2856  0.9255  0.1852
  326MOL    C8746237   5.986   7.598   3.083  1.2459  0.0371  0.6761
  326MOL    O8846238   6.059   7.369   3.120  0.4571  0.4538  0.7753
  326MOL    H8946239   6.050   7.508   3.271  1.8742 -0.9055  0.8852
  326MOL    H9046240   6.028   7.594   2.982  1.0740 -3.0323  0.6899
  326MOL    H9146241   5.997   7.701   3.117 -0.9911  0.6466 -0.3512
  326MOL    H9246242   5.880   7.576   3.092  0.9332  1.5246  0.8844
  326MOL    C9346243   6.075   7.274   3.217 -1.0943 -0.0949  0.3719
  326MOL    C9446244   5.941   7.205   3.235  0.3067  0.3302 -0.5456
  326MOL    O9546245   6.167   7.173   3.184 -0.4289  0.7194  0.1267
  326MOL    H9646246   6.111   7.316   3.311 -1.3864 -1.8010  1.2713
  326MOL    H9746247   5.870   7.285   3.256  1.5332  1.9422 -2.3801
  326MOL    H9846248   5.948   7.134   3.318 -1.4073  1.9570  1.0383
  326MOL    H9946249   5.899   7.159   3.145 -2.0785  0.8286  0.2863
  326MOL   C10046250   6.300   7.217   3.175 -0.0960  0.2945  0.2292
  326MOL   C10146251   6.380   7.139   3.282  0.1799  0.2126 -0.8830
  326MOL   O10246252   6.358   7.179   3.053  0.1919 -0.0865 -0.7629
  326MOL   H10346253   6.309   7.325   3.186  1.3992  0.7012 -3.9312
  326MOL   H10446254   6.485   7.166   3.272  0.3545  0.5901  1.5387
  326MOL   H10546255   6.373   7.033   3.257 -1.8770  0.8832 -3.3336
  326MOL   H10646256   6.328   7.154   3.377 -0.2253 -2.5566 -0.6286
  326MOL   C10746257   6.312   7.246   2.943  0.6045 -0.2707 -0.0791
  326MOL   C10846258   6.403   7.360   2.908  0.0017 -0.9250 -0.5700
  326MOL   O10946259   6.319   7.158   2.839 -0.1924  0.2770  0.2149
  326MOL   H11046260   6.212   7.285   2.959  0.6237  0.7668 -2.3933
  326MOL   H11146261   6.392   7.441   2.980  0.2867 -0.6528 -0.8276
  326MOL   H11246262   6.375   7.398   2.810  4.8146 -0.5417 -1.9499
  326MOL   H11346263   6.499   7.310   2.896  0.4617 -0.2496  0.2426
  326MOL   C11446264   6.222   7.056   2.846  0.2730 -1.2611  0.2723
  326MOL   C11546265   6.106   7.101   2.745 -0.8336  0.0133 -0.4496
  326MOL   O11646266   6.288   6.938   2.809 -0.7506 -0.1643 -0.5316
  326MOL   H11746267   6.187   7.043   2.949 -0.3199  0.3087  0.2759
  326MOL   H11846268   6.026   7.027   2.753 -0.5776 -0.3605 -1.3092
  326MOL   H11946269   6.148   7.098   2.645 -0.1019  2.2456 -0.2347
  326MOL   H12046270   6.064   7.195   2.780  0.3489 -0.3131  2.0059
  326MOL   C12146271   6.396   6.909   2.894  0.0646  0.0018 -0.0894
  326MOL   C12246272   6.352   6.809   3.002 -0.5526  0.6063  1.0991
  326MOL   O12346273   6.503   6.863   2.813  0.1938  0.4529 -0.3414
  326MOL   H12446274   6.439   6.998   2.941  1.5229 -0.4973 -0.4371
  326MOL   H12546275   6.284   6.858   3.072 -0.7583  1.3130  0.4231
  326MOL   H12646276   6.423   6.750   3.059 -0.1845 -1.0903 -1.0802
  326MOL   H12746277   6.283   6.741   2.951  0.3208  0.1243  0.5609
  326MOL   C12846278   6.567   6.957   2.742  0.1808  0.1139  1.1377
  326MOL   C12946279   6.707   6.990   2.809  0.5261  0.7903 -0.1182
  326MOL   O13046280   6.598   6.918   2.610 -0.0456  0.3266  0.0981
  326MOL   H13146281   6.507   7.048   2.732  1.2895  0.8339  0.9098
  326MOL   H13246282   6.692   7.043   2.903 -1.1205 -0.5607  0.4039
  326MOL   H13346283   6.767   7.058   2.748  0.7045  0.8099  0.0765
  326MOL   H13446284   6.760   6.896   2.826 -2.1940 -0.3565  2.2717
  326MOL   C13546285   6.482   6.888   2.532 -0.6821  0.1270  0.7353
  326MOL   C13646286   6.528   6.872   2.386 -0.6188  0.4505  0.0725
  326MOL   O13746287   6.420   6.770   2.575  0.2292  0.6842  0.5358
  326MOL   H13846288   6.406   6.965   2.527  0.2087  0.9552 -0.2115
  326MOL   H13946289   6.587   6.957   2.352  1.0275 -0.0377  1.5999
  326MOL   H14046290   6.432   6.870   2.335 -0.0486 -2.4268 -0.9933
  326MOL   H14146291   6.578   6.778   2.363  1.0506  1.9082 -2.4423
  326MOL   H14246292   6.417   6.783   2.669 -3.7357  0.1603  0.5976
  327MOL     C146293   5.874   1.362   7.465 -0.2624  0.2700  0.9669
  327MOL     C246294   5.968   1.255   7.506 -0.1885  0.7523  0.8713
  327MOL     O346295   5.823   1.361   7.333  0.1794  0.2374  0.2373
  327MOL     H446296   5.926   1.457   7.474  0.3967  0.1578 -1.2697
  327MOL     H546297   5.930   1.154   7.488  1.6630  0.2320 -0.2769
  327MOL     H646298   6.001   1.269   7.609 -1.9468  1.4809  1.3564
  327MOL     H746299   6.060   1.266   7.449  0.9806 -1.8204  2.1335
  327MOL     H846300   5.793   1.378   7.536 -1.6812 -0.2751 -0.4927
  327MOL     C946301   5.712   1.277   7.322 -0.5710  0.5706  0.5834
  327MOL    C1046302   5.582   1.353   7.324  0.3973 -0.7558  0.3616
  327MOL    O1146303   5.716   1.204   7.204 -0.2738 -0.3087 -0.0308
  327MOL    H1246304   5.711   1.200   7.399  4.4089 -0.3355 -0.0845
  327MOL    H1346305   5.570   1.421   7.239 -0.5818 -1.8281 -0.3761
  327MOL    H1446306   5.571   1.408   7.418 -1.6292 -2.6208  1.2717
  327MOL    H1546307   5.506   1.276   7.309  1.4223 -1.3802 -1.7970
  327MOL    C1646308   5.844   1.168   7.160 -0.1724  0.4110 -0.2392
  327MOL    C1746309   5.842   1.014   7.154 -0.4682  0.3521 -0.0413
  327MOL    O1846310   5.866   1.211   7.026  0.3021 -0.1865 -0.1896
  327MOL    H1946311   5.927   1.196   7.226 -0.9492  1.4311  0.3243
  327MOL    H2046312   5.738   0.984   7.146  0.0836 -1.3104 -1.2854
  327MOL    H2146313   5.880   0.969   7.246 -1.4391 -0.5528 -0.0663
  327MOL    H2246314   5.902   0.979   7.070  1.9216 -0.8902  2.1144
  327MOL    C2346315   5.858   1.350   6.995  0.3581  0.0343 -0.2814
  327MOL    C2446316   5.991   1.419   7.025 -0.1880 -0.1506 -0.8172
  327MOL    O2546317   5.830   1.370   6.859 -0.0150 -0.0674 -0.0717
  327MOL    H2646318   5.773   1.390   7.051  1.0697  1.3003 -0.1052
  327MOL    H2746319   6.004   1.440   7.131  3.2252  2.2358 -1.6313
  327MOL    H2846320   6.003   1.512   6.969  1.8465  1.1427  1.7081
  327MOL    H2946321   6.074   1.357   6.991  0.4324 -0.5414  1.3324
  327MOL    C3046322   5.712   1.310   6.819  0.3799  0.1240 -0.1101
  327MOL    C3146323   5.619   1.433   6.778 -0.0037  0.6144 -0.0018
  327MOL    O3246324   5.732   1.241   6.704  0.5258  0.5258 -0.2234
  327MOL    H3346325   5.672   1.244   6.896 -0.5148  0.1046 -0.5799
  327MOL    H3446326   5.536   1.400   6.716  2.6128 -0.2696 -3.1633
  327MOL    H3546327   5.675   1.510   6.725  0.9046  0.4625  0.7177
  327MOL    H3646328   5.569   1.475   6.866  1.2263 -1.9234  1.9862
  327MOL    C3746329   5.820   1.138   6.707 -0.4453 -0.1499 -1.0490
  327MOL    C3846330   5.743   1.009   6.713 -0.1862  0.3558 -0.9220
  327MOL    O3946331   5.906   1.137   6.598  0.6215 -0.8478  0.5579
  327MOL    H4046332   5.880   1.153   6.797 -1.2916  0.0838 -0.5254
  327MOL    H4146333   5.667   1.012   6.791  0.3512  0.5010 -0.4009
  327MOL    H4246334   5.804   0.922   6.738 -0.6268  0.7312  1.5684
  327MOL    H4346335   5.695   0.981   6.619  1.7127 -1.3872 -1.4176
  327MOL    C4446336   6.019   1.216   6.599 -0.2473 -0.0524  0.4850
  327MOL    C4546337   6.133   1.122   6.581  0.4791 -0.1517 -0.3244
  327MOL    O4646338   6.023   1.315   6.497  0.4457 -0.1127  0.1079
  327MOL    H4746339   6.025   1.268   6.695 -0.8846  1.0844 -0.0822
  327MOL    H4846340   6.232   1.163   6.600 -0.3865  1.4796  0.8109
  327MOL    H4946341   6.124   1.091   6.477  4.2736  1.3341 -1.1822
  327MOL    H5046342   6.124   1.037   6.649 -0.2139  0.0817 -0.1086
  327MOL    C5146343   5.947   1.433   6.513  0.2500 -0.3067  0.3722
  327MOL    C5246344   6.039   1.553   6.524 -0.7890  0.2064  0.4215
  327MOL    O5346345   5.876   1.449   6.400  0.1214 -0.7387 -0.0098
  327MOL    H5446346   5.880   1.441   6.598 -1.2637  0.8970 -0.9174
  327MOL    H5546347   5.983   1.646   6.526 -3.4596 -1.2802 -1.2091
  327MOL    H5646348   6.096   1.565   6.432  0.6709  0.3011  1.3280
  327MOL    H5746349   6.102   1.531   6.610 -1.0045  0.8028  0.7314
  327MOL    C5846350   5.735   1.417   6.397  0.7202 -0.5978 -0.4915
  327MOL    C5946351   5.657   1.558   6.376 -0.4265  0.0743 -0.0275
  327MOL    O6046352   5.699   1.331   6.292 -0.6097  0.4805 -0.3200
  327MOL    H6146353   5.708   1.378   6.495  0.5644  0.2554 -0.1931
  327MOL    H6246354   5.553   1.547   6.406 -0.1523 -1.2960  0.4271
  327MOL    H6346355   5.674   1.594   6.274  1.9474 -0.9487 -0.0177
  327MOL    H6446356   5.703   1.636   6.437  0.8731 -0.1878 -0.6473
  327MOL    C6546357   5.771   1.210   6.277  0.0750  0.0649  1.2897
  327MOL    C6646358   5.676   1.084   6.273 -0.1921  0.2429 -0.2140
  327MOL    O6746359   5.832   1.212   6.150 -0.5821 -0.1516  0.8640
  327MOL    H6846360   5.848   1.194   6.353  2.0359 -3.6910 -1.2947
  327MOL    H6946361   5.616   1.084   6.182 -0.1935 -1.5596 -0.2308
  327MOL    H7046362   5.608   1.086   6.358  0.3101 -1.5359  0.2560
  327MOL    H7146363   5.727   0.988   6.266 -0.5935  0.1084 -1.3986
  327MOL    C7246364   5.958   1.273   6.147  0.3095  0.2269  0.1831
  327MOL    C7346365   6.063   1.161   6.131  0.2439  0.8079  0.5065
  327MOL    O7446366   5.979   1.351   6.029  0.0149 -0.2556  0.4377
  327MOL    H7546367   5.969   1.339   6.233 -1.2172 -0.1460  0.6745
  327MOL    H7646368   6.161   1.207   6.115  2.7258 -4.1987  0.1773
  327MOL    H7746369   6.043   1.097   6.045 -1.7507  1.5113  0.4294
  327MOL    H7846370   6.066   1.112   6.228  1.2271  0.1804  0.1672
  327MOL    C7946371   5.893   1.464   6.036 -0.4952  0.5146 -0.2907
  327MOL    C8046372   5.985   1.589   6.063 -0.3146  0.6586  0.4368
  327MOL    O8146373   5.828   1.490   5.917  0.2648 -0.5658  0.0557
  327MOL    H8246374   5.822   1.470   6.118  0.0863  2.2065  0.1040
  327MOL    H8346375   6.067   1.552   6.125 -1.6388  0.2233  1.9492
  327MOL    H8446376   5.936   1.678   6.101 -1.2810  1.2727 -2.0990
  327MOL    H8546377   6.047   1.613   5.976  0.2368  1.6935  1.1088
  327MOL    C8646378   5.689   1.481   5.931  0.4073 -0.1382 -0.8607
  327MOL    C8746379   5.631   1.619   5.949  0.3644  0.1621  0.7066
  327MOL    O8846380   5.633   1.429   5.817 -0.3968  0.5344 -0.3971
  327MOL    H8946381   5.655   1.419   6.014 -1.3960  1.5811 -0.2696
  327MOL    H9046382   5.525   1.614   5.976  0.4085 -1.2581  0.6373
  327MOL    H9146383   5.646   1.686   5.864  2.1281 -2.7688 -1.3924
  327MOL    H9246384   5.676   1.663   6.038 -0.6555 -0.8870  1.7595
  327MOL    C9346385   5.663   1.290   5.798  0.6460 -0.9916 -0.3113
  327MOL    C9446386   5.530   1.219   5.779 -0.0119  0.6599  0.2630
  327MOL    O9546387   5.726   1.261   5.680  0.0821  0.6244 -0.2548
  327MOL    H9646388   5.713   1.252   5.887  0.0199  1.4563  1.1440
  327MOL    H9746389   5.546   1.111   5.784  0.6221  0.7853  1.0633
  327MOL    H9846390   5.485   1.240   5.682  0.6084  1.7448  0.2065
  327MOL    H9946391   5.451   1.246   5.849  0.3230  2.6643 -0.1193
  327MOL   C10046392   5.867   1.290   5.678 -0.4987  0.8447  0.4548
  327MOL   C10146393   5.937   1.155   5.657 -0.6276  0.1358  0.9866
  327MOL   O10246394   5.898   1.376   5.569 -0.4501  0.9106 -0.0737
  327MOL   H10346395   5.898   1.332   5.774 -1.0869 -0.5977  1.2809
  327MOL   H10446396   6.040   1.182   5.633 -0.9277  0.6699  0.3121
  327MOL   H10546397   5.884   1.101   5.578 -0.3598  0.3023  0.6940
  327MOL   H10646398   5.926   1.091   5.745 -0.4151 -1.3059 -0.0159
  327MOL   C10746399   5.879   1.514   5.585  0.4147 -0.5829  0.2336
  327MOL   C10846400   6.023   1.566   5.578  0.3242  0.6593 -0.1237
  327MOL   O10946401   5.809   1.561   5.477 -0.4217  0.2517 -0.1166
  327MOL   H11046402   5.833   1.552   5.676  1.2996  2.6080 -0.5853
  327MOL   H11146403   6.027   1.674   5.564 -0.0723  0.5437 -1.1780
  327MOL   H11246404   6.085   1.527   5.497  1.2272  1.0402  0.3886
  327MOL   H11346405   6.080   1.538   5.666  1.4581  1.0249 -0.7336
  327MOL   C11446406   5.670   1.525   5.478 -0.2611  0.0048 -0.0075
  327MOL   C11546407   5.581   1.648   5.511 -0.0246 -0.5821 -0.4698
  327MOL   O11646408   5.636   1.468   5.353 -0.2879  0.1877 -0.1967
  327MOL   H11746409   5.637   1.458   5.558  0.4589  0.5132  0.7265
  327MOL   H11846410   5.478   1.620   5.535 -0.0994  0.3230  0.3225
  327MOL   H11946411   5.565   1.723   5.434 -0.6869 -0.0604  0.1641
  327MOL   H12046412   5.616   1.691   5.605 -0.2937 -3.4581  1.0135
  327MOL   C12146413   5.664   1.330   5.340 -0.2582 -0.3062 -0.3504
  327MOL   C12246414   5.529   1.254   5.333 -0.0066  0.4482 -0.1260
  327MOL   O12346415   5.730   1.301   5.217  0.2705  0.3134  0.1098
  327MOL   H12446416   5.720   1.285   5.422  0.6604 -0.6920 -1.1762
  327MOL   H12546417   5.473   1.268   5.425  0.0897 -3.8086  0.6996
  327MOL   H12646418   5.539   1.145   5.330 -0.2219  0.4777 -3.9137
  327MOL   H12746419   5.473   1.279   5.243 -1.9236  0.0711  0.9452
  327MOL   C12846420   5.852   1.365   5.208  0.0688 -0.0865 -1.0610
  327MOL   C12946421   5.953   1.252   5.199 -0.1395 -0.1529 -0.0361
  327MOL   O13046422   5.860   1.457   5.103  0.3076  0.0440 -0.1667
  327MOL   H13146423   5.884   1.415   5.299  2.2690  0.5427 -2.1439
  327MOL   H13246424   5.905   1.157   5.176  0.7476 -0.4185 -0.8325
  327MOL   H13346425   5.986   1.241   5.302  2.6749 -1.4468 -1.0193
  327MOL   H13446426   6.037   1.265   5.132 -1.2694 -0.4990 -1.5594
  327MOL   C13546427   5.804   1.575   5.137  0.1377 -0.1003 -0.6328
  327MOL   C13646428   5.883   1.674   5.046  0.7185 -0.5913  0.2529
  327MOL   O13746429   5.670   1.580   5.112  0.2129 -0.4068 -0.3854
  327MOL   H13846430   5.821   1.602   5.241  0.3086 -2.0593 -0.1468
  327MOL   H13946431   5.988   1.680   5.074  0.6593  0.4267  0.2662
  327MOL   H14046432   5.835   1.772   5.042 -1.2237 -1.5880 -2.1480
  327MOL   H14146433   5.879   1.635   4.944 -1.8004 -0.1328  0.1241
  327MOL   H14246434   5.628   1.521   5.172  1.9251  0.4450  1.7251
  328MOL     C146435   1.972   0.672   6.948 -0.7701  0.7899  0.0000
  328MOL     C246436   2.026   0.713   7.088 -0.0821 -0.4114  0.3784
  328MOL     O346437   2.076   0.685   6.852  0.6353  0.7361 -0.4076
  328MOL     H446438   1.888   0.736   6.922  0.1393  1.6177 -0.9846
  328MOL     H546439   1.958   0.702   7.173  1.0078  0.2385  1.3526
  328MOL     H646440   2.060   0.817   7.081 -1.1307 -0.1364 -0.8308
  328MOL     H746441   2.108   0.646   7.114  0.1788 -1.3821 -2.7821
  328MOL     H846442   1.939   0.568   6.951  1.2323  0.1548  1.0821
  328MOL     C946443   2.057   0.612   6.745 -0.0497 -0.3499  0.4954
  328MOL    C1046444   1.997   0.704   6.644  0.8069 -0.7460  0.4087
  328MOL    O1146445   2.183   0.581   6.692 -0.2773  0.1965  0.2775
  328MOL    H1246446   1.994   0.523   6.752  2.2284 -2.0635 -0.1226
  328MOL    H1346447   2.059   0.790   6.620 -0.1832  0.3957  1.8726
  328MOL    H1446448   1.905   0.738   6.691 -0.5997 -3.2997 -0.3883
  328MOL    H1546449   1.957   0.652   6.557  3.7248 -0.6115 -1.0642
  328MOL    C1646450   2.245   0.478   6.763  0.0410  0.1551  0.1490
  328MOL    C1746451   2.184   0.335   6.726  0.2097  0.0045 -0.5800
  328MOL    O1846452   2.385   0.464   6.732 -0.5446 -0.4579  0.1919
  328MOL    H1946453   2.242   0.492   6.871 -0.1689  0.6675  0.0786
  328MOL    H2046454   2.262   0.262   6.747  0.9179  1.1566  0.8713
  328MOL    H2146455   2.167   0.324   6.619  0.0150  0.2942 -0.5808
  328MOL    H2246456   2.087   0.317   6.771  0.2276  0.6625 -0.2746
  328MOL    C2346457   2.468   0.575   6.763 -0.1942 -0.4177  0.1773
  328MOL    C2446458   2.491   0.576   6.921 -0.5644  0.2464 -0.1984
  328MOL    O2546459   2.589   0.562   6.705 -0.3597 -0.1793  0.3820
  328MOL    H2646460   2.428   0.671   6.733  3.5384  1.4665  0.9479
  328MOL    H2746461   2.532   0.476   6.941  0.5426  0.7064 -0.1411
  328MOL    H2846462   2.399   0.590   6.977 -0.1649 -1.4604  0.9188
  328MOL    H2946463   2.563   0.652   6.951  0.7379 -0.2779 -1.8912
  328MOL    C3046464   2.578   0.576   6.563  0.8264 -0.3613 -0.6618
  328MOL    C3146465   2.670   0.695   6.526  0.5241  0.2299 -0.7354
  328MOL    O3246466   2.636   0.467   6.497 -0.5282 -0.1187  0.7251
  328MOL    H3346467   2.478   0.585   6.521  0.5745 -2.2619 -0.5488
  328MOL    H3446468   2.654   0.781   6.591  2.6436  0.9845 -1.1640
  328MOL    H3546469   2.643   0.720   6.423 -1.4206  1.4080  0.0448
  328MOL    H3646470   2.773   0.664   6.543 -0.2113 -1.3811  0.9249
  328MOL    C3746471   2.553   0.355   6.478 -0.5910 -0.3803 -0.0847
  328MOL    C3846472   2.482   0.378   6.352 -0.5891 -0.7155  0.2132
  328MOL    O3946473   2.623   0.236   6.470 -0.5132 -0.5882 -0.8186
  328MOL    H4046474   2.476   0.348   6.555 -2.3616  1.6765 -1.6079
  328MOL    H4146475   2.425   0.471   6.352  1.9424  0.8560  0.1535
  328MOL    H4246476   2.419   0.292   6.328  1.0257 -1.6401 -0.7773
  328MOL    H4346477   2.544   0.396   6.265 -1.8551 -1.4379 -0.8540
  328MOL    C4446478   2.701   0.201   6.576  0.1302 -0.5281  0.0352
  328MOL    C4546479   2.671   0.052   6.606 -0.1143 -0.0785 -0.1688
  328MOL    O4646480   2.833   0.204   6.536 -0.2893 -0.1814 -0.2435
  328MOL    H4746481   2.671   0.247   6.671  0.2426 -1.1076  0.3546
  328MOL    H4846482   2.566   0.046   6.631 -0.0390 -0.5686  0.0369
  328MOL    H4946483   2.733   0.020   6.690  0.6687  2.1250  0.1329
  328MOL    H5046484   2.672   7.903   6.517 -0.3652 -1.0445  0.5086
  328MOL    C5146485   2.914   0.309   6.588 -0.4822 -0.0168 -1.0621
  328MOL    C5246486   2.980   0.262   6.713 -0.5826 -0.0445  0.5150
  328MOL    O5346487   3.012   0.342   6.494  0.0301  0.0252 -0.0583
  328MOL    H5446488   2.862   0.402   6.610 -3.2723 -1.6628 -0.4510
  328MOL    H5546489   3.014   0.344   6.775 -1.0928  0.2360  0.4286
  328MOL    H5646490   3.074   0.211   6.695 -1.0210 -0.3774 -0.8988
  328MOL    H5746491   2.911   0.192   6.761  2.1232 -1.7087  2.0659
  328MOL    C5846492   2.963   0.404   6.381  0.2978  0.0698  0.5994
  328MOL    C5946493   3.031   0.547   6.379  0.6325  0.2428 -0.0091
  328MOL    O6046494   3.007   0.346   6.263 -0.3842 -0.0156 -0.2473
  328MOL    H6146495   2.854   0.398   6.386  0.3767 -1.2374  1.0751
  328MOL    H6246496   3.030   0.589   6.479 -1.0259 -1.1211  0.5703
  328MOL    H6346497   2.987   0.614   6.305 -2.1536 -1.1543  0.3175
  328MOL    H6446498   3.139   0.536   6.364  0.4512  2.4466 -3.5581
  328MOL    C6546499   2.923   0.240   6.223  0.1928  0.6663  0.1185
  328MOL    C6646500   2.848   0.279   6.096  0.4406  0.5406 -0.0159
  328MOL    O6746501   3.002   0.129   6.195 -0.3702 -0.8582  0.5324
  328MOL    H6846502   2.840   0.215   6.288  1.5892  1.4087  2.2482
  328MOL    H6946503   2.921   0.284   6.014  1.4540 -0.6569  0.8078
  328MOL    H7046504   2.811   0.382   6.104 -0.9496  0.3905 -3.6314
  328MOL    H7146505   2.767   0.214   6.064  0.7535  1.0411 -1.8792
  328MOL    C7246506   3.026   0.056   6.308 -0.7671  0.0224  0.1643
  328MOL    C7346507   2.950   7.836   6.289 -0.4969 -0.3811 -0.7235
  328MOL    O7446508   3.162   0.016   6.310  0.0228  0.4088 -0.2115
  328MOL    H7546509   2.996   0.104   6.401 -0.8038  1.3226 -0.5107
  328MOL    H7646510   2.998   7.774   6.214  2.3396 -0.8497  1.4223
  328MOL    H7746511   2.843   7.841   6.267 -0.4385 -1.5780 -1.2726
  328MOL    H7846512   2.960   7.784   6.384  1.2034  1.7596  0.3414
  328MOL    C7946513   3.249   0.115   6.351 -0.3721 -1.1041  0.7034
  328MOL    C8046514   3.311   0.055   6.477 -0.5720  0.4261 -1.0792
  328MOL    O8146515   3.354   0.117   6.256 -0.2848 -0.6292 -0.1439
  328MOL    H8246516   3.198   0.207   6.379 -0.0585 -0.4073 -0.9480
  328MOL    H8346517   3.230   0.041   6.549  0.7585  0.3038  0.4309
  328MOL    H8446518   3.399   0.105   6.518 -0.9297  0.8498 -0.8207
  328MOL    H8546519   3.348   7.868   6.460 -0.0236  0.3482  0.4866
  328MOL    C8646520   3.329   0.203   6.154  0.0900 -0.6060  0.1062
  328MOL    C8746521   3.403   0.331   6.182 -0.6987  0.2850 -0.1072
  328MOL    O8846522   3.374   0.166   6.029  0.7984 -0.3710  0.5254
  328MOL    H8946523   3.222   0.219   6.149  0.2662  0.1309 -1.5964
  328MOL    H9046524   3.510   0.324   6.160 -0.2603  1.4592  1.5330
  328MOL    H9146525   3.370   0.365   6.280 -1.6645 -2.2695  0.4929
  328MOL    H9246526   3.371   0.402   6.105  1.3930 -0.1918 -1.4651
  328MOL    C9346527   3.304   0.061   5.981 -0.3259  0.7885 -0.3564
  328MOL    C9446528   3.212   0.101   5.862 -0.6783  0.3857  0.1415
  328MOL    O9546529   3.398   7.877   5.931 -0.2148  0.1827 -0.3229
  328MOL    H9646530   3.238   0.018   6.057 -1.4588 -0.5205 -2.0493
  328MOL    H9746531   3.269   0.179   5.811  1.4193 -1.6649 -0.7601
  328MOL    H9846532   3.118   0.142   5.900  0.2103  0.4111  2.4214
  328MOL    H9946533   3.195   0.018   5.794  1.7893  0.0908 -0.1748
  328MOL   C10046534   3.489   7.836   6.021 -0.5240  0.5635  0.2846
  328MOL   C10146535   3.439   7.696   6.079  0.0135 -0.1361  0.3802
  328MOL   O10246536   3.609   7.810   5.957  0.7298 -0.3217 -0.6240
  328MOL   H10346537   3.504   0.001   6.096  2.2859  3.1549 -2.8095
  328MOL   H10446538   3.338   7.705   6.117 -0.3308 -2.6890  0.1367
  328MOL   H10546539   3.507   7.677   6.162  0.3760 -0.2558  0.0592
  328MOL   H10646540   3.455   7.614   6.008 -0.3816  0.7611 -0.7666
  328MOL   C10746541   3.667   0.015   5.911 -0.6738 -0.0395 -0.2911
  328MOL   C10846542   3.758   0.083   6.021  0.1154 -0.3561 -0.0167
  328MOL   O10946543   3.744   7.904   5.798  0.1262  0.3522 -1.0669
  328MOL   H11046544   3.587   0.084   5.883 -0.5059  0.1783 -0.2398
  328MOL   H11146545   3.683   0.123   6.090 -0.2242  1.7290 -1.5207
  328MOL   H11246546   3.808   0.170   5.979 -1.9192  0.6676 -0.4033
  328MOL   H11346547   3.839   0.018   6.052  1.0401  1.3036  1.0636
  328MOL   C11446548   3.666   7.875   5.685 -0.3279 -0.0496 -0.0177
  328MOL   C11546549   3.683   0.079   5.582  0.1958  0.5985 -0.0120
  328MOL   O11646550   3.722   7.752   5.633  0.1313  0.0599 -0.8938
  328MOL   H11746551   3.558   7.871   5.700 -0.6363  2.4917 -1.3691
  328MOL   H11846552   3.642   0.169   5.627 -0.6946  0.3081 -0.2320
  328MOL   H11946553   3.624   0.066   5.492  0.6224  0.0090 -0.2142
  328MOL   H12046554   3.786   0.097   5.553  0.5633 -0.4293  0.5966
  328MOL   C12146555   3.654   7.636   5.665  0.8447 -0.4020 -0.0818
  328MOL   C12246556   3.564   7.593   5.549  0.3916  0.2194  0.5372
  328MOL   O12346557   3.736   7.530   5.695 -0.4047 -0.4022 -0.7953
  328MOL   H12446558   3.593   7.666   5.750 -1.2575 -0.1716 -1.6148
  328MOL   H12546559   3.536   7.689   5.505  2.9406  0.7925  0.0615
  328MOL   H12646560   3.471   7.549   5.586 -0.3123  0.3881 -1.0206
  328MOL   H12746561   3.619   7.531   5.478  0.8641  1.3004 -0.0494
  328MOL   C12846562   3.796   7.540   5.820  0.7390 -0.4054 -0.0028
  328MOL   C12946563   3.745   7.416   5.900  0.1450  0.6776 -0.5262
  328MOL   O13046564   3.934   7.540   5.820 -0.4116  0.3252  0.3370
  328MOL   H13146565   3.761   7.618   5.888  0.1975 -1.3036  0.7617
  328MOL   H13246566   3.640   7.435   5.923 -0.2325 -1.0778 -0.7142
  328MOL   H13346567   3.796   7.405   5.996 -1.4484 -0.1919  0.2431
  328MOL   H13446568   3.757   7.323   5.845 -0.5247  0.9821 -1.1974
  328MOL   C13546569   3.986   7.662   5.784  0.4659 -0.3299  1.1532
  328MOL   C13646570   4.122   7.686   5.843 -0.8024  0.4003 -0.3157
  328MOL   O13746571   3.998   7.680   5.640  0.2864  0.0331 -0.2458
  328MOL   H13846572   3.920   7.739   5.824  1.5836  0.1191  2.1609
  328MOL   H13946573   4.113   7.689   5.952 -1.7288  3.1332 -0.4165
  328MOL   H14046574   4.152   7.788   5.816 -0.6884  0.6481  0.7247
  328MOL   H14146575   4.202   7.620   5.811  0.0712  0.3681  1.8236
  328MOL   H14246576   3.909   7.703   5.617  0.0647 -0.9811 -0.4379
  329MOL     C146577   0.303   0.427   0.018  0.6856  0.0970  0.3469
  329MOL     C246578   0.359   0.332   0.125 -0.1702  0.1419 -0.5090
  329MOL     O346579   0.402   0.469   7.844  0.3075 -0.2385  0.0240
  329MOL     H446580   0.269   0.515   0.074 -0.4750 -0.0964 -0.0346
  329MOL     H546581   0.448   0.379   0.167 -0.5003  0.6446 -0.3593
  329MOL     H646582   0.402   0.248   0.071  1.8924  0.3270  0.7709
  329MOL     H746583   0.290   0.311   0.206 -0.7005  2.0536 -0.4399
  329MOL     H846584   0.216   0.382   7.884  0.9727  0.4349 -0.4918
  329MOL     C946585   0.489   0.576   7.883  0.5800  0.4731 -0.1973
  329MOL    C1046586   0.563   0.629   7.763  0.1043 -0.2737 -0.3077
  329MOL    O1146587   0.415   0.688   0.022  0.4608 -0.2942 -0.7789
  329MOL    H1246588   0.563   0.537   0.039  1.0466 -0.1008 -1.0032
  329MOL    H1346589   0.492   0.684   7.701  1.8268  1.0637 -1.1644
  329MOL    H1446590   0.604   0.547   7.704 -0.9700 -1.8978  1.1634
  329MOL    H1546591   0.637   0.704   7.794 -1.2287 -0.1305  2.7117
  329MOL    C1646592   0.466   0.738   0.142 -0.8490  0.0800  0.3668
  329MOL    C1746593   0.409   0.873   0.162  0.2091 -0.4189 -0.2744
  329MOL    O1846594   0.435   0.664   0.249 -0.4136 -0.0754 -0.0120
  329MOL    H1946595   0.570   0.747   0.109 -1.2723  1.7686 -0.6132
  329MOL    H2046596   0.301   0.870   0.180  0.4309 -0.1825  1.1549
  329MOL    H2146597   0.438   0.933   0.076 -0.0687 -0.4057 -0.3606
  329MOL    H2246598   0.449   0.910   0.256 -0.6905 -2.1890  0.8304
  329MOL    C2346599   0.531   0.674   0.350 -0.8947  0.2271 -0.1366
  329MOL    C2446600   0.476   0.587   0.465  0.5995  0.3329  0.4905
  329MOL    O2546601   0.653   0.617   0.312 -0.6546 -0.4117  0.3186
  329MOL    H2646602   0.548   0.776   0.384 -0.6846  0.5480 -1.2152
  329MOL    H2746603   0.371   0.608   0.481  0.5134 -1.3919  2.3440
  329MOL    H2846604   0.544   0.602   0.549  1.6868 -1.7246  0.0165
  329MOL    H2946605   0.481   0.484   0.432 -0.9857  0.3022  0.3099
  329MOL    C3046606   0.765   0.698   0.338 -0.3723 -0.1403  0.7729
  329MOL    C3146607   0.891   0.631   0.284  0.0464 -0.0119  0.1816
  329MOL    O3246608   0.752   0.814   0.252  0.1222 -0.0517 -0.4228
  329MOL    H3346609   0.776   0.714   0.446  0.6169  1.6243  0.4298
  329MOL    H3446610   0.983   0.684   0.309 -1.3490  2.8860 -0.5675
  329MOL    H3546611   0.879   0.625   0.176  1.2673 -1.7087  0.1171
  329MOL    H3646612   0.896   0.526   0.313 -0.3910 -0.1495 -0.2452
  329MOL    C3746613   0.785   0.934   0.309 -0.1795  0.0537  0.8942
  329MOL    C3846614   0.816   1.030   0.191 -0.1632  0.0397  0.3747
  329MOL    O3946615   0.687   0.994   0.386  0.1021 -0.5195 -0.4183
  329MOL    H4046616   0.869   0.915   0.376 -0.7908 -2.3241  1.0008
  329MOL    H4146617   0.882   0.979   0.121 -2.9402 -0.4294 -1.9943
  329MOL    H4246618   0.859   1.121   0.233  0.6855 -0.3182  0.2835
  329MOL    H4346619   0.719   1.050   0.144  0.7922 -0.8128 -2.0158
  329MOL    C4446620   0.723   1.028   0.516  0.0709 -1.0421  0.4420
  329MOL    C4546621   0.607   1.107   0.585  0.5321  0.4047  0.0376
  329MOL    O4646622   0.749   0.916   0.588 -0.4740 -0.6055  0.6130
  329MOL    H4746623   0.812   1.091   0.508 -1.3143  0.8254 -0.7926
  329MOL    H4846624   0.522   1.040   0.593  0.4726  0.4093 -0.5088
  329MOL    H4946625   0.569   1.182   0.515 -0.5788 -0.3343 -0.1680
  329MOL    H5046626   0.628   1.161   0.677 -1.0882 -1.0247  1.2570
  329MOL    C5146627   0.829   0.941   0.699 -0.4571  0.1594 -0.0847
  329MOL    C5246628   0.820   0.816   0.794 -0.4367  0.6606 -0.2055
  329MOL    O5346629   0.961   0.959   0.654 -0.6276 -0.3098  0.1030
  329MOL    H5446630   0.796   1.030   0.753  1.0802  1.1930 -0.8231
  329MOL    H5546631   0.717   0.795   0.820 -0.7813  1.3303 -1.0046
  329MOL    H5646632   0.871   0.829   0.889 -0.9421  1.9185 -0.0931
  329MOL    H5746633   0.865   0.729   0.747 -2.0288 -0.8703  1.0661
  329MOL    C5846634   1.039   1.047   0.731  0.4792 -1.1230  0.1967
  329MOL    C5946635   1.183   1.007   0.704  0.4051  0.0228 -0.1782
  329MOL    O6046636   1.019   1.184   0.692 -0.3390  0.0538 -0.4973
  329MOL    H6146637   1.012   1.011   0.830 -1.4274 -2.2998 -0.7324
  329MOL    H6246638   1.193   0.900   0.686  0.0417 -0.2843  1.3183
  329MOL    H6346639   1.251   1.026   0.788  1.3866  1.5071 -1.2855
  329MOL    H6446640   1.223   1.071   0.625  2.4764  1.2212  1.7659
  329MOL    C6546641   1.036   1.269   0.795  0.0718 -0.0590 -0.0840
  329MOL    C6646642   0.997   1.406   0.759  0.1112 -0.5398 -0.0321
  329MOL    O6746643   0.952   1.232   0.903 -0.0580  0.6779 -0.1482
  329MOL    H6846644   1.140   1.253   0.825 -0.1190  1.6583  1.5960
  329MOL    H6946645   1.029   1.475   0.837  1.1666 -1.9070  0.7672
  329MOL    H7046646   0.890   1.420   0.747 -0.2601 -2.8479  0.4876
  329MOL    H7146647   1.039   1.429   0.661 -1.6452  0.4057 -0.5896
  329MOL    C7246648   1.015   1.249   1.023 -0.9229  0.2618 -0.1288
  329MOL    C7346649   0.908   1.264   1.130 -0.2790  0.8822 -0.2798
  329MOL    O7446650   1.093   1.128   1.057  0.2112  0.0132 -0.2777
  329MOL    H7546651   1.073   1.341   1.021 -0.8623  0.2032 -1.5789
  329MOL    H7646652   0.949   1.243   1.228  2.4286  0.5573 -1.4361
  329MOL    H7746653   0.831   1.186   1.128  1.2175 -0.6302 -0.4661
  329MOL    H7846654   0.865   1.364   1.136 -0.3353  0.7979  0.8963
  329MOL    C7946655   1.206   1.168   1.129  0.3410  0.5488 -0.0109
  329MOL    C8046656   1.264   1.056   1.211 -0.0073 -0.2177 -0.4291
  329MOL    O8146657   1.306   1.218   1.045  0.1067 -0.1337  0.3237
  329MOL    H8246658   1.190   1.255   1.192 -0.4028  0.9749 -0.7680
  329MOL    H8346659   1.224   1.040   1.311 -1.5680 -1.3508 -1.2207
  329MOL    H8446660   1.372   1.063   1.226 -0.3896  1.1132  1.9857
  329MOL    H8546661   1.264   0.961   1.157  2.3011 -0.1352 -0.6314
  329MOL    C8646662   1.370   1.331   1.084  0.2302  0.7740  0.4022
  329MOL    C8746663   1.507   1.328   1.011 -0.5951  0.2694  0.1150
  329MOL    O8846664   1.302   1.437   1.026  0.0532 -0.3582  0.0674
  329MOL    H8946665   1.381   1.340   1.192  0.7450  0.1687  0.4054
  329MOL    H9046666   1.504   1.339   0.903 -0.1986  0.4564  0.1209
  329MOL    H9146667   1.562   1.239   1.041 -1.2344 -0.4369 -0.7893
  329MOL    H9246668   1.581   1.399   1.047  0.7484 -0.9385 -0.1917
  329MOL    C9346669   1.309   1.547   1.111 -0.8177 -0.2814  0.2223
  329MOL    C9446670   1.266   1.671   1.031  0.1216  0.8501  0.6778
  329MOL    O9546671   1.221   1.525   1.214  0.0273 -0.2514  0.1383
  329MOL    H9646672   1.415   1.552   1.136 -1.3602 -0.4679  2.6509
  329MOL    H9746673   1.331   1.691   0.946 -0.0350  0.6543  0.5136
  329MOL    H9846674   1.262   1.754   1.102 -2.8679 -0.3261  1.9706
  329MOL    H9946675   1.166   1.645   0.996  1.3928 -4.1071  0.3677
  329MOL   C10046676   1.270   1.566   1.342 -0.6001  0.3682 -0.0039
  329MOL   C10146677   1.138   1.563   1.426 -0.0885 -0.3540  0.2542
  329MOL   O10246678   1.359   1.478   1.409  0.0873  0.3762  0.7061
  329MOL   H10346679   1.311   1.667   1.344  1.3779 -0.3491 -2.0940
  329MOL   H10446680   1.166   1.573   1.531  1.8284  0.1025 -0.2709
  329MOL   H10546681   1.092   1.465   1.411 -2.6491  0.7623  0.5269
  329MOL   H10646682   1.074   1.642   1.386 -0.4167 -1.1704 -0.8655
  329MOL   C10746683   1.488   1.534   1.434 -0.3896 -0.3976 -0.5476
  329MOL   C10846684   1.566   1.438   1.525 -0.2858  0.0087 -0.1267
  329MOL   O10946685   1.561   1.538   1.316 -0.1737  0.0950 -0.4586
  329MOL   H11046686   1.473   1.637   1.467 -0.4734 -0.4015 -0.5720
  329MOL   H11146687   1.565   1.338   1.483  1.3794  0.9554 -2.5445
  329MOL   H11246688   1.529   1.442   1.628 -0.8604 -2.6697 -0.1874
  329MOL   H11346689   1.672   1.466   1.523  0.1063 -1.5279 -3.4649
  329MOL   C11446690   1.639   1.655   1.298  0.2731  0.1167 -0.0618
  329MOL   C11546691   1.728   1.632   1.183 -0.3956 -0.2334  0.0693
  329MOL   O11646692   1.561   1.764   1.269  0.7869  0.8084  0.0547
  329MOL   H11746693   1.693   1.673   1.391  0.6346  2.9352 -0.7447
  329MOL   H11846694   1.808   1.562   1.203  1.1124  1.8852  1.5975
  329MOL   H11946695   1.794   1.718   1.172  0.2247 -0.9059 -1.6148
  329MOL   H12046696   1.671   1.613   1.091 -0.1618 -0.4712 -0.0258
  329MOL   C12146697   1.628   1.887   1.289 -0.0536 -0.4578 -0.4810
  329MOL   C12246698   1.520   1.995   1.280  0.0909  0.6334 -0.4234
  329MOL   O12346699   1.686   1.899   1.419  0.0512  0.1653  0.4900
  329MOL   H12446700   1.692   1.911   1.204 -0.9234 -0.5102 -1.1533
  329MOL   H12546701   1.565   2.085   1.320 -2.0705  1.8855 -0.7290
  329MOL   H12646702   1.439   1.986   1.352 -0.4265 -3.1284 -1.3578
  329MOL   H12746703   1.505   2.023   1.175  1.5455  0.1471 -0.7693
  329MOL   C12846704   1.821   1.937   1.409 -0.0066 -0.6520 -0.3174
  329MOL   C12946705   1.885   1.938   1.554 -0.4862  0.0419  0.6139
  329MOL   O13046706   1.892   1.852   1.334  0.4842 -0.4401  0.1438
  329MOL   H13146707   1.827   2.037   1.366  3.4710 -0.2023  1.0349
  329MOL   H13246708   1.808   1.957   1.629 -0.0633  0.2784  0.9891
  329MOL   H13346709   1.955   2.020   1.563  1.7165 -1.4997 -1.9148
  329MOL   H13446710   1.934   1.843   1.575 -0.6919  0.2954  2.3679
  329MOL   C13546711   1.991   1.903   1.248 -0.3021  0.2295  0.0065
  329MOL   C13646712   2.089   1.786   1.229  0.0438  0.6161 -0.4919
  329MOL   O13746713   1.933   1.938   1.122 -0.7542  0.3597 -0.1879
  329MOL   H13846714   2.052   1.986   1.285  0.1764 -1.6570  3.6016
  329MOL   H13946715   2.137   1.765   1.325 -1.1680 -0.2134 -0.0540
  329MOL   H14046716   2.167   1.813   1.157  0.4773 -0.1949 -0.3331
  329MOL   H14146717   2.044   1.697   1.185  2.3421 -0.1923 -1.3168
  329MOL   H14246718   1.930   1.866   1.061 -0.8318  0.9313 -0.8769
  330MOL     C146719   1.967   2.672   5.166 -0.3744 -0.3315 -0.1338
  330MOL     C246720   2.051   2.584   5.079 -0.4671  0.5235  0.6467
  330MOL     O346721   1.859   2.716   5.080 -0.1942  0.6168 -0.1623
  330MOL     H446722   2.020   2.763   5.195  0.3600 -0.2269 -1.7580
  330MOL     H546723   2.119   2.522   5.138  0.3846 -0.8628 -1.7109
  330MOL     H646724   2.115   2.626   5.000 -2.3547 -2.0438 -2.3675
  330MOL     H746725   1.991   2.512   5.023  3.1408 -1.9712 -0.2111
  330MOL     H846726   1.918   2.620   5.248 -0.4685 -0.3608 -0.2081
  330MOL     C946727   1.739   2.750   5.145 -0.2133 -0.1842  0.4832
  330MOL    C1046728   1.646   2.814   5.033 -0.2527 -0.4151 -0.4923
  330MOL    O1146729   1.682   2.629   5.183 -0.1200  0.0826 -0.5889
  330MOL    H1246730   1.752   2.823   5.225  0.2329 -0.5519  0.7499
  330MOL    H1346731   1.700   2.902   4.996 -3.0327  2.0331  1.0741
  330MOL    H1446732   1.557   2.857   5.079  0.7406  0.3085  0.8308
  330MOL    H1546733   1.615   2.758   4.945 -0.5698 -0.6775 -0.2148
  330MOL    C1646734   1.610   2.641   5.301 -0.1100 -0.3321  0.0872
  330MOL    C1746735   1.539   2.501   5.332  0.8827  0.3040  0.0285
  330MOL    O1846736   1.697   2.679   5.408 -0.1205 -0.0207 -0.0088
  330MOL    H1946737   1.535   2.717   5.278  1.9295  0.6143 -3.7495
  330MOL    H2046738   1.488   2.470   5.241  0.9364 -1.3384  0.5420
  330MOL    H2146739   1.465   2.527   5.407  0.0569 -1.6688 -0.0668
  330MOL    H2246740   1.610   2.424   5.363  2.7400  1.6821 -0.7151
  330MOL    C2346741   1.625   2.748   5.507 -0.4044  0.0430 -0.1438
  330MOL    C2446742   1.718   2.794   5.616 -0.4411  0.3092 -0.3042
  330MOL    O2546743   1.568   2.868   5.449  0.0862  0.6585  0.5336
  330MOL    H2646744   1.556   2.682   5.558 -2.3014  2.7117  0.8532
  330MOL    H2746745   1.654   2.837   5.692 -1.0088 -0.5295 -0.2935
  330MOL    H2846746   1.785   2.875   5.585  0.3589 -0.5163 -0.7787
  330MOL    H2946747   1.786   2.714   5.646 -0.7398  0.6141  1.1858
  330MOL    C3046748   1.428   2.881   5.478  0.1661 -0.0393  0.2934
  330MOL    C3146749   1.360   2.977   5.379 -0.2420 -0.5586 -1.0274
  330MOL    O3246750   1.366   2.752   5.471  0.3768 -0.0890 -0.2114
  330MOL    H3346751   1.420   2.935   5.573 -0.7553 -0.1670  0.2942
  330MOL    H3446752   1.395   2.944   5.281 -0.3454  0.9782 -1.6068
  330MOL    H3546753   1.392   3.080   5.397  1.2390 -1.2365  0.3371
  330MOL    H3646754   1.252   2.975   5.389 -0.1675  2.3644  1.0504
  330MOL    C3746755   1.266   2.730   5.565 -0.4189  0.2455 -0.4781
  330MOL    C3846756   1.180   2.610   5.520 -0.7267  0.3575 -0.1941
  330MOL    O3946757   1.332   2.700   5.687  0.7361 -0.0013 -0.1800
  330MOL    H4046758   1.196   2.812   5.581 -0.4521 -0.0675  1.0396
  330MOL    H4146759   1.109   2.587   5.599 -0.4470 -0.4806 -0.1759
  330MOL    H4246760   1.243   2.520   5.521 -1.0205  0.1170 -1.8153
  330MOL    H4346761   1.137   2.636   5.424  0.2510 -0.1536 -0.7793
  330MOL    C4446762   1.279   2.760   5.802  0.3078 -1.3675 -0.1690
  330MOL    C4546763   1.357   2.703   5.919  0.3246  0.6002 -0.0785
  330MOL    O4646764   1.310   2.896   5.806 -0.2214  0.1868 -0.2698
  330MOL    H4746765   1.173   2.739   5.811  0.0902  0.3484  1.6084
  330MOL    H4846766   1.464   2.716   5.903 -0.0061  0.1343 -2.9668
  330MOL    H4946767   1.325   2.601   5.939 -0.5793  0.5173 -1.8182
  330MOL    H5046768   1.325   2.751   6.011  1.3754  1.9709 -0.4001
  330MOL    C5146769   1.200   2.977   5.825 -0.2348  0.7326 -0.0526
  330MOL    C5246770   1.245   3.101   5.909  0.7321 -0.0807 -0.2198
  330MOL    O5346771   1.145   3.011   5.707 -0.4572 -0.2085  0.0899
  330MOL    H5446772   1.132   2.921   5.890  1.2010 -1.4040 -0.3678
  330MOL    H5546773   1.165   3.174   5.919  0.8239 -0.0059 -0.0241
  330MOL    H5646774   1.329   3.151   5.862 -0.0370  1.5733  0.1269
  330MOL    H5746775   1.263   3.053   6.006 -0.5095  1.3220  0.7213
  330MOL    C5846776   1.011   3.003   5.691  0.2133 -0.1212 -0.5573
  330MOL    C5946777   0.980   3.067   5.560  0.1843 -0.3565 -0.1125
  330MOL    O6046778   0.987   2.865   5.675  0.1667  0.0753  0.0168
  330MOL    H6146779   0.966   3.040   5.783  0.1321 -0.6193 -0.3957
  330MOL    H6246780   1.062   3.053   5.490 -1.7528  1.9553 -2.9560
  330MOL    H6346781   0.970   3.175   5.569  0.6309 -0.2141 -1.2360
  330MOL    H6446782   0.888   3.020   5.523 -0.3873  1.7824 -1.4681
  330MOL    C6546783   0.888   2.817   5.766 -0.4627  0.6528 -0.2055
  330MOL    C6646784   0.839   2.678   5.709  0.4098 -0.2611  0.8207
  330MOL    O6746785   0.936   2.815   5.893 -0.1688 -0.3420 -0.6229
  330MOL    H6846786   0.804   2.886   5.768 -0.9312  0.1842 -2.3686
  330MOL    H6946787   0.732   2.667   5.726  0.2455 -0.4190 -0.2370
  330MOL    H7046788   0.883   2.585   5.746  0.7299 -0.5988 -0.3769
  330MOL    H7146789   0.851   2.673   5.600 -0.3109 -0.3022  0.7401
  330MOL    C7246790   0.837   2.798   5.988  0.2264  0.1130 -1.1812
  330MOL    C7346791   0.900   2.740   6.114  0.1535 -0.2686 -0.3838
  330MOL    O7446792   0.777   2.928   6.011 -0.4365  0.7336  0.3268
  330MOL    H7546793   0.765   2.728   5.946 -0.8787 -0.4800  1.6093
  330MOL    H7646794   0.966   2.812   6.163  0.4354 -0.6665 -0.1751
  330MOL    H7746795   0.960   2.654   6.082  0.5683 -0.1741  0.1417
  330MOL    H7846796   0.827   2.703   6.185  1.2765 -0.4273  0.7078
  330MOL    C7946797   0.666   2.930   6.089  0.0106  1.4295 -0.2009
  330MOL    C8046798   0.597   3.073   6.083 -0.4368  0.0929  0.1092
  330MOL    O8146799   0.566   2.838   6.040  0.0796 -0.5569 -0.2851
  330MOL    H8246800   0.687   2.906   6.194 -1.2432 -0.4778 -0.3627
  330MOL    H8346801   0.505   3.067   6.141  0.5225  2.5577  1.9843
  330MOL    H8446802   0.560   3.111   5.988  0.5022  1.0209  0.0940
  330MOL    H8546803   0.661   3.147   6.132 -1.4459  1.1362 -0.1337
  330MOL    C8646804   0.502   2.764   6.138 -0.1874 -0.3874  0.3143
  330MOL    C8746805   0.375   2.716   6.080 -0.6157  0.1623  0.3814
  330MOL    O8846806   0.585   2.661   6.184 -0.7029 -0.3434 -0.2642
  330MOL    H8946807   0.467   2.834   6.215 -1.5292 -2.2147  1.3996
  330MOL    H9046808   0.309   2.668   6.152  0.9279 -1.5125  0.7143
  330MOL    H9146809   0.404   2.648   5.999  0.7223  0.3926  0.6429
  330MOL    H9246810   0.311   2.788   6.030 -2.4250  1.1022  3.9433
  330MOL    C9346811   0.565   2.623   6.322  0.1795  0.7857 -0.0051
  330MOL    C9446812   0.593   2.476   6.343 -0.0513 -0.1733  0.4634
  330MOL    O9546813   0.661   2.698   6.389  0.0610  0.0776 -0.6049
  330MOL    H9646814   0.460   2.635   6.349 -0.9802 -1.1786 -3.2546
  330MOL    H9746815   0.612   2.446   6.446 -2.4749 -2.0666  0.4082
  330MOL    H9846816   0.682   2.466   6.281 -0.3068  0.1868  0.0357
  330MOL    H9946817   0.517   2.410   6.300 -0.4678  0.7553 -0.2546
  330MOL   C10046818   0.619   2.783   6.493 -0.0235 -0.0418  0.7751
  330MOL   C10146819   0.755   2.841   6.555  0.0771  0.0677 -0.4581
  330MOL   O10246820   0.552   2.888   6.433 -0.1902  0.2701 -0.2067
  330MOL   H10346821   0.563   2.722   6.563  0.7426 -1.9940 -0.2743
  330MOL   H10446822   0.814   2.754   6.583 -1.6397 -0.1754  2.7309
  330MOL   H10546823   0.734   2.901   6.644  1.4646  1.4590 -1.0397
  330MOL   H10646824   0.819   2.898   6.488 -1.3452  1.3923 -0.7479
  330MOL   C10746825   0.429   2.915   6.493 -0.1100  0.3321 -0.3509
  330MOL   C10846826   0.395   3.059   6.439 -0.3568  0.4830  0.3840
  330MOL   O10946827   0.337   2.818   6.453 -0.2361 -0.3606 -1.1005
  330MOL   H11046828   0.442   2.919   6.602 -0.0138  2.0873 -0.4058
  330MOL   H11146829   0.316   3.115   6.489 -0.4773 -2.1514  3.2827
  330MOL   H11246830   0.362   3.047   6.336  2.3753 -1.5938 -0.3051
  330MOL   H11346831   0.483   3.123   6.428  0.0645 -0.2430 -0.5876
  330MOL   C11446832   0.269   2.754   6.557  0.4664  0.1788  0.1835
  330MOL   C11546833   0.145   2.694   6.491  0.6529  0.1546  0.3781
  330MOL   O11646834   0.339   2.651   6.613 -0.0476  0.0406  0.5709
  330MOL   H11746835   0.235   2.837   6.618  1.4859  1.6473 -1.1889
  330MOL   H11846836   0.181   2.610   6.430  1.8159  0.2058  0.9748
  330MOL   H11946837   0.092   2.768   6.431 -0.8435 -0.8057  0.4921
  330MOL   H12046838   0.086   2.666   6.578  2.3383 -1.2496  1.0999
  330MOL   C12146839   0.351   2.667   6.751 -0.0016 -0.2344 -0.6049
  330MOL   C12246840   0.395   2.528   6.802  0.6109  0.7339  1.1275
  330MOL   O12346841   0.454   2.759   6.779 -0.1894  0.2365  0.2493
  330MOL   H12446842   0.254   2.694   6.792 -0.2023 -1.4877 -0.2564
  330MOL   H12546843   0.492   2.497   6.761 -0.1398  1.4691 -1.3084
  330MOL   H12646844   0.328   2.451   6.765  0.7378  0.9757  0.3864
  330MOL   H12746845   0.392   2.519   6.910  0.8721  1.6827  1.2160
  330MOL   C12846846   0.410   2.855   6.878 -0.6094  0.2419  0.0140
  330MOL   C12946847   0.538   2.877   6.950 -0.1557  0.7422 -0.1236
  330MOL   O13046848   0.350   2.963   6.809 -0.3069  0.2021  0.6931
  330MOL   H13146849   0.340   2.818   6.953 -1.0940  1.8115  0.3528
  330MOL   H13246850   0.624   2.904   6.887  1.1290 -0.7735  0.9379
  330MOL   H13346851   0.562   2.783   7.000  2.3749  1.9466  1.0350
  330MOL   H13446852   0.525   2.950   7.030  1.6166  0.7867  0.1647
  330MOL   C13546853   0.286   3.052   6.885 -0.0015 -0.2054 -0.4415
  330MOL   C13646854   0.321   3.197   6.838 -0.0928  0.7285  0.3038
  330MOL   O13746855   0.148   3.025   6.873 -0.0123  0.5403 -0.2934
  330MOL   H13846856   0.313   3.029   6.988 -1.6805 -0.2014  0.0144
  330MOL   H13946857   0.270   3.265   6.907  0.2456  0.8131  0.4723
  330MOL   H14046858   0.303   3.216   6.733  0.7935  4.4158  0.7637
  330MOL   H14146859   0.427   3.216   6.855  0.2574 -0.3985 -0.5624
  330MOL   H14246860   0.125   2.942   6.912 -0.4533  0.9688  0.3694
  331MOL     C146861   7.399   3.483   0.537  0.8841  0.6894  0.3773
  331MOL     C246862   7.279   3.389   0.530  0.2748 -0.2664 -0.2163
  331MOL     O346863   7.359   3.617   0.556 -0.5447 -0.0962 -0.3286
  331MOL     H446864   7.459   3.469   0.447  2.0413  0.3263  1.1934
  331MOL     H546865   7.213   3.417   0.448 -0.8841 -2.6884 -0.1785
  331MOL     H646866   7.222   3.403   0.622  2.5278  0.6077  1.0670
  331MOL     H746867   7.303   3.285   0.509 -1.4465 -0.7506  0.0758
  331MOL     H846868   7.454   3.459   0.628  0.5766  0.6942  0.5615
  331MOL     C946869   7.463   3.704   0.573 -0.5155 -0.2933 -0.1219
  331MOL    C1046870   7.506   3.775   0.436  0.2239  0.1558  0.2480
  331MOL    O1146871   7.420   3.810   0.651 -0.4302  0.7379 -0.1474
  331MOL    H1246872   7.550   3.662   0.624 -0.9167 -2.1299 -0.9011
  331MOL    H1346873   7.416   3.825   0.401 -0.0580 -1.1878 -1.0160
  331MOL    H1446874   7.539   3.697   0.367 -0.4749  1.3258 -1.4182
  331MOL    H1546875   7.591   3.842   0.446  1.3761 -0.9076 -1.9204
  331MOL    C1646876   7.375   3.779   0.777  0.3157  0.2831 -0.1668
  331MOL    C1746877   7.487   3.803   0.864  0.5421 -0.3157  0.7561
  331MOL    O1846878   7.282   3.870   0.815 -0.3093  0.3547 -0.2379
  331MOL    H1946879   7.344   3.675   0.789 -3.1714  1.2954 -0.0645
  331MOL    H2046880   7.453   3.795   0.967 -1.5123 -0.5401  0.0793
  331MOL    H2146881   7.524   3.906   0.859  0.2197 -0.2972 -1.5864
  331MOL    H2246882   7.567   3.730   0.851  0.0273 -0.7067 -0.1988
  331MOL    C2346883   7.163   3.857   0.737 -0.2443 -0.1379  0.3167
  331MOL    C2446884   7.042   3.831   0.834  0.5159  0.6867 -0.6089
  331MOL    O2546885   7.131   3.969   0.667  0.3844 -0.0558 -0.3518
  331MOL    H2646886   7.170   3.777   0.663  1.5163  1.7364 -1.6118
  331MOL    H2746887   6.949   3.827   0.778  0.2231 -2.7748  0.0059
  331MOL    H2846888   7.039   3.910   0.909 -3.1415  0.6334 -0.5835
  331MOL    H2946889   7.054   3.735   0.885  2.9296  1.5566  0.5339
  331MOL    C3046890   7.198   3.996   0.550  0.3144  0.3781 -0.6366
  331MOL    C3146891   7.094   3.980   0.441 -0.4817  0.6286  0.0395
  331MOL    O3246892   7.235   4.129   0.549  0.5865 -0.4017 -0.0128
  331MOL    H3346893   7.279   3.931   0.519  1.4224  1.9341 -1.0907
  331MOL    H3446894   7.138   4.021   0.349  0.2809  1.1506  0.6307
  331MOL    H3546895   7.003   4.030   0.476 -0.3406  0.4359  0.6741
  331MOL    H3646896   7.075   3.874   0.425  0.8774  0.3010  0.5602
  331MOL    C3746897   7.343   4.162   0.632 -0.5250 -0.2081 -0.3023
  331MOL    C3846898   7.456   4.197   0.536 -0.5513  0.2500  0.2881
  331MOL    O3946899   7.313   4.278   0.706  0.2462 -0.2827 -0.3975
  331MOL    H4046900   7.374   4.082   0.699  0.1429  0.1546 -0.1710
  331MOL    H4146901   7.552   4.203   0.588 -1.2550  0.7711  1.5600
  331MOL    H4246902   7.427   4.289   0.486  0.5166  0.2598 -0.3437
  331MOL    H4346903   7.475   4.121   0.461 -1.2734 -0.4270  0.7814
  331MOL    C4446904   7.227   4.249   0.810 -0.0778  0.1494  0.2488
  331MOL    C4546905   7.296   4.211   0.937 -0.1881  0.8030 -0.6615
  331MOL    O4646906   7.150   4.365   0.835  0.1804 -0.0930  0.1243
  331MOL    H4746907   7.156   4.169   0.789 -0.7237  0.7535  0.1043
  331MOL    H4846908   7.347   4.291   0.992 -1.0863  0.6245  0.4581
  331MOL    H4946909   7.365   4.129   0.920 -0.0373  1.0255 -1.1283
  331MOL    H5046910   7.222   4.186   1.013  0.2554  1.7373  0.0932
  331MOL    C5146911   7.057   4.384   0.732  0.8436 -0.1087 -0.6567
  331MOL    C5246912   6.933   4.299   0.752 -0.6453 -0.3643  0.1033
  331MOL    O5346913   7.013   4.514   0.733 -0.1981 -0.4615  0.0225
  331MOL    H5446914   7.106   4.363   0.636  0.6912 -0.1836 -0.7183
  331MOL    H5546915   6.883   4.329   0.844 -1.1358 -2.1726  0.4491
  331MOL    H5646916   6.950   4.192   0.760 -0.5303 -0.1922  2.2019
  331MOL    H5746917   6.875   4.311   0.660  0.7831 -1.0199 -0.9173
  331MOL    C5846918   7.108   4.605   0.692  0.3208  0.4276 -0.2856
  331MOL    C5946919   7.067   4.653   0.550 -0.1906  0.2544 -0.3127
  331MOL    O6046920   7.100   4.703   0.784  0.0812 -0.2539  0.4118
  331MOL    H6146921   7.207   4.562   0.678 -0.0924 -0.3778 -0.8245
  331MOL    H6246922   6.969   4.697   0.569  1.0803  1.4756  3.8943
  331MOL    H6346923   7.066   4.583   0.466  2.4024  0.8097 -0.8638
  331MOL    H6446924   7.132   4.730   0.508 -0.3777 -0.9748 -2.9719
  331MOL    C6546925   7.191   4.683   0.889 -0.0825  0.6583 -0.2459
  331MOL    C6646926   7.309   4.787   0.879 -0.4822 -0.2462 -0.1589
  331MOL    O6746927   7.129   4.717   1.014  0.0941 -0.1681 -0.7526
  331MOL    H6846928   7.233   4.582   0.891  3.0064  1.8966 -0.7059
  331MOL    H6946929   7.373   4.778   0.967 -2.1563 -0.6020  1.0470
  331MOL    H7046930   7.268   4.888   0.877  1.1835  0.4633  1.2912
  331MOL    H7146931   7.367   4.767   0.789 -0.9749 -0.2019 -0.4906
  331MOL    C7246932   7.048   4.613   1.071 -0.2601  0.2360 -0.1818
  331MOL    C7346933   7.136   4.536   1.171 -0.2558 -0.4210  0.0945
  331MOL    O7446934   6.950   4.677   1.142 -0.2060 -0.2739 -0.5469
  331MOL    H7546935   7.017   4.539   0.997 -0.0532 -1.5550  1.4751
  331MOL    H7646936   7.156   4.603   1.255  2.4242 -0.3124 -0.5861
  331MOL    H7746937   7.230   4.506   1.125 -0.1303  0.4767 -0.2485
  331MOL    H7846938   7.090   4.446   1.213 -0.0997 -0.0071  1.1781
  331MOL    C7946939   6.858   4.735   1.056  0.2636 -0.1923  0.0397
  331MOL    C8046940   6.727   4.646   1.071  0.2410  1.0229 -0.0791
  331MOL    O8146941   6.824   4.855   1.092  0.1472 -0.0806  0.4227
  331MOL    H8246942   6.893   4.742   0.954 -0.9237 -3.1956 -0.6384
  331MOL    H8346943   6.762   4.543   1.077 -1.7776  0.3563  0.6250
  331MOL    H8446944   6.667   4.678   0.985 -0.3521 -1.9785 -0.8378
  331MOL    H8546945   6.672   4.674   1.160 -0.1762  1.4046 -0.4505
  331MOL    C8646946   6.912   4.955   1.059  0.0718 -0.7664  1.1426
  331MOL    C8746947   6.867   5.021   0.929  0.1059  0.5198  0.4507
  331MOL    O8846948   6.905   5.046   1.160 -0.0056 -0.4571  0.2457
  331MOL    H8946949   7.015   4.920   1.056 -0.1541 -1.4332  1.0532
  331MOL    H9046950   6.855   4.950   0.847  1.7020  1.0167 -0.2219
  331MOL    H9146951   6.951   5.081   0.895  2.0152 -1.1657  2.0476
  331MOL    H9246952   6.774   5.077   0.938 -1.9383 -2.5168 -0.7142
  331MOL    C9346953   6.981   5.026   1.270  0.5671 -0.4422 -0.4971
  331MOL    C9446954   7.099   5.114   1.257 -0.8642 -0.4128  0.6881
  331MOL    O9546955   6.915   5.068   1.385 -0.7492 -0.3399 -0.1468
  331MOL    H9646956   7.011   4.921   1.281  4.3067  0.5825 -0.0229
  331MOL    H9746957   7.154   5.066   1.176 -1.0056 -0.6327  0.7207
  331MOL    H9846958   7.160   5.120   1.348 -0.5610  1.1063  0.3969
  331MOL    H9946959   7.081   5.216   1.225  0.0610 -0.6236 -0.5687
  331MOL   C10046960   6.801   4.989   1.424 -0.2420  0.2940 -0.0414
  331MOL   C10146961   6.839   4.910   1.537  0.0628  0.2109  0.2676
  331MOL   O10246962   6.692   5.067   1.463  0.0730 -0.2895 -0.2220
  331MOL   H10346963   6.776   4.938   1.331 -0.1342  1.3094 -0.6337
  331MOL   H10446964   6.754   4.851   1.572  0.1470 -0.0745 -0.0124
  331MOL   H10546965   6.867   4.969   1.624  0.3642  0.7080 -0.1583
  331MOL   H10646966   6.920   4.845   1.505  0.1393  0.1497  0.5916
  331MOL   C10746967   6.632   5.127   1.352 -0.3189  0.2529  0.3319
  331MOL   C10846968   6.494   5.069   1.323 -0.0255 -0.4053 -0.4522
  331MOL   O10946969   6.618   5.262   1.376 -0.1169  0.5049 -0.1984
  331MOL   H11046970   6.688   5.119   1.258 -0.6360  3.1254 -0.1526
  331MOL   H11146971   6.434   5.089   1.411  0.9480 -2.2852  0.6813
  331MOL   H11246972   6.493   4.962   1.302  0.4739 -0.5935  0.4483
  331MOL   H11346973   6.451   5.118   1.235  2.3041  0.4228 -1.1677
  331MOL   C11446974   6.724   5.342   1.326 -0.1435  0.3857 -0.7857
  331MOL   C11546975   6.662   5.423   1.207 -0.0795 -0.4238 -0.4281
  331MOL   O11646976   6.776   5.430   1.420  0.6404 -0.4251 -0.3997
  331MOL   H11746977   6.805   5.281   1.287 -1.0051 -0.5859 -1.0667
  331MOL   H11846978   6.728   5.504   1.176  0.0313 -1.2336 -2.3328
  331MOL   H11946979   6.567   5.461   1.245 -0.6997 -1.4745 -0.9113
  331MOL   H12046980   6.640   5.359   1.122  0.6188 -0.5304 -0.5273
  331MOL   C12146981   6.843   5.378   1.537 -0.0851  0.5396 -0.2001
  331MOL   C12246982   6.984   5.437   1.531 -0.1296  0.1839  0.4442
  331MOL   O12346983   6.784   5.439   1.650 -0.0482  0.1552  0.2243
  331MOL   H12446984   6.846   5.269   1.535  0.4633  0.5551 -0.2531
  331MOL   H12546985   7.029   5.387   1.445 -0.0471 -0.3160  0.7809
  331MOL   H12646986   7.040   5.401   1.617  1.9252  0.0869 -0.8744
  331MOL   H12746987   6.994   5.546   1.525  0.9017  0.0266 -1.3455
  331MOL   C12846988   6.668   5.369   1.684  0.1505 -0.8376  0.2224
  331MOL   C12946989   6.689   5.283   1.809  0.2438  0.6113  0.1584
  331MOL   O13046990   6.563   5.456   1.707 -0.4781 -0.5218  0.1701
  331MOL   H13146991   6.640   5.302   1.602 -0.7717  1.7233 -1.6114
  331MOL   H13246992   6.774   5.219   1.788 -0.6467 -0.9050  1.1027
  331MOL   H13346993   6.600   5.222   1.824  0.7262  0.2653  1.6485
  331MOL   H13446994   6.699   5.352   1.893  0.7896  1.8890 -0.9359
  331MOL   C13546995   6.523   5.535   1.601 -0.7475  0.1630 -0.7727
  331MOL   C13646996   6.389   5.608   1.632  0.0123 -0.2646 -0.7199
  331MOL   O13746997   6.615   5.632   1.560 -0.2496 -0.2479  0.4779
  331MOL   H13846998   6.506   5.474   1.512 -0.5589  1.3746 -1.6512
  331MOL   H13946999   6.314   5.529   1.636  1.9734 -2.0804  1.3129
  331MOL   H14047000   6.373   5.684   1.556 -0.5532  0.1570 -0.1819
  331MOL   H14147001   6.392   5.640   1.736 -0.8171 -1.6709 -0.2428
  331MOL   H14247002   6.681   5.585   1.512  2.0286  0.2922  2.9793
  332MOL     C147003   4.359   1.981   0.255  0.3894 -0.6831  0.5642
  332MOL     C247004   4.461   1.865   0.285  0.1221  1.0248  0.1294
  332MOL     O347005   4.236   1.958   0.332  0.1990 -0.0654  0.0679
  332MOL     H447006   4.329   1.989   0.151  4.7812 -0.7086 -0.8350
  332MOL     H547007   4.535   1.868   0.204  0.2439  0.3232  0.2102
  332MOL     H647008   4.412   1.768   0.280  1.5580  0.2208  1.0941
  332MOL     H747009   4.515   1.892   0.376  1.6259  0.5275 -0.5868
  332MOL     H847010   4.413   2.072   0.282 -0.8426 -0.1507  1.2823
  332MOL     C947011   4.242   1.983   0.471  0.0411  0.3229 -0.3977
  332MOL    C1047012   4.171   2.114   0.489  1.2034 -0.1109 -0.4789
  332MOL    O1147013   4.174   1.893   0.549  0.0483  0.3430  0.3330
  332MOL    H1247014   4.344   1.992   0.509  0.0678  0.0427 -0.4061
  332MOL    H1347015   4.232   2.191   0.443  0.9358 -0.2996 -1.1580
  332MOL    H1447016   4.161   2.133   0.596  1.4331  2.1684 -0.8505
  332MOL    H1547017   4.069   2.103   0.452  0.3384  0.1000  1.7656
  332MOL    C1647018   4.240   1.769   0.555  0.2841 -0.3521 -0.2908
  332MOL    C1747019   4.275   1.745   0.699 -0.1497 -0.4564 -0.6490
  332MOL    O1847020   4.170   1.654   0.517  0.1946 -0.5031  0.5765
  332MOL    H1947021   4.334   1.776   0.502 -0.4255 -2.1612 -1.8320
  332MOL    H2047022   4.196   1.740   0.773  0.3285 -1.4843 -0.1957
  332MOL    H2147023   4.351   1.819   0.726  0.9960 -1.8719  0.0978
  332MOL    H2247024   4.323   1.647   0.702 -1.1177 -0.8840  1.6931
  332MOL    C2347025   4.150   1.643   0.381 -0.2692 -0.1893 -0.2658
  332MOL    C2447026   4.204   1.505   0.349  0.0389 -0.3413 -0.0299
  332MOL    O2547027   4.019   1.633   0.337 -0.2221 -0.6700 -0.1107
  332MOL    H2647028   4.196   1.711   0.309 -2.4402 -0.4608 -1.9720
  332MOL    H2747029   4.300   1.478   0.394 -1.7693 -2.6142  2.6562
  332MOL    H2847030   4.211   1.486   0.242 -1.6188  1.8794 -0.5562
  332MOL    H2947031   4.141   1.425   0.388 -1.3407  0.7484 -0.0014
  332MOL    C3047032   3.948   1.753   0.348 -0.1989 -0.2355 -0.1611
  332MOL    C3147033   3.943   1.812   0.214 -0.2589  0.1751 -0.2920
  332MOL    O3247034   3.812   1.738   0.390 -0.1216 -0.1294  0.4866
  332MOL    H3347035   3.997   1.815   0.422  0.1984 -2.5159  1.5388
  332MOL    H3447036   3.905   1.731   0.152 -1.2616 -0.2636  0.8800
  332MOL    H3547037   4.041   1.848   0.183 -0.0187 -0.1974  0.0404
  332MOL    H3647038   3.874   1.896   0.201 -1.1519 -0.3572  0.9332
  332MOL    C3747039   3.793   1.715   0.523  0.1285  0.0242 -0.8996
  332MOL    C3847040   3.717   1.841   0.566  0.2154 -0.4879 -1.3100
  332MOL    O3947041   3.704   1.602   0.532  0.3519  0.8612 -0.0639
  332MOL    H4047042   3.884   1.698   0.582 -1.6906  0.5374  2.2056
  332MOL    H4147043   3.788   1.920   0.540 -1.1617  1.4145  0.6111
  332MOL    H4247044   3.710   1.837   0.674 -0.2576 -2.8743 -1.4143
  332MOL    H4347045   3.617   1.857   0.527 -0.0327 -1.5033 -1.0847
  332MOL    C4447046   3.778   1.482   0.521  0.2125  0.3707 -0.7538
  332MOL    C4547047   3.799   1.437   0.666 -0.3643 -0.1970  0.3684
  332MOL    O4647048   3.712   1.383   0.456  0.4274  0.2765  0.3346
  332MOL    H4747049   3.881   1.491   0.488  0.7812 -0.9735  0.5664
  332MOL    H4847050   3.854   1.343   0.666  0.4970  0.3008 -0.1654
  332MOL    H4947051   3.700   1.410   0.704 -0.2442  1.2667  1.7510
  332MOL    H5047052   3.846   1.521   0.717  2.1757 -1.3440 -0.0253
  332MOL    C5147053   3.686   1.426   0.324 -0.1961  0.4911  0.6799
  332MOL    C5247054   3.781   1.349   0.230  0.3486  0.5960 -0.1188
  332MOL    O5347055   3.553   1.396   0.286 -0.1811 -0.5411 -0.0019
  332MOL    H5447056   3.703   1.533   0.306 -0.5580  0.0877 -2.4225
  332MOL    H5547057   3.782   1.243   0.252  0.5822  0.3482 -1.3144
  332MOL    H5647058   3.882   1.385   0.247  0.9927 -1.3380  0.2477
  332MOL    H5747059   3.770   1.368   0.124 -0.1192  0.6459 -0.0630
  332MOL    C5847060   3.459   1.476   0.347 -0.8363  0.0873 -0.0382
  332MOL    C5947061   3.414   1.561   0.240  0.4184  0.1225  0.1692
  332MOL    O6047062   3.348   1.407   0.393  0.2945 -0.5647  0.5517
  332MOL    H6147063   3.500   1.541   0.424  0.8130 -0.5111 -0.4084
  332MOL    H6247064   3.350   1.634   0.288 -0.7913  0.1064 -1.3674
  332MOL    H6347065   3.360   1.509   0.160 -0.5089  1.0339  0.1971
  332MOL    H6447066   3.497   1.619   0.201  0.6348  0.0009  0.4516
  332MOL    C6547067   3.372   1.332   0.506 -0.6966 -0.7393 -0.1156
  332MOL    C6647068   3.357   1.437   0.618  0.6099  0.6918 -0.3703
  332MOL    O6747069   3.286   1.225   0.528 -0.6176 -0.2302 -0.3622
  332MOL    H6847070   3.467   1.278   0.506  0.5441  1.4136 -0.0590
  332MOL    H6947071   3.444   1.499   0.635  0.3365  1.2810 -1.1085
  332MOL    H7047072   3.330   1.379   0.707  3.2114  0.4878  0.3264
  332MOL    H7147073   3.265   1.492   0.597  0.4732  0.6265  0.0471
  332MOL    C7247074   3.298   1.121   0.436 -0.1156 -0.1229 -0.2303
  332MOL    C7347075   3.347   0.997   0.515 -0.9931  0.2416  0.2266
  332MOL    O7447076   3.169   1.083   0.395 -0.1713  0.1411 -0.9558
  332MOL    H7547077   3.367   1.133   0.352  0.6681  1.4982  0.6114
  332MOL    H7647078   3.364   0.920   0.439 -2.3332 -0.2911  0.4506
  332MOL    H7747079   3.270   0.969   0.586  0.5623 -0.9591  1.4815
  332MOL    H7847080   3.447   1.012   0.555  0.5112 -0.1001 -3.2228
  332MOL    C7947081   3.093   1.184   0.329 -0.8055 -0.1370  0.0694
  332MOL    C8047082   3.122   1.181   0.180 -0.5492 -0.0404 -0.1161
  332MOL    O8147083   2.960   1.149   0.354 -0.2834  0.0315  0.2554
  332MOL    H8247084   3.103   1.287   0.363 -1.8105 -0.6202  1.8735
  332MOL    H8347085   3.098   1.082   0.139 -0.1649 -1.1825  2.3036
  332MOL    H8447086   3.228   1.199   0.164 -0.3623  0.1619  1.2576
  332MOL    H8547087   3.070   1.257   0.122  1.0203  0.0129 -1.4850
  332MOL    C8647088   2.909   1.190   0.477 -0.5759  0.4767  0.6169
  332MOL    C8747089   2.801   1.289   0.444  0.4205  0.2787  0.0142
  332MOL    O8847090   2.846   1.087   0.541 -0.1188  0.0327 -0.1948
  332MOL    H8947091   2.978   1.244   0.541  0.5066  0.3628 -0.4310
  332MOL    H9047092   2.758   1.331   0.535  1.6972  1.1512  0.2128
  332MOL    H9147093   2.725   1.243   0.381  0.2502 -0.9386  1.0619
  332MOL    H9247094   2.856   1.370   0.396 -0.1002  1.3620  1.2212
  332MOL    C9347095   2.938   0.987   0.591  0.0972 -0.1549 -1.0008
  332MOL    C9447096   3.011   1.023   0.719 -0.3843  0.0849 -0.5082
  332MOL    O9547097   2.876   0.867   0.631  0.3341 -0.0509  0.2966
  332MOL    H9647098   3.009   0.963   0.512  2.4934  0.6430  0.8110
  332MOL    H9747099   2.943   1.028   0.804  0.1438  0.0420 -0.0790
  332MOL    H9847100   3.063   1.118   0.705  1.5729 -1.0215 -0.8957
  332MOL    H9947101   3.085   0.948   0.745 -0.1415  1.0744  1.8710
  332MOL   C10047102   2.797   0.814   0.525 -0.1083  0.0337  1.5112
  332MOL   C10147103   2.886   0.736   0.419 -0.4395  0.9578  0.0133
  332MOL   O10247104   2.709   0.714   0.576  0.0991 -0.1233 -0.1015
  332MOL   H10347105   2.740   0.887   0.468 -0.3934 -1.3182  0.0241
  332MOL   H10447106   2.959   0.794   0.362  1.5669 -2.0565 -0.5873
  332MOL   H10547107   2.813   0.688   0.354  0.8662 -2.5302  1.0142
  332MOL   H10647108   2.932   0.644   0.453  0.0632  0.5158 -1.7757
  332MOL   C10747109   2.607   0.779   0.657 -0.4627  0.1013 -0.0791
  332MOL   C10847110   2.480   0.744   0.586 -0.1695  0.3514  0.0809
  332MOL   O10947111   2.594   0.726   0.783 -0.5635  0.1397 -0.0446
  332MOL   H11047112   2.615   0.884   0.682 -2.0501  0.2712 -0.2787
  332MOL   H11147113   2.463   0.639   0.563 -1.5141  0.8179 -1.1372
  332MOL   H11247114   2.492   0.800   0.493 -0.7341 -0.2953 -0.3901
  332MOL   H11347115   2.391   0.782   0.635  1.0408  3.5647 -0.1088
  332MOL   C11447116   2.693   0.769   0.867  1.3057  0.4509 -0.2670
  332MOL   C11547117   2.622   0.856   0.973 -0.1260 -0.0942 -0.0327
  332MOL   O11647118   2.749   0.662   0.937  0.1841  0.3922 -0.0162
  332MOL   H11747119   2.769   0.827   0.814  2.5914  1.1744  2.2702
  332MOL   H11847120   2.700   0.883   1.044  0.8591  0.5273 -1.3397
  332MOL   H11947121   2.540   0.798   1.017  0.3680 -2.2153 -1.8304
  332MOL   H12047122   2.575   0.945   0.929  2.8877  1.7674  0.3711
  332MOL   C12147123   2.848   0.593   0.865  0.2491 -0.4219 -0.4350
  332MOL   C12247124   2.987   0.632   0.913 -0.1410 -0.2954  0.0873
  332MOL   O12347125   2.832   0.466   0.899 -0.2497  0.5273  0.2093
  332MOL   H12447126   2.851   0.600   0.757 -1.3939 -2.5475 -0.6645
  332MOL   H12547127   2.997   0.736   0.884 -0.3518 -0.6330 -1.2187
  332MOL   H12647128   3.056   0.574   0.853 -2.0078 -2.5355  0.0306
  332MOL   H12747129   3.006   0.627   1.020 -0.1100 -1.1398  0.0421
  332MOL   C12847130   2.713   0.410   0.846  0.2568 -0.2974 -0.1052
  332MOL   C12947131   2.763   0.306   0.752  0.7515  0.3013  0.4296
  332MOL   O13047132   2.652   0.335   0.949  0.8323 -0.5937 -0.1846
  332MOL   H13147133   2.643   0.479   0.799  0.2427 -0.3690 -0.1904
  332MOL   H13247134   2.825   0.224   0.789  0.0382 -0.3823  0.1391
  332MOL   H13347135   2.821   0.357   0.676  0.8769 -1.7474 -0.9026
  332MOL   H13447136   2.688   0.255   0.691  0.6362 -0.6658  1.3587
  332MOL   C13547137   2.563   0.412   1.029  0.6272 -0.1008 -0.0689
  332MOL   C13647138   2.469   0.320   1.107  0.2384  0.4736 -0.7083
  332MOL   O13747139   2.640   0.496   1.105 -0.5540  0.1133 -0.2089
  332MOL   H13847140   2.496   0.478   0.973  0.1401  1.1220  1.9021
  332MOL   H13947141   2.426   0.251   1.035  0.8106  1.4961 -2.0598
  332MOL   H14047142   2.397   0.373   1.170  0.9516  2.9064 -1.8821
  332MOL   H14147143   2.525   0.254   1.174 -0.0618  1.3389  0.4051
  332MOL   H14247144   2.685   0.559   1.051  0.2618  3.1727  3.7443
  333MOL     C147145   4.055   5.805   3.277 -0.3878 -0.5918 -0.3380
  333MOL     C247146   4.026   5.882   3.403  0.5808  0.4140 -0.3771
  333MOL     O347147   4.198   5.791   3.262  0.0972 -0.1090  0.2082
  333MOL     H447148   4.003   5.851   3.194 -0.0054  1.1632  0.3725
  333MOL     H547149   4.074   5.979   3.396  0.2310  0.8814  2.8041
  333MOL     H647150   4.068   5.842   3.496 -1.2096  1.6869  1.0034
  333MOL     H747151   3.918   5.893   3.413  0.7062  1.8326 -0.5030
  333MOL     H847152   4.011   5.706   3.291  0.4478 -1.0422 -0.8783
  333MOL     C947153   4.231   5.723   3.146  0.6137  0.6017  0.4318
  333MOL    C1047154   4.362   5.769   3.097 -0.0145 -0.4991  0.1889
  333MOL    O1147155   4.226   5.582   3.161  0.0506 -0.1938  0.0642
  333MOL    H1247156   4.156   5.750   3.072  1.9014  1.6480 -0.4926
  333MOL    H1347157   4.354   5.876   3.075  0.4933 -0.1291  1.6799
  333MOL    H1447158   4.397   5.708   3.014 -2.2267 -1.1010 -0.3385
  333MOL    H1547159   4.435   5.758   3.178 -1.5667 -1.3905  1.4972
  333MOL    C1647160   4.180   5.513   3.042  0.4269  0.1649  0.1794
  333MOL    C1747161   4.207   5.359   3.056  0.1974  0.3644  0.0304
  333MOL    O1847162   4.048   5.535   3.019  0.7324  0.4256  0.0804
  333MOL    H1947163   4.249   5.543   2.963  1.6961  2.1365  1.9466
  333MOL    H2047164   4.308   5.348   3.096  0.2624  2.4033  0.4461
  333MOL    H2147165   4.212   5.318   2.955 -0.3411 -0.0558  0.1725
  333MOL    H2247166   4.132   5.311   3.119  1.5378  1.4396  2.5178
  333MOL    C2347167   4.024   5.539   2.876 -0.6850  0.1032 -1.0747
  333MOL    C2447168   3.873   5.536   2.857 -0.0958 -0.0350  0.1227
  333MOL    O2547169   4.065   5.666   2.819  0.3412 -0.2657  0.0026
  333MOL    H2647170   4.074   5.462   2.818  2.1763  0.6585  0.5595
  333MOL    H2747171   3.829   5.636   2.854 -1.8057 -0.7807 -0.3130
  333MOL    H2847172   3.824   5.473   2.931 -1.6688  1.2350  0.1837
  333MOL    H2947173   3.858   5.484   2.762 -1.5727  0.1732  0.2249
  333MOL    C3047174   4.121   5.646   2.693  0.5944 -0.1637  0.4696
  333MOL    C3147175   4.127   5.793   2.636 -0.1889  0.7578  0.0535
  333MOL    O3247176   4.255   5.604   2.700 -0.5034 -0.2110  0.0584
  333MOL    H3347177   4.054   5.586   2.632  1.7026  0.5465 -1.5148
  333MOL    H3447178   4.156   5.784   2.532 -2.1769 -3.0388 -0.2659
  333MOL    H3547179   4.192   5.858   2.694 -1.2228  1.4833  0.4263
  333MOL    H3647180   4.025   5.834   2.632 -1.0380 -1.2870  0.3424
  333MOL    C3747181   4.276   5.501   2.609  0.1132  0.8526 -0.0451
  333MOL    C3847182   4.419   5.501   2.551  0.7337  0.2342  0.0967
  333MOL    O3947183   4.265   5.373   2.666  0.3719 -0.4898  0.0203
  333MOL    H4047184   4.211   5.502   2.522  0.7479 -0.1927 -0.5435
  333MOL    H4147185   4.407   5.435   2.464  1.1327 -0.1685  0.3488
  333MOL    H4247186   4.491   5.452   2.617 -0.5924  1.0475  2.1891
  333MOL    H4347187   4.450   5.599   2.513  1.5295  0.3213  0.9724
  333MOL    C4447188   4.196   5.275   2.589  0.2826 -0.2468  0.3821
  333MOL    C4547189   4.229   5.135   2.633  0.3551 -0.2187 -0.7460
  333MOL    O4647190   4.059   5.286   2.596  0.2010  0.2200  1.0588
  333MOL    H4747191   4.240   5.292   2.490  2.6657  0.2035  1.4845
  333MOL    H4847192   4.334   5.115   2.654  0.8054  0.7496 -2.0394
  333MOL    H4947193   4.195   5.056   2.565 -1.0755 -0.9405  0.7723
  333MOL    H5047194   4.165   5.117   2.719  0.8639 -0.0696 -0.3363
  333MOL    C5147195   3.996   5.278   2.473  0.4551 -1.3495  0.2293
  333MOL    C5247196   3.847   5.248   2.494 -0.4889 -0.5643 -0.0002
  333MOL    O5347197   3.988   5.405   2.403  0.2047 -0.3080 -0.2885
  333MOL    H5447198   4.039   5.196   2.415 -0.3239 -1.1362 -0.6621
  333MOL    H5547199   3.833   5.157   2.552 -0.5631 -0.4628  0.1415
  333MOL    H5647200   3.799   5.224   2.399  0.9828 -1.1838 -0.6020
  333MOL    H5747201   3.805   5.330   2.552  1.2293 -0.6030  1.3140
  333MOL    C5847202   4.035   5.402   2.269  0.3107  0.3123 -0.1533
  333MOL    C5947203   3.979   5.528   2.205  0.5163 -0.5575 -0.1959
  333MOL    O6047204   4.178   5.400   2.266 -0.2201  0.5361 -0.5937
  333MOL    H6147205   3.989   5.314   2.224  2.0622 -0.9588  0.4804
  333MOL    H6247206   3.872   5.534   2.223  0.5270 -0.2987 -0.2277
  333MOL    H6347207   3.999   5.545   2.099 -0.5277 -1.1508 -0.4989
  333MOL    H6447208   4.028   5.610   2.257  0.8733 -0.7355 -0.2440
  333MOL    C6547209   4.244   5.302   2.186  0.3877  0.0089 -0.0247
  333MOL    C6647210   4.380   5.363   2.135 -0.0532  0.5903 -0.0561
  333MOL    O6747211   4.274   5.192   2.265  0.5952  0.1184  0.3906
  333MOL    H6847212   4.183   5.274   2.101 -1.8331  0.3425  1.4198
  333MOL    H6947213   4.364   5.465   2.100 -1.1430  0.1579 -0.8799
  333MOL    H7047214   4.419   5.302   2.054  0.7952  2.1529 -0.8600
  333MOL    H7147215   4.443   5.364   2.224  0.9491 -0.8747 -0.7429
  333MOL    C7247216   4.249   5.071   2.213  0.2927 -0.0589 -0.1127
  333MOL    C7347217   4.339   4.972   2.291  0.3304 -0.2068  1.2302
  333MOL    O7447218   4.117   5.041   2.258 -0.3429  0.1907 -0.0962
  333MOL    H7547219   4.271   5.055   2.107  2.1874 -2.6316  0.6204
  333MOL    H7647220   4.306   4.965   2.395 -0.3438  2.3374  1.2316
  333MOL    H7747221   4.443   5.003   2.289  0.2954 -0.1508 -0.6304
  333MOL    H7847222   4.335   4.878   2.236  0.6696  0.7607 -0.4788
  333MOL    C7947223   4.027   5.019   2.156  0.2884  0.5352 -0.1225
  333MOL    C8047224   3.894   4.986   2.214  0.2724  0.1147  0.1562
  333MOL    O8147225   4.001   5.135   2.081 -0.9872 -0.0965 -0.4918
  333MOL    H8247226   4.068   4.935   2.100 -2.0474  0.3477 -1.6368
  333MOL    H8347227   3.870   5.054   2.295  0.3648  0.3875 -0.0443
  333MOL    H8447228   3.907   4.888   2.260 -0.2095 -0.1272 -0.2186
  333MOL    H8547229   3.815   4.974   2.140  1.1145 -0.5261 -0.6442
  333MOL    C8647230   4.005   5.118   1.944  0.3387 -0.4279  0.2008
  333MOL    C8747231   3.935   5.240   1.873 -0.4373  0.7721 -0.3467
  333MOL    O8847232   4.134   5.122   1.899 -0.0448  0.9534  0.2267
  333MOL    H8947233   3.955   5.023   1.928 -0.5888  0.2079 -0.8096
  333MOL    H9047234   3.826   5.229   1.875 -0.0388 -4.2106  1.2788
  333MOL    H9147235   3.965   5.236   1.768  0.6677  0.6500 -0.0293
  333MOL    H9247236   3.962   5.330   1.927  0.6360 -1.0768  2.3189
  333MOL    C9347237   4.166   5.028   1.796  0.1262  1.1847 -0.9915
  333MOL    C9447238   4.284   5.085   1.728 -0.0171  0.6865 -0.7984
  333MOL    O9547239   4.204   4.909   1.853 -0.4067  0.7398  0.0934
  333MOL    H9647240   4.087   5.028   1.721  0.8145  0.1606 -1.7355
  333MOL    H9747241   4.251   5.170   1.668 -1.7247  0.4851 -0.1829
  333MOL    H9847242   4.323   5.007   1.663  1.6405 -0.7634  1.8526
  333MOL    H9947243   4.356   5.113   1.804  1.1664 -0.8769 -1.3172
  333MOL   C10047244   4.139   4.793   1.804  0.2781  0.2483  0.1231
  333MOL   C10147245   4.206   4.666   1.850 -0.1945 -0.5199  0.3698
  333MOL   O10247246   4.010   4.798   1.856 -0.1655 -0.4258  0.3232
  333MOL   H10347247   4.134   4.812   1.697 -0.8517  2.3850  0.5177
  333MOL   H10447248   4.220   4.670   1.958 -1.5442 -2.5582  0.6553
  333MOL   H10547249   4.303   4.660   1.802  0.3888 -1.2160  1.6061
  333MOL   H10647250   4.147   4.576   1.828 -1.5967  0.6873 -0.9091
  333MOL   C10747251   3.912   4.753   1.763 -0.2549 -0.0578 -0.6041
  333MOL   C10847252   3.790   4.718   1.851  0.5731 -0.5732 -0.1946
  333MOL   O10947253   3.878   4.859   1.677 -0.7381 -0.0700 -0.3089
  333MOL   H11047254   3.954   4.669   1.708 -0.1657 -0.3667 -0.0687
  333MOL   H11147255   3.772   4.787   1.933  1.7004  0.5424 -0.8665
  333MOL   H11247256   3.811   4.628   1.909 -0.1710 -0.0030  0.9739
  333MOL   H11347257   3.701   4.699   1.790  1.7936  0.3992 -2.3377
  333MOL   C11447258   3.875   4.823   1.542  0.3093  0.0374 -0.2167
  333MOL   C11547259   3.820   4.946   1.468  0.3570  0.0861  0.6798
  333MOL   O11647260   4.007   4.793   1.491 -0.1297 -0.5608 -0.1055
  333MOL   H11747261   3.804   4.741   1.527 -0.0321  0.4771 -1.0454
  333MOL   H11847262   3.897   5.022   1.477  0.4017  0.1903 -0.5332
  333MOL   H11947263   3.717   4.960   1.503  0.2454 -1.7670  1.1574
  333MOL   H12047264   3.805   4.921   1.363  1.1799  0.5397  0.4511
  333MOL   C12147265   4.023   4.686   1.411  0.6658 -0.0469  0.1037
  333MOL   C12247266   4.140   4.726   1.315 -0.0013  0.1007  0.2032
  333MOL   O12347267   4.069   4.574   1.486  0.0110 -0.4539  0.5025
  333MOL   H12447268   3.935   4.671   1.348  1.2127 -1.3532 -0.3678
  333MOL   H12547269   4.087   4.803   1.258 -0.1313  2.0817  2.9039
  333MOL   H12647270   4.176   4.651   1.245 -2.3567  0.3430 -1.3349
  333MOL   H12747271   4.223   4.781   1.359 -0.2869  0.2757  0.5298
  333MOL   C12847272   3.976   4.469   1.487 -0.2701 -0.3018 -0.4201
  333MOL   C12947273   4.048   4.348   1.545 -0.1794  0.0894  0.3569
  333MOL   O13047274   3.860   4.495   1.560  0.2677  0.2958  0.0536
  333MOL   H13147275   3.970   4.452   1.380  2.2330  0.8336 -0.7837
  333MOL   H13247276   3.988   4.258   1.538 -1.0444  0.6165  0.7971
  333MOL   H13347277   4.072   4.375   1.648  0.2352  4.4074 -0.7417
  333MOL   H13447278   4.142   4.331   1.493  0.0237 -1.7369  1.2819
  333MOL   C13547279   3.741   4.471   1.493 -0.6560 -0.0839  0.0583
  333MOL   C13647280   3.631   4.488   1.594  0.0974 -0.9015  0.2478
  333MOL   O13747281   3.718   4.559   1.390  0.0085 -0.1976  0.1243
  333MOL   H13847282   3.734   4.367   1.460  0.2014 -0.0908 -0.1082
  333MOL   H13947283   3.652   4.423   1.679  0.0610  0.7562  1.5649
  333MOL   H14047284   3.534   4.464   1.552 -0.9533  1.0696  1.4783
  333MOL   H14147285   3.620   4.593   1.621 -1.5409 -1.1799  0.7161
  333MOL   H14247286   3.704   4.510   1.311  0.2655  1.0372 -0.7068
  334MOL     C147287   0.146   3.913   0.257  0.6353  0.1633 -0.2305
  334MOL     C247288   0.253   3.890   0.362 -0.0245  0.2917  0.0162
  334MOL     O347289   0.044   3.815   0.250 -0.1303 -0.1910  0.6087
  334MOL     H447290   0.198   3.922   0.162  1.0514 -1.9729 -0.2270
  334MOL     H547291   0.329   3.822   0.324  0.7702  1.2442 -0.1012
  334MOL     H647292   0.202   3.856   0.453  0.6689  1.0903  0.7144
  334MOL     H747293   0.309   3.981   0.384  2.5577 -1.3280  0.3481
  334MOL     H847294   0.106   4.008   0.293  0.3092  0.0848 -0.3789
  334MOL     C947295   7.848   3.847   0.171  0.2863  0.2914  1.1312
  334MOL    C1047296   7.767   3.720   0.150 -0.2652  0.4156 -0.0478
  334MOL    O1147297   7.754   3.928   0.241  0.6077  0.4197 -0.0359
  334MOL    H1247298   7.868   3.873   0.067 -0.8931 -0.5180  0.6840
  334MOL    H1347299   7.828   3.651   0.091 -2.2354 -0.0627 -1.5921
  334MOL    H1447300   7.670   3.734   0.103 -0.2430  0.0407 -0.2087
  334MOL    H1547301   7.760   3.669   0.246  1.3002  0.9418  0.3653
  334MOL    C1647302   7.727   4.054   0.178 -0.1230  0.0376  0.1085
  334MOL    C1747303   7.582   4.046   0.126  0.1317  0.8480  0.0825
  334MOL    O1847304   7.745   4.150   0.275 -0.3451  0.0063  0.1660
  334MOL    H1947305   7.801   4.061   0.099  0.8727  0.6415  1.0802
  334MOL    H2047306   7.546   4.139   0.082 -2.0300  0.4699  1.0191
  334MOL    H2147307   7.514   4.017   0.206  1.3726 -3.0135 -0.1944
  334MOL    H2247308   7.579   3.976   0.043 -1.2893  0.9867  0.0067
  334MOL    C2347309   7.757   4.283   0.232 -0.5713  0.1556 -0.1945
  334MOL    C2447310   7.784   4.376   0.352 -0.7493 -0.3662  0.1334
  334MOL    O2547311   7.868   4.301   0.138  0.5592  0.1931 -0.0967
  334MOL    H2647312   7.658   4.299   0.189 -0.3131 -0.0518 -0.8678
  334MOL    H2747313   7.878   4.343   0.396  0.0549  0.8033 -0.6870
  334MOL    H2847314   7.698   4.361   0.418  0.8121  0.2547  2.3583
  334MOL    H2947315   7.796   4.482   0.331  0.9710 -0.3703  1.0620
  334MOL    C3047316   7.831   4.386   0.037  0.4970 -0.0143  0.6122
  334MOL    C3147317   0.047   4.398   7.871 -0.6175 -0.0550  0.4441
  334MOL    O3247318   7.734   4.321   7.872 -0.9852 -0.2054  0.1267
  334MOL    H3347319   7.797   4.479   0.082 -0.5066 -0.3785  0.6226
  334MOL    H3447320   0.033   4.474   7.793  0.8953  0.0568  0.2553
  334MOL    H3547321   0.082   4.305   7.827 -0.8263 -0.0607  0.2910
  334MOL    H3647322   0.120   4.440   0.028  0.2211  0.3789 -0.6493
  334MOL    C3747323   7.671   4.400   7.776  0.3604  0.5191  0.6179
  334MOL    C3847324   7.574   4.306   7.708  0.0457 -0.2574  0.8305
  334MOL    O3947325   7.602   4.504   7.844  0.0313  0.3434 -0.6877
  334MOL    H4047326   7.740   4.430   7.697  0.1794 -1.6403 -0.3906
  334MOL    H4147327   7.526   4.362   7.629  1.3456  0.0120  0.2160
  334MOL    H4247328   7.497   4.271   7.777  0.2089  1.1463  1.7491
  334MOL    H4347329   7.626   4.215   7.678 -0.3095 -0.3860  0.6032
  334MOL    C4447330   7.614   4.625   7.777 -0.5618  0.6997  0.3826
  334MOL    C4547331   7.543   4.737   7.863 -0.9779  0.4131  0.3234
  334MOL    O4647332   7.755   4.670   7.762  0.3722  0.5350 -0.1161
  334MOL    H4747333   7.560   4.592   7.688 -1.6341  1.8165  0.5940
  334MOL    H4847334   7.443   4.707   7.893 -0.7150  0.2513  1.0539
  334MOL    H4947335   7.547   4.831   7.808  0.5978 -0.6057 -1.3774
  334MOL    H5047336   7.606   4.747   0.037  2.4207 -0.8939 -1.8517
  334MOL    C5147337   7.778   4.730   7.638  0.3831 -0.0924 -0.1086
  334MOL    C5247338   0.006   4.780   7.643 -0.1503  0.4933  0.0332
  334MOL    O5347339   7.770   4.640   7.533 -0.0167  0.3646  0.2351
  334MOL    H5447340   7.722   4.822   7.620  2.7249  1.2215 -0.9767
  334MOL    H5547341   0.013   4.864   7.712  1.3616  1.1706 -0.9243
  334MOL    H5647342   0.046   4.817   7.548 -0.4327 -0.1366 -0.3352
  334MOL    H5747343   0.067   4.694   7.669 -1.1319 -0.7769 -1.7340
  334MOL    C5847344   7.681   4.683   7.434  0.7710  0.0454 -0.2976
  334MOL    C5947345   7.662   4.567   7.340 -0.6296 -0.5345 -0.1376
  334MOL    O6047346   7.558   4.709   7.484 -0.0187  0.8159 -0.5169
  334MOL    H6147347   7.729   4.768   7.385  0.3861  0.0818 -0.6124
  334MOL    H6247348   7.601   4.495   7.394 -3.0047  3.0253  2.1205
  334MOL    H6347349   7.763   4.528   7.324  0.4452  1.8264  0.6421
  334MOL    H6447350   7.614   4.598   7.247  0.0869  0.6445 -0.1368
  334MOL    C6547351   7.502   4.827   7.433  0.1387  0.2027 -0.2676
  334MOL    C6647352   7.348   4.816   7.448 -0.2666  0.2693 -0.1785
  334MOL    O6747353   7.542   4.940   7.504 -0.0599  0.2506  0.1770
  334MOL    H6847354   7.521   4.837   7.326 -1.6397  4.2838 -0.2726
  334MOL    H6947355   7.301   4.906   7.407 -0.8429 -0.4073 -1.0353
  334MOL    H7047356   7.319   4.795   7.550 -1.6381 -0.3054 -0.6778
  334MOL    H7147357   7.307   4.740   7.382 -1.6244  0.5822  0.3042
  334MOL    C7247358   7.592   5.042   7.428  0.4896 -0.4146  0.1944
  334MOL    C7347359   7.598   5.171   7.509  0.2373 -0.0295  0.2946
  334MOL    O7447360   7.727   5.014   7.391  0.4448 -0.0847 -0.0168
  334MOL    H7547361   7.517   5.051   7.349 -0.0224 -0.6175  0.6574
  334MOL    H7647362   7.503   5.205   7.549 -1.1230 -0.1147 -2.7175
  334MOL    H7747363   7.634   5.253   7.447  0.1571  1.0779  1.6873
  334MOL    H7847364   7.668   5.159   7.592  1.1433 -0.1897 -0.4879
  334MOL    C7947365   7.761   5.026   7.254  0.3802 -1.1474  0.5536
  334MOL    C8047366   0.000   5.030   7.237 -0.1822 -0.0794 -0.3617
  334MOL    O8147367   7.727   4.906   7.186 -0.1527  0.5832 -0.2712
  334MOL    H8247368   7.718   5.115   7.209 -0.3676 -1.1780  1.2032
  334MOL    H8347369   0.035   4.938   7.283  1.3354 -0.7520 -2.8156
  334MOL    H8447370   0.047   5.113   7.291 -0.8776 -0.0338  0.1856
  334MOL    H8547371   0.041   5.040   7.137  3.1959 -2.3173  0.7083
  334MOL    C8647372   7.653   4.929   7.068  0.2232  0.3802  0.5525
  334MOL    C8747373   7.676   4.810   6.973 -0.3810  0.5024  0.1286
  334MOL    O8847374   7.514   4.929   7.093  0.2168 -1.0336 -0.1463
  334MOL    H8947375   7.694   5.015   7.014  0.7480 -0.5627 -0.5585
  334MOL    H9047376   7.615   4.817   6.883  1.0403  0.1056 -0.8883
  334MOL    H9147377   7.636   4.718   7.017  3.3447 -0.5435  1.5063
  334MOL    H9247378   7.781   4.808   6.946 -0.7399 -0.5015 -1.3140
  334MOL    C9347379   7.458   5.052   7.050 -0.0302 -0.3425  0.4811
  334MOL    C9447380   7.310   5.039   7.086 -0.7664 -0.2628 -0.6739
  334MOL    O9547381   7.514   5.167   7.113  0.2552  0.4602 -0.6121
  334MOL    H9647382   7.463   5.056   6.942 -1.3457  2.4263  0.4708
  334MOL    H9747383   7.254   5.126   7.050  1.1032  1.9954  1.7089
  334MOL    H9847384   7.306   5.043   7.195  0.2508 -1.7791 -0.5713
  334MOL    H9947385   7.256   4.954   7.044 -0.5339 -0.3047 -0.8855
  334MOL   C10047386   7.493   5.294   7.058 -0.1683  0.0910  0.4711
  334MOL   C10147387   7.542   5.381   7.175  1.1119 -0.3118 -0.3052
  334MOL   O10247388   7.576   5.315   6.952 -0.6107 -0.5274  0.7437
  334MOL   H10347389   7.387   5.310   7.039  0.1207 -0.1947 -1.5307
  334MOL   H10447390   7.639   5.350   7.215 -0.2911 -1.8028  2.0707
  334MOL   H10547391   7.472   5.376   7.258  1.6526 -0.5976  0.1414
  334MOL   H10647392   7.547   5.486   7.149 -1.3576 -0.5086 -1.6910
  334MOL   C10747393   7.513   5.342   6.828  0.7969 -0.3962  0.5444
  334MOL   C10847394   7.634   5.388   6.736 -0.1399  0.0543 -0.6219
  334MOL   O10947395   7.447   5.230   6.767 -0.0846 -0.2485 -0.5131
  334MOL   H11047396   7.446   5.427   6.844 -1.6124 -2.1686  0.1009
  334MOL   H11147397   7.601   5.433   6.642 -0.4896 -0.0642 -0.5575
  334MOL   H11247398   7.691   5.301   6.706  1.4823  1.0983 -0.6350
  334MOL   H11347399   7.694   5.468   6.780 -0.8515 -0.1719  0.7701
  334MOL   C11447400   7.310   5.247   6.732  0.4974 -0.0818 -0.0486
  334MOL   C11547401   7.258   5.110   6.681  0.1767 -0.1185  0.0882
  334MOL   O11647402   7.233   5.294   6.836 -0.5349 -0.4251  0.4384
  334MOL   H11747403   7.314   5.321   6.652 -2.4247 -0.0862 -0.2579
  334MOL   H11847404   7.324   5.067   6.606 -0.2743  1.6299 -1.3558
  334MOL   H11947405   7.159   5.114   6.636  0.7564 -1.5894 -1.3671
  334MOL   H12047406   7.231   5.045   6.764 -1.1944  1.5770  1.0181
  334MOL   C12147407   7.118   5.368   6.803  0.4175  0.8241  0.3647
  334MOL   C12247408   7.036   5.378   6.933  0.9559 -0.0215  0.1301
  334MOL   O12347409   7.167   5.493   6.762 -0.4226 -0.3586  0.4069
  334MOL   H12447410   7.060   5.324   6.722  1.9917  1.9861 -1.4173
  334MOL   H12547411   7.019   5.286   6.989  0.3512  1.7167  2.9247
  334MOL   H12647412   6.943   5.432   6.913  1.0021  1.7768  4.1982
  334MOL   H12747413   7.098   5.443   6.996  0.3238  1.0207 -0.3082
  334MOL   C12847414   7.085   5.549   6.663  0.0506  0.1518  0.5013
  334MOL   C12947415   7.124   5.700   6.656  0.5308  0.4413 -0.1604
  334MOL   O13047416   7.108   5.494   6.539 -0.1982 -0.2022 -0.1792
  334MOL   H13147417   6.980   5.545   6.690 -0.1686  2.7725  0.0973
  334MOL   H13247418   7.058   5.757   6.591 -2.5291 -0.8540  1.6989
  334MOL   H13347419   7.217   5.711   6.602  2.4740 -1.4700  2.6342
  334MOL   H13447420   7.115   5.749   6.753 -2.8164 -0.7704  0.2410
  334MOL   C13547421   6.995   5.488   6.460  0.1994  0.3177 -0.0000
  334MOL   C13647422   7.037   5.465   6.317 -0.3388 -0.2914  0.8566
  334MOL   O13747423   6.909   5.384   6.496  0.1629  0.3708  0.3280
  334MOL   H13847424   6.940   5.583   6.459  0.9806  0.7815  0.6292
  334MOL   H13947425   7.103   5.380   6.304 -1.7329 -1.2269 -0.2227
  334MOL   H14047426   7.098   5.546   6.277  0.3871 -0.7793  0.9681
  334MOL   H14147427   6.951   5.454   6.251  0.7111  2.7938 -1.1681
  334MOL   H14247428   6.825   5.416   6.466 -0.6088  0.7156  2.6986
  335MOL     C147429   3.355   7.521   0.592 -0.6374 -0.2584  0.3166
  335MOL     C247430   3.499   7.573   0.554 -0.0622  0.1375  0.0341
  335MOL     O347431   3.356   7.520   0.735  0.3399  0.2932  0.3877
  335MOL     H447432   3.328   7.425   0.549 -2.4078  1.2364 -2.1368
  335MOL     H547433   3.507   7.583   0.446  1.6206  0.7923  0.2138
  335MOL     H647434   3.582   7.514   0.592  0.8199  1.3613  0.0374
  335MOL     H747435   3.501   7.673   0.599 -1.7025  0.4774 -0.5958
  335MOL     H847436   3.287   7.591   0.541  0.2297 -1.9231 -3.2782
  335MOL     C947437   3.253   7.447   0.809  0.2302  0.4684 -0.3400
  335MOL    C1047438   3.116   7.495   0.773 -0.1441 -0.3593 -0.3025
  335MOL    O1147439   3.254   7.310   0.794 -0.2583  0.1799 -0.2722
  335MOL    H1247440   3.279   7.483   0.909  0.1562  0.6681 -0.3913
  335MOL    H1347441   3.108   7.604   0.761  1.2077 -0.2490 -0.2543
  335MOL    H1447442   3.043   7.459   0.845  0.1393 -1.7342 -0.7055
  335MOL    H1547443   3.072   7.466   0.678 -0.1901  0.6504 -0.6024
  335MOL    C1647444   3.341   7.245   0.883  0.0327 -0.5707  0.5473
  335MOL    C1747445   3.256   7.181   0.993  0.3452 -0.1702 -0.0813
  335MOL    O1847446   3.411   7.145   0.815  0.9903 -0.5149 -0.0696
  335MOL    H1947447   3.411   7.317   0.926 -0.4028  0.9638 -1.2255
  335MOL    H2047448   3.319   7.117   1.055  0.5286  1.4807  1.5002
  335MOL    H2147449   3.186   7.123   0.933 -1.1526 -1.3584  2.7201
  335MOL    H2247450   3.214   7.258   1.058  0.9963  0.3042 -0.2160
  335MOL    C2347451   3.481   7.186   0.701 -0.1909 -0.0473 -0.6729
  335MOL    C2447452   3.627   7.195   0.743 -0.2459 -1.0304 -0.2283
  335MOL    O2547453   3.468   7.099   0.594  0.7686 -0.0940 -0.2354
  335MOL    H2647454   3.458   7.288   0.674  0.1103  0.2370  0.1213
  335MOL    H2747455   3.664   7.107   0.797 -0.6007 -2.0933 -1.6865
  335MOL    H2847456   3.640   7.271   0.820 -1.6894  0.8563 -1.8048
  335MOL    H2947457   3.683   7.231   0.657 -1.0470 -0.1461 -0.3883
  335MOL    C3047458   3.358   7.127   0.516  0.0714  0.5093  0.2279
  335MOL    C3147459   3.425   7.190   0.394 -0.2273  0.4824 -0.3316
  335MOL    O3247460   3.300   7.010   0.478 -0.1344  0.2976 -0.0639
  335MOL    H3347461   3.287   7.197   0.558  1.3023  0.7610  1.9259
  335MOL    H3447462   3.466   7.122   0.320  0.5001  1.0257 -0.4376
  335MOL    H3547463   3.498   7.268   0.419 -0.6720  0.9684 -0.5299
  335MOL    H3647464   3.351   7.244   0.336  0.2498 -0.6012 -1.9775
  335MOL    C3747465   3.164   7.024   0.436 -0.0233  0.1677  0.5777
  335MOL    C3847466   3.157   6.992   0.290  0.3898  0.0526  0.1665
  335MOL    O3947467   3.100   6.922   0.506  0.4821  0.0848  0.2216
  335MOL    H4047468   3.109   7.115   0.458  1.4140  0.9663  0.9072
  335MOL    H4147469   3.186   7.078   0.230 -1.3987  0.4843 -0.1282
  335MOL    H4247470   3.054   6.978   0.257 -0.6058  1.5126  2.4846
  335MOL    H4347471   3.218   6.906   0.265  2.8952  2.0376 -0.7687
  335MOL    C4447472   3.109   6.945   0.644  0.4284  0.0560  0.0526
  335MOL    C4547473   2.965   6.977   0.691  0.4147 -0.6148 -0.4783
  335MOL    O4647474   3.140   6.829   0.712 -0.1369  0.0535 -0.1716
  335MOL    H4747475   3.171   7.028   0.679  0.6440 -0.6606  1.3771
  335MOL    H4847476   2.940   7.078   0.661 -0.3387 -0.6715 -0.0568
  335MOL    H4947477   2.965   6.985   0.800  0.5249  0.0408 -0.5267
  335MOL    H5047478   2.897   6.900   0.655  0.2859 -1.9346  2.4770
  335MOL    C5147479   3.283   6.802   0.722  0.3974 -0.1457  0.7129
  335MOL    C5247480   3.320   6.820   0.866  0.1991 -0.0795  0.2932
  335MOL    O5347481   3.315   6.670   0.690 -0.0617  0.4313  0.5101
  335MOL    H5447482   3.335   6.879   0.665 -0.3457  0.2818  0.6127
  335MOL    H5547483   3.278   6.914   0.904 -1.6871 -0.8375  0.1423
  335MOL    H5647484   3.426   6.814   0.889 -0.0011 -2.0703  0.7605
  335MOL    H5747485   3.275   6.735   0.917  2.2077 -2.8274 -2.3260
  335MOL    C5847486   3.322   6.645   0.550  0.2640 -0.4876 -0.3050
  335MOL    C5947487   3.464   6.589   0.518 -0.5212  0.0443 -0.7379
  335MOL    O6047488   3.231   6.543   0.513 -0.1243 -0.5414 -0.9613
  335MOL    H6147489   3.304   6.732   0.488 -0.8677 -0.8885 -0.5647
  335MOL    H6247490   3.482   6.581   0.411 -1.9887  0.5121 -1.0377
  335MOL    H6347491   3.488   6.496   0.569  1.1992  0.3474 -0.9691
  335MOL    H6447492   3.548   6.652   0.549 -0.3504 -0.6133  0.1480
  335MOL    C6547493   3.097   6.580   0.486  0.2105 -0.6632  0.1818
  335MOL    C6647494   3.080   6.572   0.339  0.0389  0.6386  0.5160
  335MOL    O6747495   3.013   6.486   0.536 -0.1031 -0.2883  0.1757
  335MOL    H6847496   3.069   6.680   0.521  0.7304 -0.8203  1.0508
  335MOL    H6947497   2.984   6.611   0.306 -0.7145 -0.3771  1.4659
  335MOL    H7047498   3.087   6.465   0.318  1.5045  0.5116  1.6046
  335MOL    H7147499   3.158   6.636   0.299  0.5021  0.3225  0.9152
  335MOL    C7247500   3.000   6.484   0.674  0.1923 -0.4767 -0.5964
  335MOL    C7347501   2.867   6.550   0.718 -0.3124  0.2241  0.3009
  335MOL    O7447502   2.994   6.352   0.717 -0.3662 -0.0596  0.4487
  335MOL    H7547503   3.084   6.527   0.727  0.6720  0.3194 -1.9643
  335MOL    H7647504   2.876   6.659   0.716 -0.6429  0.2511  0.2741
  335MOL    H7747505   2.843   6.538   0.824  1.1238  1.2194  0.7675
  335MOL    H7847506   2.781   6.520   0.658  0.7947 -0.7387 -0.8366
  335MOL    C7947507   3.110   6.273   0.730  0.5452  0.0037  0.2113
  335MOL    C8047508   3.129   6.237   0.879  0.3816 -0.7169 -0.5352
  335MOL    O8147509   3.098   6.153   0.656  0.0213 -0.0156  0.1013
  335MOL    H8247510   3.200   6.331   0.707  1.2576 -1.0674  0.2708
  335MOL    H8347511   3.041   6.184   0.915 -0.2807  1.0595  0.5557
  335MOL    H8447512   3.128   6.323   0.946 -1.9125  0.2683 -1.7616
  335MOL    H8547513   3.212   6.172   0.903 -0.8518 -2.2836 -0.4336
  335MOL    C8647514   3.173   6.161   0.540 -0.6333 -0.5368 -0.2599
  335MOL    C8747515   3.302   6.093   0.569  0.1223  0.5520  0.0358
  335MOL    O8847516   3.124   6.085   0.437  0.4885  0.4362 -0.6024
  335MOL    H8947517   3.179   6.260   0.495 -0.1068 -0.4483 -0.0021
  335MOL    H9047518   3.364   6.066   0.483  0.0041  0.1074  0.0874
  335MOL    H9147519   3.292   6.013   0.643 -0.5166  0.3986 -0.2144
  335MOL    H9247520   3.359   6.171   0.619  0.1233 -0.5413  1.7885
  335MOL    C9347521   3.013   6.148   0.375  0.2731  0.3900  0.1665
  335MOL    C9447522   3.063   6.202   0.237  0.1544 -0.6721 -0.4004
  335MOL    O9547523   2.906   6.057   0.353 -0.3564 -0.1271  0.2711
  335MOL    H9647524   2.977   6.235   0.430 -0.5101  1.4479 -1.9512
  335MOL    H9747525   2.999   6.279   0.194  0.3077 -1.1873 -1.5615
  335MOL    H9847526   3.085   6.117   0.173 -0.6143  0.3869 -2.1084
  335MOL    H9947527   3.152   6.261   0.260 -2.4115  3.1585  0.3874
  335MOL   C10047528   2.826   6.041   0.467  0.3176 -0.6860 -0.4916
  335MOL   C10147529   2.686   6.088   0.440  0.0550  0.1488 -0.5661
  335MOL   O10247530   2.814   5.901   0.492  0.1844 -0.8484  0.0507
  335MOL   H10347531   2.858   6.082   0.563 -0.0223 -1.8886  0.1588
  335MOL   H10447532   2.638   6.025   0.366 -1.9359  0.8078  0.1286
  335MOL   H10547533   2.671   6.195   0.427  2.6335  0.4252 -1.5413
  335MOL   H10647534   2.630   6.071   0.532 -0.5984 -1.3715 -1.2310
  335MOL   C10747535   2.905   5.852   0.587 -0.3196 -0.6860 -0.0898
  335MOL   C10847536   2.828   5.829   0.711 -0.9118  0.5641  0.2841
  335MOL   O10947537   2.953   5.729   0.552 -0.3425  0.0330 -0.3651
  335MOL   H11047538   2.986   5.923   0.601  0.0049 -1.1239  0.2787
  335MOL   H11147539   2.886   5.788   0.794 -1.6849  0.9550  1.0240
  335MOL   H11247540   2.758   5.751   0.681  0.3261 -0.4436 -0.0434
  335MOL   H11347541   2.773   5.918   0.741 -1.4146  1.4591 -3.0648
  335MOL   C11447542   3.034   5.733   0.441 -0.6362 -0.6162  0.4181
  335MOL   C11547543   3.174   5.707   0.489  0.5150 -0.3124  0.8190
  335MOL   O11647544   2.998   5.647   0.335 -0.5144  0.7287 -0.0052
  335MOL   H11747545   3.046   5.828   0.390  0.9842 -0.0237  1.8495
  335MOL   H11847546   3.241   5.717   0.403 -1.1058 -1.3527 -0.5953
  335MOL   H11947547   3.169   5.601   0.516 -1.7735  0.0275  1.8111
  335MOL   H12047548   3.205   5.764   0.577 -0.0884  2.7234 -0.8826
  335MOL   C12147549   2.862   5.641   0.298 -0.3035 -0.5499  0.1623
  335MOL   C12247550   2.849   5.754   0.197  0.6873  0.4096  0.4974
  335MOL   O12347551   2.824   5.528   0.233  0.1933  0.0104 -0.1502
  335MOL   H12447552   2.793   5.652   0.382 -1.7646 -0.5958 -0.9969
  335MOL   H12547553   2.918   5.748   0.113 -2.3108  2.5971 -2.3024
  335MOL   H12647554   2.847   5.851   0.248  0.2549  0.1222  1.0291
  335MOL   H12747555   2.748   5.745   0.156  1.1268 -0.8224 -0.3371
  335MOL   C12847556   2.850   5.409   0.306  0.4386  0.0670 -0.3698
  335MOL   C12947557   2.726   5.328   0.311  1.1761  0.4540 -0.4732
  335MOL   O13047558   2.945   5.335   0.243  0.1518  0.2984 -0.6737
  335MOL   H13147559   2.883   5.429   0.408 -0.5117  2.0000 -0.4246
  335MOL   H13247560   2.719   5.253   0.390 -1.4797 -1.3809 -2.3789
  335MOL   H13347561   2.709   5.268   0.222  0.7673  0.4148 -0.3692
  335MOL   H13447562   2.647   5.399   0.334  2.5175  1.2114  2.0573
  335MOL   C13547563   3.068   5.388   0.225  0.0441 -0.4014  0.1765
  335MOL   C13647564   3.145   5.276   0.170 -0.1951  0.6668 -0.2530
  335MOL   O13747565   3.064   5.484   0.124 -0.1780  0.1241  0.2056
  335MOL   H13847566   3.113   5.437   0.312  0.2070  0.2830 -0.2911
  335MOL   H13947567   3.248   5.303   0.145  0.7937 -0.2945  2.6020
  335MOL   H14047568   3.108   5.241   0.073  2.7294  1.1198 -1.6112
  335MOL   H14147569   3.145   5.189   0.236  1.4812 -0.2278 -1.3619
  335MOL   H14247570   2.992   5.538   0.154  0.9623 -0.0598  3.4013
  336MOL     C147571   7.746   5.167   1.811  0.2523 -0.0491  0.2402
  336MOL     C247572   7.711   5.032   1.876 -0.8441 -0.1570 -0.7929
  336MOL     O347573   7.789   5.253   1.918  0.3748  0.2147  0.0458
  336MOL     H447574   7.659   5.218   1.768 -0.3782 -0.5000  0.9596
  336MOL     H547575   7.794   5.003   1.940  2.0249  1.4683 -3.6262
  336MOL     H647576   7.684   4.964   1.795 -1.6142 -2.3318  1.2071
  336MOL     H747577   7.620   5.053   1.934  1.0148  0.2995  2.0686
  336MOL     H847578   7.821   5.158   1.733  0.3437  1.2575  0.1605
  336MOL     C947579   7.819   5.387   1.887  0.3590  0.7705 -0.5695
  336MOL    C1047580   7.709   5.473   1.951 -0.0239 -0.4130  0.4618
  336MOL    O1147581   0.022   5.423   1.942  0.2535 -0.8985 -0.2023
  336MOL    H1247582   7.818   5.401   1.779 -0.8097 -0.3507 -0.7214
  336MOL    H1347583   7.732   5.579   1.942 -0.0500 -0.2327  2.2596
  336MOL    H1447584   7.706   5.469   2.060  1.0269  2.5915  0.6549
  336MOL    H1547585   7.612   5.455   1.903 -0.2124  0.7529  0.3761
  336MOL    C1647586   0.132   5.377   1.871  0.2494  0.0379 -0.1757
  336MOL    C1747587   0.168   5.486   1.773  0.4531  0.1533  0.6797
  336MOL    O1847588   0.247   5.372   1.955  0.4233  0.9554  0.3853
  336MOL    H1947589   0.123   5.286   1.812 -1.0469  0.7442 -1.0776
  336MOL    H2047590   0.083   5.534   1.724  1.1480  2.5266  1.6971
  336MOL    H2147591   0.244   5.456   1.702  1.2616 -0.1812  1.6774
  336MOL    H2247592   0.210   5.566   1.835 -0.4807  1.6998 -0.6343
  336MOL    C2347593   0.252   5.258   2.029 -0.1054 -0.3344 -0.0418
  336MOL    C2447594   0.357   5.162   1.982  0.2997  0.0862 -0.3390
  336MOL    O2547595   0.282   5.300   2.158  0.7285 -0.0320 -0.0869
  336MOL    H2647596   0.156   5.207   2.018 -0.7549  0.9999 -0.8042
  336MOL    H2747597   0.454   5.212   1.970 -0.3399  1.1789 -1.1494
  336MOL    H2847598   0.322   5.111   1.892  1.4095  0.1016 -0.7934
  336MOL    H2947599   0.359   5.081   2.055 -0.7295 -0.2940 -0.7309
  336MOL    C3047600   0.178   5.349   2.235 -0.2601  0.8409  0.0396
  336MOL    C3147601   0.144   5.242   2.344  0.3686 -0.2537 -0.0724
  336MOL    O3247602   0.220   5.475   2.299 -0.3792  0.4040 -0.0874
  336MOL    H3347603   0.089   5.375   2.179 -2.0218 -0.8238  1.9956
  336MOL    H3447604   0.119   5.149   2.295 -0.7017  1.2947 -2.5520
  336MOL    H3547605   0.063   5.270   2.413  1.1292 -1.9878  1.5857
  336MOL    H3647606   0.227   5.217   2.410 -0.4574  0.2588  1.2048
  336MOL    C3747607   0.202   5.577   2.219  0.3229  0.1880 -0.0018
  336MOL    C3847608   0.090   5.668   2.283 -0.2626 -0.5177  0.2955
  336MOL    O3947609   0.317   5.664   2.222 -0.5555 -0.3368  0.3093
  336MOL    H4047610   0.184   5.560   2.113 -0.0955 -1.4131  0.3110
  336MOL    H4147611   0.075   5.756   2.221 -1.9807  0.7255  2.4592
  336MOL    H4247612   0.105   5.684   2.390  1.7130  1.2706 -0.2021
  336MOL    H4347613   7.909   5.616   2.287 -1.6045  1.8637 -0.0818
  336MOL    C4447614   0.429   5.623   2.155 -0.0556 -0.4492  0.2399
  336MOL    C4547615   0.466   5.725   2.047 -0.1524  0.1537  0.3157
  336MOL    O4647616   0.544   5.624   2.241  0.8659  0.2284 -0.2513
  336MOL    H4747617   0.408   5.521   2.122 -3.7299 -0.0420  1.0844
  336MOL    H4847618   0.569   5.714   2.013  0.6030  1.6242  2.0529
  336MOL    H4947619   0.458   5.828   2.080  1.6245  0.4250 -0.0533
  336MOL    H5047620   0.396   5.725   1.963  0.9095 -2.6821 -0.6400
  336MOL    C5147621   0.536   5.525   2.342 -0.4425 -0.3413 -0.1027
  336MOL    C5247622   0.637   5.410   2.312  0.3519 -0.2156 -0.1303
  336MOL    O5347623   0.579   5.577   2.468  0.8426  0.4910 -0.1243
  336MOL    H5447624   0.434   5.487   2.350  0.5586 -3.3306 -0.6467
  336MOL    H5547625   0.735   5.454   2.297  0.4537 -0.2416  0.4450
  336MOL    H5647626   0.605   5.358   2.222  0.0419 -1.5810  0.7498
  336MOL    H5747627   0.647   5.343   2.397  2.1585 -1.0637 -1.0027
  336MOL    C5847628   0.480   5.643   2.540 -0.0132  0.6338 -0.4122
  336MOL    C5947629   0.450   5.568   2.663  0.2227 -0.1505  0.3937
  336MOL    O6047630   0.518   5.776   2.576  0.2218  0.5003  0.0766
  336MOL    H6147631   0.384   5.648   2.490 -0.4617 -2.4389  0.0328
  336MOL    H6247632   0.542   5.560   2.721  0.1784 -2.2518  0.2051
  336MOL    H6347633   0.407   5.474   2.628 -2.0254  1.0663 -0.2225
  336MOL    H6447634   0.363   5.602   2.718  0.3980 -1.0873  1.2797
  336MOL    C6547635   0.520   5.863   2.463 -0.3232  0.4393 -0.2295
  336MOL    C6647636   0.411   5.970   2.483 -0.0874 -0.7513  0.0565
  336MOL    O6747637   0.639   5.939   2.460  0.3272 -0.4125  0.1211
  336MOL    H6847638   0.492   5.810   2.372  0.5960 -1.3854  0.5174
  336MOL    H6947639   0.399   6.029   2.392 -0.5082  1.7893  1.7031
  336MOL    H7047640   0.446   6.038   2.561  0.1921  1.6064 -2.0913
  336MOL    H7147641   0.313   5.925   2.503  0.1487 -0.4768  1.9916
  336MOL    C7247642   0.741   5.876   2.386  0.0756  0.2306 -0.2227
  336MOL    C7347643   0.767   5.954   2.259 -0.3925  0.9534  0.3163
  336MOL    O7447644   0.861   5.877   2.458  0.4866 -0.2857  0.4433
  336MOL    H7547645   0.708   5.775   2.362 -0.2374  0.4246 -0.6084
  336MOL    H7647646   0.670   5.969   2.212 -0.1596  0.9490 -0.1703
  336MOL    H7747647   0.837   5.909   2.189 -1.7758  2.1604 -1.9080
  336MOL    H7847648   0.818   6.046   2.288 -0.4342  0.3425  2.3935
  336MOL    C7947649   0.864   5.778   2.557 -1.2458 -0.2394 -0.1901
  336MOL    C8047650   0.984   5.685   2.531 -0.3233 -0.2090  0.2997
  336MOL    O8147651   0.896   5.826   2.687  0.1236  0.5911 -0.3297
  336MOL    H8247652   0.779   5.711   2.563 -1.3367 -0.0384  0.9347
  336MOL    H8347653   1.082   5.731   2.520 -0.0995 -1.1370 -1.8723
  336MOL    H8447654   0.961   5.629   2.440 -0.3792  1.9623 -1.0644
  336MOL    H8547655   0.992   5.614   2.613  2.2032 -0.3725 -0.0460
  336MOL    C8647656   0.780   5.870   2.754  0.0760  0.2775 -0.1779
  336MOL    C8747657   0.750   5.768   2.861 -0.2855  0.3417  0.0579
  336MOL    O8847658   0.787   5.994   2.812  0.1106  0.1546  0.2517
  336MOL    H8947659   0.695   5.888   2.688  0.3650  0.6259 -0.4559
  336MOL    H9047660   0.751   5.668   2.819 -0.6367  0.1304  0.5447
  336MOL    H9147661   0.658   5.796   2.913 -0.1732  0.1736  0.3484
  336MOL    H9247662   0.830   5.777   2.934 -0.7164 -1.0406  0.7179
  336MOL    C9347663   0.804   6.105   2.725  0.3421  0.1355 -0.1822
  336MOL    C9447664   0.688   6.202   2.760 -0.4378 -0.0991  0.1457
  336MOL    O9547665   0.926   6.168   2.756  0.5647 -0.6291  0.0551
  336MOL    H9647666   0.790   6.077   2.621 -1.0420  0.4117 -0.0780
  336MOL    H9747667   0.689   6.205   2.869  1.1157 -0.3144  0.1537
  336MOL    H9847668   0.595   6.174   2.711  0.7529  1.1571 -2.9598
  336MOL    H9947669   0.710   6.301   2.719 -0.8740 -0.0914 -0.0742
  336MOL   C10047670   1.016   6.160   2.653 -0.0123 -0.1808 -0.2153
  336MOL   C10147671   0.979   6.260   2.547  0.0024 -0.0875  0.9287
  336MOL   O10247672   1.142   6.186   2.706  0.3079 -0.5275 -0.7580
  336MOL   H10347673   1.018   6.059   2.612 -2.8110 -0.5900  0.5625
  336MOL   H10447674   1.053   6.252   2.467 -0.6218 -0.5292  0.3879
  336MOL   H10547675   0.982   6.362   2.585  0.9780  0.0983  0.3724
  336MOL   H10647676   0.884   6.232   2.501 -0.8955  0.7557  2.2675
  336MOL   C10747677   1.179   6.074   2.783 -0.6265  0.2215 -0.5471
  336MOL   C10847678   1.295   6.013   2.708  0.2300 -0.4925  0.2869
  336MOL   O10947679   1.243   6.112   2.903 -0.1862 -0.7809  0.4083
  336MOL   H11047680   1.102   5.999   2.799 -2.8091  2.3003 -1.0939
  336MOL   H11147681   1.331   5.922   2.755  3.3786 -0.1907 -1.4121
  336MOL   H11247682   1.378   6.083   2.710 -0.2449  0.0630  0.5210
  336MOL   H11347683   1.258   6.001   2.606 -0.3112 -1.4125  0.5853
  336MOL   C11447684   1.150   6.159   2.993  0.2696 -0.2940  0.4532
  336MOL   C11547685   1.158   6.061   3.106  0.3407  0.2104 -0.0027
  336MOL   O11647686   1.189   6.281   3.046 -0.0727 -0.5673  0.1822
  336MOL   H11747687   1.044   6.163   2.968  0.0068 -1.7292  1.2498
  336MOL   H11847688   1.151   5.958   3.072  1.2444 -0.1871  0.9919
  336MOL   H11947689   1.077   6.072   3.178  0.9911  0.2122  0.7412
  336MOL   H12047690   1.254   6.072   3.158 -0.1630  0.4901  0.8847
  336MOL   C12147691   1.146   6.393   2.966  0.0375  0.4240  0.3840
  336MOL   C12247692   1.057   6.480   3.054 -0.1813  0.1422 -0.2422
  336MOL   O12347693   1.255   6.481   2.928  0.1999 -0.2675 -0.0586
  336MOL   H12447694   1.100   6.373   2.869  0.8563  0.0860  0.0625
  336MOL   H12547695   0.993   6.551   3.000  0.6037  0.8029 -0.3099
  336MOL   H12647696   1.117   6.539   3.123 -1.1269  1.6353 -0.6593
  336MOL   H12747697   0.995   6.411   3.112  0.6484  0.1555  0.6750
  336MOL   C12847698   1.341   6.434   2.824 -0.4949 -0.4267  0.2558
  336MOL   C12947699   1.344   6.522   2.706 -0.0077 -0.7762  1.0784
  336MOL   O13047700   1.470   6.432   2.868  0.6937 -0.1471  0.1659
  336MOL   H13147701   1.323   6.334   2.785  1.1249 -1.0099  0.9470
  336MOL   H13247702   1.395   6.468   2.627 -1.6390 -0.5880 -0.1275
  336MOL   H13347703   1.397   6.615   2.724 -0.1472 -0.4682 -0.0749
  336MOL   H13447704   1.243   6.530   2.665  0.2959  1.8642  0.7407
  336MOL   C13547705   1.509   6.313   2.933  0.6808  0.2749  0.0231
  336MOL   C13647706   1.664   6.303   2.908  0.2971  0.5101  0.0343
  336MOL   O13747707   1.474   6.315   3.071 -0.1493  0.2429  0.2338
  336MOL   H13847708   1.460   6.225   2.892  0.1784  0.6165 -0.1083
  336MOL   H13947709   1.711   6.225   2.968 -0.3524 -0.3006 -0.4957
  336MOL   H14047710   1.713   6.396   2.937  1.1558  0.2725 -0.6595
  336MOL   H14147711   1.682   6.275   2.804  2.5264 -1.0891  0.8277
  336MOL   H14247712   1.386   6.350   3.073  0.3622  1.5691  0.0140
  337MOL     C147713   2.322   7.186   0.402 -0.5094 -0.3206  0.1327
  337MOL     C247714   2.305   7.323   0.341  0.5024  0.1197  0.1100
  337MOL     O347715   2.421   7.115   0.329  0.0484 -0.5480 -0.1739
  337MOL     H447716   2.231   7.126   0.409 -1.2705  1.0287  2.5750
  337MOL     H547717   2.234   7.380   0.400  2.0170 -1.2866  3.3639
  337MOL     H647718   2.266   7.323   0.239  1.6070  0.7879 -0.3202
  337MOL     H747719   2.395   7.384   0.331  2.4576 -2.6174  0.4851
  337MOL     H847720   2.367   7.209   0.498  0.1089 -0.3004 -0.1602
  337MOL     C947721   2.462   6.995   0.370  0.5971  0.1804  0.5376
  337MOL    C1047722   2.359   6.884   0.333 -0.3590  0.2021 -0.0607
  337MOL    O1147723   2.577   6.955   0.299  0.5899  0.1465 -0.3749
  337MOL    H1247724   2.483   6.997   0.477  2.3283  1.5016  0.1952
  337MOL    H1347725   2.263   6.922   0.369  0.2993  1.7315  0.1421
  337MOL    H1447726   2.393   6.785   0.361  0.0116  0.2988 -0.1680
  337MOL    H1547727   2.352   6.884   0.224 -0.1649  0.8733 -0.0769
  337MOL    C1647728   2.681   7.045   0.297 -0.0559 -0.8546  0.0034
  337MOL    C1747729   2.794   6.977   0.377  0.0794 -0.3525 -0.0786
  337MOL    O1847730   2.740   7.066   0.170  0.2508  0.1245 -0.2229
  337MOL    H1947731   2.662   7.137   0.352 -0.7975 -0.5475 -0.7593
  337MOL    H2047732   2.757   6.925   0.466  1.4341 -2.5075 -0.7221
  337MOL    H2147733   2.875   7.046   0.401 -1.0104  0.6779  0.6640
  337MOL    H2247734   2.845   6.908   0.310 -0.3790 -0.5260 -0.2519
  337MOL    C2347735   2.652   7.123   0.076 -0.9416 -1.6224 -0.6210
  337MOL    C2447736   2.719   7.258   0.046 -0.2943 -0.5976 -0.5192
  337MOL    O2547737   2.660   7.052   7.871 -0.0053 -0.1223 -0.7994
  337MOL    H2647738   2.553   7.136   0.118 -0.0941 -0.7256  1.1803
  337MOL    H2747739   2.699   7.324   0.130 -0.4604  1.6517 -2.2910
  337MOL    H2847740   2.686   7.301   7.866 -2.1404 -1.0843 -0.1204
  337MOL    H2947741   2.827   7.250   0.031  0.0885 -1.5930  2.2750
  337MOL    C3047742   2.603   6.928   7.886 -0.3321  0.0022 -0.3649
  337MOL    C3147743   2.469   6.927   7.813  0.6586  0.1298  0.1993
  337MOL    O3247744   2.688   6.838   7.825  0.0703  0.1716 -0.3922
  337MOL    H3347745   2.585   6.895   0.074 -1.7526 -0.1463 -0.6592
  337MOL    H3447746   2.452   6.832   7.764 -1.0173 -0.1287  1.2286
  337MOL    H3547747   2.471   7.008   7.740  0.6171 -1.1608 -1.2432
  337MOL    H3647748   2.389   6.950   7.884 -0.5918 -0.8265 -0.8690
  337MOL    C3747749   2.805   6.811   7.899 -0.4458 -0.6479  0.1347
  337MOL    C3847750   2.779   6.683   0.067 -0.8126 -0.2350 -0.2331
  337MOL    O3947751   2.907   6.786   7.809 -0.4057  0.4630 -0.0035
  337MOL    H4047752   2.834   6.881   0.063 -1.7460 -0.6122  0.5934
  337MOL    H4147753   2.733   6.597   0.020 -0.5956 -0.0765 -0.7440
  337MOL    H4247754   2.719   6.717   0.151  0.2520  0.1862  0.3782
  337MOL    H4347755   2.878   6.655   0.105 -0.2470  1.0705 -0.7023
  337MOL    C4447756   2.963   6.903   7.756 -0.4227  0.1968 -0.5197
  337MOL    C4547757   3.085   6.935   7.842 -0.4431  0.4376 -0.7060
  337MOL    O4647758   2.998   6.874   7.630  0.0518 -0.1796 -0.7035
  337MOL    H4747759   2.893   6.986   7.759 -0.5887  0.1738 -2.8961
  337MOL    H4847760   3.137   7.008   7.780  1.4747  0.0775  0.4758
  337MOL    H4947761   3.158   6.856   7.858  0.1066  1.7047  3.5350
  337MOL    H5047762   3.055   6.987   0.019 -2.7710 -1.0735 -0.5550
  337MOL    C5147763   2.885   6.872   7.547 -0.6295  0.5887 -0.3290
  337MOL    C5247764   2.849   7.015   7.511 -0.3575  0.0504 -0.2114
  337MOL    O5347765   2.921   6.812   7.427  0.4597  0.7653  0.1789
  337MOL    H5447766   2.795   6.821   7.582 -0.2468 -0.7233 -1.2175
  337MOL    H5547767   2.945   7.064   7.496  0.8763 -2.6420 -1.5803
  337MOL    H5647768   2.790   7.058   7.591 -1.9338 -3.0778  0.3992
  337MOL    H5747769   2.781   7.019   7.426 -1.9782 -1.1795  0.9996
  337MOL    C5847770   2.931   6.671   7.439  0.3269  0.6090  0.2687
  337MOL    C5947771   2.810   6.615   7.357 -0.3582  0.2064 -0.0713
  337MOL    O6047772   3.049   6.613   7.387  0.2796  0.4502 -0.0541
  337MOL    H6147773   2.917   6.645   7.544 -1.0177  0.3329  0.0333
  337MOL    H6247774   2.833   6.649   7.256  2.1483  2.1464  1.0929
  337MOL    H6347775   2.718   6.668   7.381 -0.1856  0.2044  0.5969
  337MOL    H6447776   2.803   6.507   7.370 -0.4507  0.5001  2.6009
  337MOL    C6547777   3.152   6.599   7.482  0.2817 -0.0694  0.0785
  337MOL    C6647778   3.183   6.439   7.501 -0.7286 -0.3265  0.1083
  337MOL    O6747779   3.271   6.656   7.431  0.1137 -0.0799 -0.2350
  337MOL    H6847780   3.130   6.643   7.579  2.3014 -1.9525  1.4348
  337MOL    H6947781   3.248   6.412   7.418  2.4690  1.6982  1.8478
  337MOL    H7047782   3.088   6.387   7.501 -1.1437  0.4217  0.1751
  337MOL    H7147783   3.224   6.427   7.601 -0.5523  0.6331  0.1583
  337MOL    C7247784   3.275   6.797   7.429 -0.2907 -0.3022  0.5018
  337MOL    C7347785   3.340   6.855   7.557  0.3718 -0.6510  0.0024
  337MOL    O7447786   3.354   6.836   7.314  0.5583 -0.1917  0.5344
  337MOL    H7547787   3.174   6.835   7.413  0.0422 -0.2587 -1.5518
  337MOL    H7647788   3.273   6.839   7.641 -0.2710 -2.7849 -0.8966
  337MOL    H7747789   3.358   6.962   7.545 -2.2045 -0.4036 -1.9918
  337MOL    H7847790   3.427   6.797   7.588  1.9579  0.1306 -2.7927
  337MOL    C7947791   3.279   6.830   7.195 -0.5158 -0.2363 -0.0217
  337MOL    C8047792   3.218   6.965   7.148  0.1753 -0.1689 -0.1973
  337MOL    O8147793   3.369   6.800   7.095  0.1991  0.7662 -0.4446
  337MOL    H8247794   3.193   6.763   7.206 -0.5067 -0.1358  0.7355
  337MOL    H8347795   3.292   7.045   7.150  0.2237 -0.2472  3.0509
  337MOL    H8447796   3.136   6.995   7.213 -0.3779  0.7575 -1.2875
  337MOL    H8547797   3.174   6.957   7.048 -0.9655 -0.3377  0.3149
  337MOL    C8647798   3.407   6.663   7.099  0.1577 -0.1043  0.0441
  337MOL    C8747799   3.364   6.596   6.967 -0.3217 -0.1237 -0.2008
  337MOL    O8847800   3.541   6.653   7.107 -0.6780 -0.3631  0.6862
  337MOL    H8947801   3.360   6.600   7.175 -0.9675 -0.0983 -0.6432
  337MOL    H9047802   3.255   6.596   6.966 -0.3271 -0.7456 -1.6396
  337MOL    H9147803   3.393   6.491   6.974  1.3866  0.4343  1.1677
  337MOL    H9247804   3.400   6.651   6.880 -0.4029  0.6393  0.2460
  337MOL    C9347805   3.592   6.629   7.236 -0.6381  0.1821  0.6634
  337MOL    C9447806   3.621   6.479   7.234  0.4789 -0.3737 -0.1419
  337MOL    O9547807   3.715   6.699   7.246 -0.6052 -0.4953 -0.2661
  337MOL    H9647808   3.531   6.663   7.319  0.2978 -0.2593  1.5405
  337MOL    H9747809   3.523   6.431   7.232 -0.1719  0.8625  0.9863
  337MOL    H9847810   3.672   6.447   7.324 -0.7374 -1.1856  0.2632
  337MOL    H9947811   3.685   6.442   7.153  0.2672 -2.1740  0.4974
  337MOL   C10047812   3.698   6.838   7.264  0.9747 -0.1703  0.5971
  337MOL   C10147813   3.779   6.868   7.393  0.0336 -0.4232  0.9907
  337MOL   O10247814   3.771   6.903   7.166  0.5606  0.3853  0.0317
  337MOL   H10347815   3.596   6.875   7.269  0.4487 -1.5648  0.1373
  337MOL   H10447816   3.747   6.810   7.480  0.6016  0.9479  2.1345
  337MOL   H10547817   3.742   6.969   7.408  2.4976  0.7109 -0.2701
  337MOL   H10647818   3.887   6.862   7.377  0.0199  0.8460  0.4076
  337MOL   C10747819   3.702   6.946   7.049 -0.1787 -0.1074 -0.1632
  337MOL   C10847820   3.675   7.099   7.061 -0.3009 -0.2210 -0.1083
  337MOL   O10947821   3.782   6.929   6.934 -0.1531  0.1324 -0.0091
  337MOL   H11047822   3.610   6.888   7.049 -0.4288  0.2905 -0.0731
  337MOL   H11147823   3.613   7.116   7.149 -1.7322 -0.2972 -1.0974
  337MOL   H11247824   3.614   7.144   6.982 -0.1265  0.4753  0.1443
  337MOL   H11347825   3.768   7.155   7.075 -0.1132 -0.9327  1.6108
  337MOL   C11447826   3.788   6.792   6.896 -0.0449 -0.4200 -0.1438
  337MOL   C11547827   3.695   6.779   6.778  0.4778 -0.2207 -0.6280
  337MOL   O11647828   3.915   6.764   6.861 -0.1078 -0.1403  0.3048
  337MOL   H11747829   3.754   6.719   6.969 -0.2703  0.0211  0.1927
  337MOL   H11847830   3.595   6.817   6.797  0.4104 -0.8741  0.3336
  337MOL   H11947831   3.688   6.673   6.754 -5.0219 -0.4202  1.3801
  337MOL   H12047832   3.722   6.837   6.689  1.2227  2.8732  1.5249
  337MOL   C12147833   4.001   6.741   6.972  0.1926  0.8078 -0.0233
  337MOL   C12247834   4.020   6.590   6.985 -0.5397 -0.0688  0.6413
  337MOL   O12347835   4.128   6.798   6.957  0.1714 -0.9587 -0.1965
  337MOL   H12447836   3.952   6.776   7.064  1.8637  0.2402  1.1102
  337MOL   H12547837   3.928   6.539   7.014 -0.6833  0.3176  0.8613
  337MOL   H12647838   4.093   6.565   7.063 -1.1268 -4.2196  0.0037
  337MOL   H12747839   4.052   6.557   6.886  2.6074  0.5845  1.3748
  337MOL   C12847840   4.118   6.941   6.967  0.8584 -0.3757 -0.2884
  337MOL   C12947841   4.188   7.002   7.101  0.3345  0.1009  0.0327
  337MOL   O13047842   4.175   7.010   6.856 -0.1377 -0.4768 -0.1674
  337MOL   H13147843   4.015   6.976   6.957  0.7178 -1.0188 -1.2188
  337MOL   H13247844   4.156   6.944   7.187 -1.3656 -0.6519 -1.0604
  337MOL   H13347845   4.146   7.103   7.108 -1.6776 -0.8356  2.6443
  337MOL   H13447846   4.294   7.004   7.079 -0.1009 -2.1417 -2.5398
  337MOL   C13547847   4.103   7.002   6.733 -0.0617  0.6230  0.4433
  337MOL   C13647848   4.146   7.112   6.638 -0.3237 -0.0088 -0.2377
  337MOL   O13747849   4.144   6.881   6.673  0.0452 -0.6272  0.0819
  337MOL   H13847850   3.994   7.008   6.742 -0.2397 -2.4058  0.6263
  337MOL   H13947851   4.252   7.104   6.618 -0.2792  0.8086 -0.3299
  337MOL   H14047852   4.122   7.202   6.695  0.5681 -0.7246  1.3217
  337MOL   H14147853   4.088   7.107   6.546 -3.0040  0.1695  1.3807
  337MOL   H14247854   4.129   6.807   6.730  1.0899 -0.9297 -0.0189
  338MOL     C147855   2.251   2.594   4.621  0.0012 -0.1825  0.2208
  338MOL     C247856   2.350   2.604   4.501  0.0057 -0.0366  0.0024
  338MOL     O347857   2.118   2.629   4.580 -0.1382 -0.2745 -0.1991
  338MOL     H447858   2.294   2.656   4.699 -0.4558 -0.2295  0.5096
  338MOL     H547859   2.319   2.546   4.414 -0.9083  0.0568  0.2602
  338MOL     H647860   2.438   2.555   4.544  0.4478  0.6571 -0.1021
  338MOL     H747861   2.387   2.706   4.487 -0.4527  0.3269  1.3700
  338MOL     H847862   2.260   2.494   4.663  0.9909 -1.7510 -3.4879
  338MOL     C947863   2.023   2.600   4.677 -0.0915 -0.6553 -0.3434
  338MOL    C1047864   1.974   2.733   4.747  0.0155 -0.3479  0.2310
  338MOL    O1147865   1.902   2.550   4.619 -0.9519  0.5393 -0.3512
  338MOL    H1247866   2.049   2.528   4.755  1.1188 -1.5344 -1.5319
  338MOL    H1347867   1.924   2.792   4.670  0.2500 -4.1307 -2.9993
  338MOL    H1447868   2.055   2.792   4.790  0.2538 -1.1616  0.9132
  338MOL    H1547869   1.898   2.698   4.816 -0.3591 -2.1093 -1.0340
  338MOL    C1647870   1.916   2.448   4.531 -0.0866  0.1121  0.7124
  338MOL    C1747871   1.945   2.316   4.608 -0.6984  0.3843 -0.6243
  338MOL    O1847872   1.797   2.433   4.458  0.2620  0.4762  0.1767
  338MOL    H1947873   1.993   2.472   4.458 -0.9120  1.3266  0.2320
  338MOL    H2047874   2.046   2.307   4.649 -0.0092 -0.5186 -2.4257
  338MOL    H2147875   1.942   2.237   4.533  0.5858 -0.2829  0.0266
  338MOL    H2247876   1.873   2.291   4.685  0.0988  1.2239  0.4016
  338MOL    C2347877   1.763   2.544   4.385 -0.0452  0.0712 -0.3279
  338MOL    C2447878   1.839   2.531   4.249  0.0915  0.4625  0.3544
  338MOL    O2547879   1.628   2.548   4.352 -0.2908 -0.3020  0.2323
  338MOL    H2647880   1.790   2.639   4.430 -2.9535  1.2634 -0.9742
  338MOL    H2747881   1.946   2.518   4.263  0.4120  2.9216  0.3377
  338MOL    H2847882   1.830   2.631   4.207  2.2944  0.9900  1.0727
  338MOL    H2947883   1.799   2.448   4.191  1.9593 -0.0110 -0.2864
  338MOL    C3047884   1.542   2.549   4.463  0.2648 -0.2948 -0.0782
  338MOL    C3147885   1.520   2.695   4.499  0.1099  0.1506 -0.0034
  338MOL    O3247886   1.414   2.496   4.428  0.4058  0.1075 -0.5821
  338MOL    H3347887   1.581   2.489   4.544 -0.9252 -0.3431  0.4710
  338MOL    H3447888   1.614   2.735   4.538 -0.9368  3.0648 -0.3582
  338MOL    H3547889   1.448   2.709   4.580  0.0358 -0.5457  0.0490
  338MOL    H3647890   1.504   2.756   4.410 -0.7135  0.6602  0.4928
  338MOL    C3747891   1.411   2.374   4.359  0.3371 -0.5956 -0.3296
  338MOL    C3847892   1.462   2.265   4.451  0.0686 -0.0343 -0.3725
  338MOL    O3947893   1.283   2.350   4.320 -0.0850  0.4776 -0.3606
  338MOL    H4047894   1.476   2.384   4.272  1.6778  1.8586  0.8858
  338MOL    H4147895   1.570   2.270   4.462 -0.1875 -1.4811  3.6036
  338MOL    H4247896   1.452   2.174   4.392 -1.8443  0.0470 -0.2034
  338MOL    H4347897   1.415   2.255   4.549  0.6072  0.5910 -0.0429
  338MOL    C4447898   1.233   2.443   4.229 -0.2991 -0.3074  0.5700
  338MOL    C4547899   1.214   2.376   4.097  0.1584 -0.2027 -0.0302
  338MOL    O4647900   1.111   2.497   4.268 -0.2377 -0.1517  0.0858
  338MOL    H4747901   1.313   2.516   4.217 -0.8162  0.0877 -0.6509
  338MOL    H4847902   1.178   2.447   4.023  0.4634  0.5861  0.5733
  338MOL    H4947903   1.146   2.292   4.111  0.6610 -0.7568 -0.8873
  338MOL    H5047904   1.312   2.342   4.063 -0.6668 -0.9774 -1.6712
  338MOL    C5147905   1.105   2.533   4.405  0.1154 -0.6397 -0.2463
  338MOL    C5247906   1.142   2.685   4.414 -0.5157 -0.6127 -0.2903
  338MOL    O5347907   0.970   2.528   4.443 -0.8806  0.1413 -0.2917
  338MOL    H5447908   1.170   2.480   4.474  0.2219  1.7929  1.5576
  338MOL    H5547909   1.130   2.725   4.515  1.3859  1.8910 -0.9892
  338MOL    H5647910   1.087   2.742   4.339 -0.0682 -0.1985 -0.3134
  338MOL    H5747911   1.249   2.692   4.391 -0.6132  1.5787 -0.2201
  338MOL    C5847912   0.916   2.410   4.429  0.6014  0.2352 -0.1205
  338MOL    C5947913   0.899   2.342   4.568 -0.4036 -0.2571 -0.3933
  338MOL    O6047914   0.792   2.415   4.374  0.4010 -0.3315 -0.1697
  338MOL    H6147915   0.974   2.341   4.368  0.0102 -0.1610 -0.2404
  338MOL    H6247916   0.823   2.396   4.624 -2.9359 -1.1107 -2.9079
  338MOL    H6347917   0.996   2.334   4.618 -1.6655  0.5253  2.2783
  338MOL    H6447918   0.852   2.244   4.561 -2.8718  0.8796 -0.3876
  338MOL    C6547919   0.782   2.479   4.249  0.5484 -0.1926  0.3846
  338MOL    C6647920   0.763   2.375   4.147  0.0337 -0.2690  0.1965
  338MOL    O6747921   0.661   2.556   4.244  0.3788 -0.5415 -0.2984
  338MOL    H6847922   0.868   2.544   4.236  0.2779  0.3699  1.3427
  338MOL    H6947923   0.852   2.315   4.131 -0.4334 -0.4504 -1.8601
  338MOL    H7047924   0.746   2.416   4.047 -0.7650 -0.8024  0.1055
  338MOL    H7147925   0.683   2.308   4.177  0.4720 -0.9770 -0.2150
  338MOL    C7247926   0.666   2.666   4.333 -0.4895  0.4093  0.2425
  338MOL    C7347927   0.687   2.797   4.259  1.0656  0.5087 -0.0257
  338MOL    O7447928   0.540   2.678   4.395 -0.0380 -0.4675 -0.2000
  338MOL    H7547929   0.751   2.652   4.399  1.7361  1.0526 -2.4218
  338MOL    H7647930   0.606   2.819   4.191  2.4747 -1.4977 -2.4232
  338MOL    H7747931   0.775   2.790   4.195  1.2455  0.2624  0.2472
  338MOL    H7847932   0.704   2.887   4.318 -2.4392  1.6155 -0.6469
  338MOL    C7947933   0.503   2.587   4.489 -0.5130  0.0595  0.6446
  338MOL    C8047934   0.576   2.623   4.617  1.0538 -0.3009  0.5899
  338MOL    O8147935   0.370   2.609   4.507  0.0755 -0.2091  0.8161
  338MOL    H8247936   0.523   2.485   4.457 -2.7049  0.2215 -1.3825
  338MOL    H8347937   0.678   2.585   4.614  0.8287 -0.8892  0.2442
  338MOL    H8447938   0.517   2.579   4.697 -1.1318  1.1361 -0.1911
  338MOL    H8547939   0.580   2.731   4.633 -0.0863 -0.3564  1.2682
  338MOL    C8647940   0.288   2.561   4.407 -0.3065  0.1882 -0.5801
  338MOL    C8747941   0.236   2.420   4.439  0.3183  0.2877  0.0147
  338MOL    O8847942   0.178   2.638   4.371  0.4530  0.0687 -0.0267
  338MOL    H8947943   0.345   2.555   4.314  1.1122 -0.0678  0.2847
  338MOL    H9047944   0.176   2.435   4.528  0.2595 -0.0808  0.0352
  338MOL    H9147945   0.314   2.347   4.455 -0.8529 -0.9893 -0.0061
  338MOL    H9247946   0.179   2.374   4.358 -0.2633  1.5008 -0.2781
  338MOL    C9347947   0.199   2.758   4.304  0.2798 -0.3194  0.0036
  338MOL    C9447948   0.141   2.737   4.166  0.1653  0.2160 -0.4121
  338MOL    O9547949   0.127   2.860   4.362  0.0178 -0.4715 -0.4153
  338MOL    H9647950   0.305   2.785   4.303  0.1653  0.1166 -0.8323
  338MOL    H9747951   0.190   2.646   4.130  0.8675 -0.1602  1.4276
  338MOL    H9847952   0.179   2.811   4.096  1.7555 -1.3361 -1.2477
  338MOL    H9947953   0.033   2.728   4.180  0.2873 -1.0410 -0.1919
  338MOL   C10047954   0.164   2.904   4.487 -0.7366 -0.2355  0.3900
  338MOL   C10147955   0.286   3.000   4.463  0.2736  0.6828  0.0207
  338MOL   O10247956   0.067   2.977   4.544 -0.1524  0.2425 -0.5373
  338MOL   H10347957   0.184   2.819   4.552  0.7872  0.4973  0.9150
  338MOL   H10447958   0.291   3.060   4.554 -2.5874  0.6238  0.2811
  338MOL   H10547959   0.265   3.063   4.377  2.2520  1.1552 -0.1403
  338MOL   H10647960   0.379   2.946   4.448 -1.0130 -1.8138  0.7357
  338MOL   C10747961   7.879   2.897   4.597  0.2267 -0.1836 -0.0965
  338MOL   C10847962   7.894   2.921   4.756 -0.2300  0.2434 -0.0685
  338MOL   O10947963   7.755   2.950   4.566 -0.2765 -0.2134  0.1605
  338MOL   H11047964   7.883   2.789   4.578 -1.6217 -0.3807  0.5437
  338MOL   H11147965   7.838   2.850   4.817  3.2792 -1.6342  1.0847
  338MOL   H11247966   7.855   3.022   4.772 -2.1274 -0.1436 -1.9301
  338MOL   H11347967   0.080   2.909   4.797 -0.2737  0.2193  0.0316
  338MOL   C11447968   7.715   2.931   4.431  0.1622 -0.8870  0.2724
  338MOL   C11547969   7.627   2.815   4.421 -0.5976 -0.9063  0.1722
  338MOL   O11647970   7.646   3.046   4.395  0.1607  0.0830  0.6253
  338MOL   H11747971   7.797   2.915   4.361 -2.8686 -2.9393 -2.9600
  338MOL   H11847972   7.581   2.827   4.322 -0.4830 -0.5274  0.1662
  338MOL   H11947973   7.555   2.807   4.502  1.3778 -1.8929  1.8673
  338MOL   H12047974   7.692   2.728   4.415 -0.2880 -0.6108 -0.8599
  338MOL   C12147975   7.728   3.161   4.385  0.2644 -0.6006  0.3465
  338MOL   C12247976   7.714   3.221   4.246 -0.3595  0.0602  0.6134
  338MOL   O12347977   7.678   3.259   4.468 -0.5975 -0.0798 -0.8476
  338MOL   H12447978   7.833   3.145   4.410 -0.2036 -1.4066  1.8809
  338MOL   H12547979   7.774   3.161   4.177 -1.5963  0.2202 -0.6289
  338MOL   H12647980   7.739   3.326   4.245 -0.1528  0.0123  0.8287
  338MOL   H12747981   7.611   3.214   4.210 -0.2062 -0.0895  0.2044
  338MOL   C12847982   7.743   3.265   4.590 -0.1048 -0.2356  0.1558
  338MOL   C12947983   7.847   3.380   4.585  0.6051 -0.6903 -0.0329
  338MOL   O13047984   7.647   3.289   4.688 -0.7520 -0.4712 -0.0431
  338MOL   H13147985   7.791   3.170   4.614  0.0142 -0.7352 -1.9391
  338MOL   H13247986   7.897   3.382   4.682 -1.5388 -1.7109  1.1443
  338MOL   H13347987   7.789   3.469   4.562  1.7596  0.7162  2.2559
  338MOL   H13447988   0.004   3.349   4.509  0.1727 -0.3171 -0.5954
  338MOL   C13547989   7.555   3.183   4.719 -0.1377 -0.0169 -0.0705
  338MOL   C13647990   7.574   3.146   4.871  0.1846  0.2481 -0.3541
  338MOL   O13747991   7.429   3.231   4.701  0.0540  0.2238  0.1217
  338MOL   H13847992   7.573   3.099   4.652  1.9606  1.8719 -2.0079
  338MOL   H13947993   7.640   3.064   4.898 -1.0628 -0.9936 -0.9613
  338MOL   H14047994   7.476   3.149   4.919  0.9571  0.9336  1.2001
  338MOL   H14147995   7.612   3.229   4.930  0.8625  0.4419 -1.0528
  338MOL   H14247996   7.417   3.241   4.608  0.5975  0.9734  0.1332
  339MOL     C147997   2.636   1.225   4.701 -0.7366 -0.5902  0.6420
  339MOL     C247998   2.719   1.323   4.620  0.3717  0.0593 -0.3035
  339MOL     O347999   2.686   1.202   4.836 -0.2357  0.0359 -0.3279
  339MOL     H448000   2.636   1.131   4.646 -0.7651  0.4358 -1.1505
  339MOL     H548001   2.825   1.296   4.618 -0.6173 -4.2206 -0.1101
  339MOL     H648002   2.716   1.426   4.656  0.3728  1.0984 -3.1427
  339MOL     H748003   2.678   1.330   4.519 -0.4427 -2.5376 -0.1829
  339MOL     H848004   2.541   1.275   4.719  0.5519  1.1332  3.0382
  339MOL     C948005   2.608   1.108   4.909  0.3503 -0.0216  0.0974
  339MOL    C1048006   2.712   0.987   4.931  0.1974 -0.2393 -0.1430
  339MOL    O1148007   2.576   1.157   5.031  0.0792 -0.4419 -0.6265
  339MOL    H1248008   2.523   1.071   4.852 -1.2252  2.0143  1.0593
  339MOL    H1348009   2.764   0.960   4.839  0.7068  1.3449 -0.3258
  339MOL    H1448010   2.653   0.900   4.961  0.9182 -0.7227 -0.0963
  339MOL    H1548011   2.799   1.012   4.992 -0.5043 -0.5192  1.0010
  339MOL    C1648012   2.459   1.234   5.035 -0.6274  0.2684 -0.4508
  339MOL    C1748013   2.354   1.155   5.110 -0.0008  0.5466 -0.0301
  339MOL    O1848014   2.473   1.349   5.120  0.5283  0.0740 -0.0851
  339MOL    H1948015   2.412   1.269   4.943 -0.9531  2.8184  0.6348
  339MOL    H2048016   2.392   1.132   5.209  0.8304 -3.9772 -1.2894
  339MOL    H2148017   2.337   1.061   5.056  0.4977  0.6259 -0.3279
  339MOL    H2248018   2.264   1.216   5.113 -0.9303 -0.6948 -1.6401
  339MOL    C2348019   2.527   1.451   5.047  0.0219  0.3670  0.7635
  339MOL    C2448020   2.421   1.565   5.040  0.3336  0.2788  0.6814
  339MOL    O2548021   2.637   1.512   5.112  0.2445 -0.0579 -0.3294
  339MOL    H2648022   2.559   1.428   4.945 -1.4081 -0.2019  0.4348
  339MOL    H2748023   2.413   1.609   5.140 -2.5654  2.2680 -0.3540
  339MOL    H2848024   2.330   1.532   4.990  1.2325 -2.5017  0.8074
  339MOL    H2948025   2.464   1.642   4.976  1.2867  0.2366  1.2653
  339MOL    C3048026   2.752   1.438   5.102  0.0492  0.0904  0.5446
  339MOL    C3148027   2.847   1.521   5.019  0.2614 -0.0779 -0.7419
  339MOL    O3248028   2.813   1.413   5.226  0.0493 -0.2959 -0.3213
  339MOL    H3348029   2.732   1.349   5.042  0.0796 -0.4316  1.2980
  339MOL    H3448030   2.891   1.598   5.082  2.1163 -2.8722  1.5501
  339MOL    H3548031   2.806   1.559   4.926  1.2468  1.4221 -0.5726
  339MOL    H3648032   2.926   1.453   4.989  0.4706 -1.3740  2.5286
  339MOL    C3748033   2.757   1.310   5.294  0.0938 -0.5875  0.1265
  339MOL    C3848034   2.872   1.209   5.302 -0.3629 -0.3393 -0.6142
  339MOL    O3948035   2.717   1.338   5.424 -0.0277 -0.2204  0.3981
  339MOL    H4048036   2.674   1.257   5.246 -0.4250  0.8621 -0.5983
  339MOL    H4148037   2.953   1.255   5.359 -1.4143  1.1453 -0.3079
  339MOL    H4248038   2.912   1.182   5.205  0.5373  0.4484 -0.4644
  339MOL    H4348039   2.836   1.122   5.358 -1.3332  0.6266  0.2849
  339MOL    C4448040   2.601   1.414   5.435  0.2733  0.0920  0.1830
  339MOL    C4548041   2.505   1.328   5.515 -0.2311  0.5399  0.7277
  339MOL    O4648042   2.641   1.523   5.513 -0.0957  0.1906  0.5577
  339MOL    H4748043   2.561   1.443   5.338 -0.0032 -1.7046 -0.2630
  339MOL    H4848044   2.550   1.296   5.608 -0.6816  0.8244  1.0474
  339MOL    H4948045   2.492   1.237   5.456  1.4201  0.3490  0.6443
  339MOL    H5048046   2.411   1.382   5.530  0.4387  1.3395  2.1650
  339MOL    C5148047   2.670   1.643   5.439  0.3462 -0.4203 -0.1722
  339MOL    C5248048   2.552   1.743   5.453  0.2515  0.1140  0.5509
  339MOL    O5348049   2.792   1.698   5.495 -0.3325 -0.3227  0.5749
  339MOL    H5448050   2.697   1.625   5.335 -1.1128 -1.7707 -0.3400
  339MOL    H5548051   2.478   1.727   5.375  1.5391 -0.7273 -0.5049
  339MOL    H5648052   2.592   1.839   5.421 -0.4225 -0.3167 -1.6096
  339MOL    H5748053   2.505   1.743   5.552  1.8233  0.0593  1.3139
  339MOL    C5848054   2.907   1.627   5.460 -0.3989  0.0609 -0.1924
  339MOL    C5948055   2.987   1.705   5.355  0.3961  0.1232  0.1760
  339MOL    O6048056   2.995   1.619   5.565 -0.0092 -0.2165 -0.2906
  339MOL    H6148057   2.892   1.529   5.416 -2.4091  0.6353 -0.8534
  339MOL    H6248058   2.995   1.810   5.385 -0.1520  0.2399 -0.0876
  339MOL    H6348059   2.947   1.709   5.254  2.1061  0.3911 -0.5064
  339MOL    H6448060   3.090   1.670   5.350  0.2051 -0.4059 -0.0513
  339MOL    C6548061   2.954   1.538   5.671  0.5503  0.2567 -1.1221
  339MOL    C6648062   3.062   1.443   5.710 -0.3771 -0.2738  0.1136
  339MOL    O6748063   2.930   1.602   5.794  0.6598 -0.1418  0.1526
  339MOL    H6848064   2.863   1.483   5.648  1.2415 -1.0272 -0.8127
  339MOL    H6948065   3.032   1.395   5.803 -0.6682 -0.6463 -0.1708
  339MOL    H7048066   3.155   1.490   5.743 -0.8627  0.3919  0.5239
  339MOL    H7148067   3.088   1.374   5.630  0.1779  2.2814 -1.9801
  339MOL    C7248068   2.803   1.661   5.810  0.1473  0.1684  0.2287
  339MOL    C7348069   2.730   1.585   5.909 -0.4125 -0.2674 -0.0230
  339MOL    O7448070   2.809   1.794   5.853  0.6231 -0.4076  0.1850
  339MOL    H7548071   2.744   1.654   5.718  0.4660 -0.6976  0.0830
  339MOL    H7648072   2.778   1.593   6.007  1.3570 -2.1311 -0.6999
  339MOL    H7748073   2.714   1.482   5.877 -2.2005 -0.4056  1.2651
  339MOL    H7848074   2.631   1.631   5.912  0.0402  0.7347 -0.1144
  339MOL    C7948075   2.864   1.880   5.755  0.1016 -1.5546  0.4645
  339MOL    C8048076   2.740   1.948   5.701 -1.1968  0.2329  0.3422
  339MOL    O8148077   2.943   1.981   5.814  0.0027 -0.1034  0.6122
  339MOL    H8248078   2.924   1.833   5.677  1.2814  1.0576 -0.2680
  339MOL    H8348079   2.760   2.035   5.638 -3.0655  1.0729  0.8601
  339MOL    H8448080   2.679   1.992   5.780  0.0244  3.0136 -0.2027
  339MOL    H8548081   2.682   1.879   5.639 -0.7081  2.2757 -2.4681
  339MOL    C8648082   3.071   1.938   5.848  0.5705  0.3925 -0.3159
  339MOL    C8748083   3.173   2.022   5.769 -0.3818  0.1967  0.0612
  339MOL    O8848084   3.084   1.971   5.978 -0.0521 -0.3069  0.2263
  339MOL    H8948085   3.082   1.831   5.830  0.9806  0.5947 -1.3132
  339MOL    H9048086   3.273   1.978   5.778 -0.4883 -0.0831 -0.1202
  339MOL    H9148087   3.175   2.126   5.801 -1.1635 -0.3222  1.8814
  339MOL    H9248088   3.146   2.018   5.664 -0.0327  0.6059 -0.0456
  339MOL    C9348089   3.037   1.875   6.073  0.0459  0.9388  0.0005
  339MOL    C9448090   3.162   1.813   6.136 -0.2150  0.0129  0.5095
  339MOL    O9548091   2.962   1.939   6.177 -0.0723  0.1014 -0.6985
  339MOL    H9648092   2.982   1.792   6.029  1.2080  1.0446 -1.6972
  339MOL    H9748093   3.197   1.724   6.083 -0.2202  0.5566 -0.4174
  339MOL    H9848094   3.154   1.792   6.242 -0.0478 -0.4736  0.4282
  339MOL    H9948095   3.249   1.879   6.133 -0.2042 -0.0069  0.3455
  339MOL   C10048096   2.835   1.973   6.134  1.2085 -0.4572 -1.1467
  339MOL   C10148097   2.740   1.871   6.193 -0.4909  0.4811 -0.0423
  339MOL   O10248098   2.786   2.096   6.169  0.1035  0.4139 -0.1012
  339MOL   H10348099   2.829   1.968   6.026 -0.4191 -0.6901 -1.0611
  339MOL   H10448100   2.647   1.870   6.137 -0.8494 -1.1034  0.5381
  339MOL   H10548101   2.732   1.889   6.300  2.3101  1.3003  0.0667
  339MOL   H10648102   2.783   1.772   6.173  0.0321  0.8781 -0.9290
  339MOL   C10748103   2.832   2.201   6.083 -0.1029  0.2911 -0.1432
  339MOL   C10848104   2.728   2.257   5.997 -0.2574  0.1717  0.4157
  339MOL   O10948105   2.872   2.306   6.171  0.3223  0.2120  0.0901
  339MOL   H11048106   2.918   2.176   6.021 -0.7279  1.1727 -1.3879
  339MOL   H11148107   2.658   2.324   6.047  0.0732 -0.0650  1.2000
  339MOL   H11248108   2.666   2.184   5.945 -0.3123 -0.7775  1.7877
  339MOL   H11348109   2.774   2.302   5.908 -2.3314 -3.4046 -2.6173
  339MOL   C11448110   3.012   2.302   6.205 -0.4544 -0.4978 -0.6133
  339MOL   C11548111   3.089   2.415   6.141  0.9559  1.0700 -0.0117
  339MOL   O11648112   3.034   2.329   6.341 -0.5194  0.5493 -0.1152
  339MOL   H11748113   3.065   2.208   6.189 -0.2375 -0.7413  1.3637
  339MOL   H11848114   3.077   2.404   6.034  1.1625 -0.7391  0.1267
  339MOL   H11948115   3.195   2.402   6.164  1.0324 -1.8342 -1.7161
  339MOL   H12048116   3.059   2.510   6.184  2.2780  1.6029 -0.2215
  339MOL   C12148117   2.992   2.228   6.434  0.0215  0.6365  0.1376
  339MOL   C12248118   3.092   2.113   6.457  0.3257  0.6937 -0.2200
  339MOL   O12348119   2.956   2.290   6.552 -0.2575 -0.3448  0.7982
  339MOL   H12448120   2.903   2.181   6.392  0.3651  2.2805 -2.6034
  339MOL   H12548121   3.088   2.049   6.369  0.3136 -1.9597  1.6732
  339MOL   H12648122   3.057   2.055   6.542  2.2432  2.7068  2.0142
  339MOL   H12748123   3.195   2.149   6.466  0.6030 -0.1361 -0.0690
  339MOL   C12848124   2.842   2.361   6.540 -0.0107  0.1023  0.0569
  339MOL   C12948125   2.732   2.252   6.556  0.1710  0.8826 -0.1963
  339MOL   O13048126   2.830   2.458   6.634 -0.1599 -0.1572  0.3054
  339MOL   H13148127   2.830   2.411   6.444 -0.8623 -0.9217 -0.3869
  339MOL   H13248128   2.727   2.190   6.466  4.8812  1.0741 -0.7349
  339MOL   H13348129   2.638   2.295   6.590 -0.5584  0.1162 -1.1977
  339MOL   H13448130   2.763   2.189   6.640  0.2978  1.5977  0.2949
  339MOL   C13548131   2.929   2.552   6.646  0.1431  0.0191 -0.2030
  339MOL   C13648132   2.870   2.690   6.632  0.1752  0.8490  0.4624
  339MOL   O13748133   2.995   2.547   6.772 -0.0905  0.1591 -0.1359
  339MOL   H13848134   3.004   2.539   6.569  2.3468  1.8419  1.5520
  339MOL   H13948135   2.808   2.701   6.544 -0.5639  2.2441  1.1503
  339MOL   H14048136   2.944   2.768   6.650  0.8829  1.0093 -2.8005
  339MOL   H14148137   2.796   2.705   6.710 -0.9883  0.0608 -0.4783
  339MOL   H14248138   3.064   2.483   6.762 -0.6311 -0.6198  0.9701
  340MOL     C148139   0.689   2.406   5.919  0.9154  0.6316  0.5199
  340MOL     C248140   0.592   2.417   5.808  0.3837  0.1167  0.0362
  340MOL     O348141   0.777   2.293   5.907 -0.7058 -0.5864  0.1032
  340MOL     H448142   0.622   2.388   6.004  1.4089 -0.5960  0.6550
  340MOL     H548143   0.547   2.516   5.814  0.0797 -0.0719  0.8402
  340MOL     H648144   0.520   2.335   5.802 -1.0825  1.3020  1.1552
  340MOL     H748145   0.637   2.423   5.709  1.5058  2.3618  0.6446
  340MOL     H848146   0.744   2.499   5.928  1.2920  0.6655 -1.9354
  340MOL     C948147   0.867   2.276   6.015 -0.5413 -0.1941  0.0615
  340MOL    C1048148   0.814   2.170   6.118 -0.0416 -0.1895  0.0377
  340MOL    O1148149   0.989   2.221   5.971  0.2325  0.0692  0.1048
  340MOL    H1248150   0.893   2.373   6.058 -0.2301 -0.2556  0.0125
  340MOL    H1348151   0.796   2.081   6.058  0.3183 -0.2520  0.0190
  340MOL    H1448152   0.723   2.204   6.167 -0.0809 -0.5071  0.1880
  340MOL    H1548153   0.888   2.139   6.193  0.2289 -0.9744 -0.5449
  340MOL    C1648154   1.053   2.303   5.871 -0.4018 -0.5497  0.1277
  340MOL    C1748155   1.173   2.379   5.934  0.0696  0.1319  0.0440
  340MOL    O1848156   1.120   2.213   5.786  0.8887  0.1340  0.2198
  340MOL    H1948157   0.970   2.357   5.825  0.2391  1.8995  1.7162
  340MOL    H2048158   1.235   2.316   5.997 -0.4656  0.1804  0.6243
  340MOL    H2148159   1.142   2.460   6.001  2.0340  0.1209  1.0036
  340MOL    H2248160   1.227   2.428   5.853 -3.4439 -1.5722 -3.4532
  340MOL    C2348161   1.037   2.157   5.681  0.1817  0.3993  0.2138
  340MOL    C2448162   1.095   2.205   5.549 -0.2730  0.1684 -0.4385
  340MOL    O2548163   1.050   2.020   5.679  0.1903  0.2374 -0.1337
  340MOL    H2648164   0.932   2.182   5.692  0.4728  1.8706 -0.2727
  340MOL    H2748165   1.050   2.138   5.475  1.5398 -2.2514  0.5965
  340MOL    H2848166   1.201   2.182   5.556  0.1375  1.5549 -1.8957
  340MOL    H2948167   1.072   2.311   5.538  0.0542  0.3998  1.0352
  340MOL    C3048168   0.994   1.945   5.781  0.1378  0.3896 -0.4649
  340MOL    C3148169   0.882   1.861   5.720 -0.0864  0.7018  0.3758
  340MOL    O3248170   1.095   1.861   5.832  0.7978 -0.5499  0.1106
  340MOL    H3348171   0.956   2.014   5.856  0.6496 -0.2481  0.3885
  340MOL    H3448172   0.850   1.791   5.798 -0.0298  1.0880  0.7469
  340MOL    H3548173   0.929   1.802   5.641  1.0775  0.9318  0.8738
  340MOL    H3648174   0.797   1.919   5.685 -0.4530  0.9779  1.6783
  340MOL    C3748175   1.161   1.911   5.940 -0.3397  0.5143  0.4250
  340MOL    C3848176   1.114   1.840   6.065 -0.2808  0.1298 -0.5518
  340MOL    O3948177   1.295   1.874   5.921 -0.2373  0.3055  0.3923
  340MOL    H4048178   1.163   2.019   5.954 -1.4340  0.6417 -0.3240
  340MOL    H4148179   1.076   1.742   6.035 -2.9737  1.2650 -0.9744
  340MOL    H4248180   1.036   1.901   6.110  0.4773  0.3970  0.4151
  340MOL    H4348181   1.197   1.827   6.135 -0.8575  0.2728  0.1598
  340MOL    C4448182   1.358   1.943   5.816  0.4245 -0.0619 -0.0286
  340MOL    C4548183   1.475   2.011   5.887  0.0241  0.5300  0.2524
  340MOL    O4648184   1.406   1.851   5.718 -0.1046  0.2761 -0.7652
  340MOL    H4748185   1.301   2.027   5.778  1.5538  0.9447  0.4781
  340MOL    H4848186   1.445   2.065   5.977 -1.8397  3.0462 -1.8036
  340MOL    H4948187   1.523   2.073   5.811  0.3924  1.1909  1.0232
  340MOL    H5048188   1.546   1.936   5.923 -0.2310  0.5761  0.8582
  340MOL    C5148189   1.354   1.863   5.591 -0.4567  0.3960 -0.5529
  340MOL    C5248190   1.437   1.966   5.507  0.5596 -0.7288 -0.5196
  340MOL    O5348191   1.362   1.740   5.519 -0.0118  0.0106  0.4630
  340MOL    H5448192   1.255   1.906   5.601 -0.4733 -0.3849  3.4694
  340MOL    H5548193   1.438   2.052   5.575 -0.6037  0.9743 -2.6007
  340MOL    H5648194   1.378   1.988   5.419 -1.2990  0.8696  1.0715
  340MOL    H5748195   1.545   1.955   5.495  1.0760  2.9526  0.0398
  340MOL    C5848196   1.245   1.679   5.506  0.1800 -0.1860 -0.0564
  340MOL    C5948197   1.243   1.657   5.356 -0.0995  0.1705 -0.0813
  340MOL    O6048198   1.246   1.551   5.565 -0.1506 -0.5725 -0.3227
  340MOL    H6148199   1.156   1.732   5.539  0.3658 -0.1613  0.4095
  340MOL    H6248200   1.147   1.622   5.317 -1.3138  2.4331  0.7931
  340MOL    H6348201   1.325   1.590   5.327  1.3493  2.4417 -1.3436
  340MOL    H6448202   1.250   1.752   5.304 -0.3285  0.8936  1.1990
  340MOL    C6548203   1.210   1.559   5.707 -0.1931 -0.4002  0.3358
  340MOL    C6648204   1.067   1.510   5.715 -0.4068  0.1300 -0.3502
  340MOL    O6748205   1.291   1.473   5.789  0.9235  0.1422  0.4463
  340MOL    H6848206   1.229   1.660   5.743  1.2970  0.0408 -1.5832
  340MOL    H6948207   1.002   1.567   5.649 -1.5334 -0.4479  0.2462
  340MOL    H7048208   1.020   1.528   5.811 -1.4401 -1.8617 -0.4598
  340MOL    H7148209   1.058   1.408   5.676 -2.0167  0.1961 -0.2088
  340MOL    C7248210   1.423   1.518   5.796 -0.2147 -0.1072 -0.4050
  340MOL    C7348211   1.441   1.563   5.942 -0.0636 -0.6513 -0.2223
  340MOL    O7448212   1.513   1.412   5.759  0.4488  0.7380  0.3921
  340MOL    H7548213   1.444   1.600   5.727 -0.5501  0.2665 -0.0621
  340MOL    H7648214   1.534   1.617   5.959 -0.8168  0.9143 -0.9684
  340MOL    H7748215   1.432   1.490   6.022 -0.6927  0.8589  1.1181
  340MOL    H7848216   1.370   1.643   5.964 -0.7947 -1.7062  1.3681
  340MOL    C7948217   1.518   1.373   5.628  0.3709 -0.4356 -0.2540
  340MOL    C8048218   1.611   1.465   5.542 -0.5126 -0.7845 -0.2122
  340MOL    O8148219   1.562   1.243   5.606 -0.6934 -0.0139  0.1927
  340MOL    H8248220   1.413   1.362   5.598 -0.4580 -2.3818  3.1531
  340MOL    H8348221   1.620   1.435   5.438 -0.6637  1.4001 -0.8753
  340MOL    H8448222   1.710   1.469   5.588  0.5494  3.4166 -2.6386
  340MOL    H8548223   1.579   1.569   5.543  0.1185 -0.5881  0.7590
  340MOL    C8648224   1.484   1.143   5.674 -0.0214  0.2774 -0.5407
  340MOL    C8748225   1.471   1.016   5.585  0.3363  0.5060 -0.5119
  340MOL    O8848226   1.560   1.101   5.784  0.3040 -0.2590  0.5388
  340MOL    H8948227   1.388   1.184   5.706  0.1259  0.0373  0.2162
  340MOL    H9048228   1.414   0.941   5.641  1.3999 -0.0018 -0.1088
  340MOL    H9148229   1.574   0.983   5.574  0.2361  0.0722 -0.1538
  340MOL    H9248230   1.420   1.033   5.490 -0.3986 -0.6754 -0.3436
  340MOL    C9348231   1.502   1.129   5.907 -0.2777 -0.8392  0.1428
  340MOL    C9448232   1.385   1.033   5.943  0.0163 -0.4593 -0.5067
  340MOL    O9548233   1.596   1.119   6.008  0.4310  0.3025  0.1350
  340MOL    H9648234   1.467   1.232   5.916 -0.0111 -0.6732 -0.7260
  340MOL    H9748235   1.314   1.036   5.860 -1.7853 -0.4070  0.9998
  340MOL    H9848236   1.329   1.068   6.030  0.3682 -0.4978 -0.2652
  340MOL    H9948237   1.417   0.930   5.958  2.1242  0.4149  1.2028
  340MOL   C10048238   1.697   1.215   5.993  0.1931 -0.5456  0.2012
  340MOL   C10148239   1.685   1.318   6.104 -0.9922  0.2075 -0.0180
  340MOL   O10248240   1.819   1.148   6.012  0.2892  0.3089 -0.8719
  340MOL   H10348241   1.700   1.263   5.895 -0.8002 -0.7368  0.0620
  340MOL   H10448242   1.592   1.376   6.100 -0.2515  1.4179  0.2569
  340MOL   H10548243   1.771   1.384   6.095 -0.5990 -0.0400  1.8145
  340MOL   H10648244   1.695   1.267   6.199 -0.5674  0.8800  0.3022
  340MOL   C10748245   1.873   1.091   5.896 -0.6672  0.5580  0.6674
  340MOL   C10848246   1.982   1.191   5.852  0.0274 -0.2198 -0.2817
  340MOL   O10948247   1.938   0.965   5.921  0.5538  0.0450 -0.4388
  340MOL   H11048248   1.801   1.072   5.817 -0.7093 -0.5914  0.9747
  340MOL   H11148249   2.045   1.147   5.775 -2.3782 -0.9347 -1.8944
  340MOL   H11248250   2.046   1.215   5.937  0.9081  0.2484 -1.0664
  340MOL   H11348251   1.938   1.283   5.813 -1.9867 -1.1491 -0.2646
  340MOL   C11448252   1.845   0.879   5.973  0.0486 -0.9729 -0.0941
  340MOL   C11548253   1.829   0.768   5.872 -0.2735  0.2460  0.0721
  340MOL   O11648254   1.889   0.811   6.088 -0.1437  0.2841 -0.0589
  340MOL   H11748255   1.746   0.918   5.996  0.3834  1.7433 -2.9618
  340MOL   H11848256   1.923   0.713   5.878 -0.1416  0.4683  0.0708
  340MOL   H11948257   1.809   0.811   5.774 -1.8246 -0.2946  0.1388
  340MOL   H12048258   1.747   0.706   5.907  0.1424 -0.5166 -0.3138
  340MOL   C12148259   1.894   0.887   6.208 -0.4507 -0.2076  0.2392
  340MOL   C12248260   1.756   0.879   6.290 -0.5946 -0.0736 -0.3084
  340MOL   O12348261   1.996   0.833   6.294  0.2687  0.1074  0.0640
  340MOL   H12448262   1.919   0.991   6.187 -0.7520 -0.2206 -0.1866
  340MOL   H12548263   1.668   0.901   6.229 -0.4891  1.5429  0.0949
  340MOL   H12648264   1.773   0.953   6.369  0.3574 -1.8626  1.1952
  340MOL   H12748265   1.743   0.780   6.332  0.6455  0.3493  1.1357
  340MOL   C12848266   2.116   0.841   6.236 -0.3032  0.2205  0.0889
  340MOL   C12948267   2.182   0.972   6.258  0.0263 -0.4788  0.3418
  340MOL   O13048268   2.194   0.745   6.303  0.3724  0.1570 -0.0136
  340MOL   H13148269   2.121   0.819   6.130 -1.2730 -0.0625  0.1035
  340MOL   H13248270   2.120   1.045   6.206 -0.5474 -0.5850  0.8690
  340MOL   H13348271   2.286   0.976   6.226  0.2901  1.1177  1.3236
  340MOL   H13448272   2.175   1.000   6.363  1.2346  1.0742  0.0333
  340MOL   C13548273   2.148   0.612   6.283  0.4119 -0.2547  0.6090
  340MOL   C13648274   2.198   0.551   6.152  0.6676  0.4885 -0.1334
  340MOL   O13748275   2.195   0.529   6.388 -0.0412 -0.7300 -0.0434
  340MOL   H13848276   2.039   0.605   6.282  0.3525  0.6774 -1.1755
  340MOL   H13948277   2.307   0.553   6.157  0.7311 -0.4089 -1.0294
  340MOL   H14048278   2.172   0.612   6.065 -0.2242 -0.6715 -0.6809
  340MOL   H14148279   2.150   0.453   6.149 -0.4143  1.0292 -1.3871
  340MOL   H14248280   2.169   0.578   6.465 -1.7726 -0.2961 -0.8650
  341MOL     C148281   5.372   4.758   4.005 -0.2210 -0.0578 -0.0158
  341MOL     C248282   5.307   4.886   4.057 -0.1342 -0.3193 -0.6755
  341MOL     O348283   5.312   4.753   3.874  0.0566 -0.1857 -1.0748
  341MOL     H448284   5.350   4.672   4.069  1.1299 -0.9048 -0.6674
  341MOL     H548285   5.201   4.866   4.042 -0.3127 -2.0161  2.3457
  341MOL     H648286   5.331   4.979   4.006 -0.3947  2.4279  3.9572
  341MOL     H748287   5.328   4.903   4.163  0.2718  2.4541 -1.1618
  341MOL     H848288   5.481   4.757   4.004 -0.2290 -1.5238 -0.5233
  341MOL     C948289   5.322   4.633   3.808  0.1306 -0.2547 -0.4448
  341MOL    C1048290   5.203   4.546   3.846 -0.0906  0.3315 -0.2181
  341MOL    O1148291   5.322   4.645   3.668  0.0900 -0.1008 -0.1435
  341MOL    H1248292   5.413   4.582   3.840  0.0327 -0.9440 -1.2516
  341MOL    H1348293   5.201   4.496   3.943  0.7710  0.8899  0.0929
  341MOL    H1448294   5.210   4.466   3.773  2.3693  0.2585  0.0583
  341MOL    H1548295   5.112   4.602   3.825  0.7927  1.5457 -0.8807
  341MOL    C1648296   5.436   4.707   3.623 -0.3829 -0.8567  0.9098
  341MOL    C1748297   5.503   4.597   3.545  0.3104 -0.4232  0.2696
  341MOL    O1848298   5.412   4.808   3.524 -0.2905  0.0434 -0.6371
  341MOL    H1948299   5.517   4.733   3.692  0.2313 -2.4654  0.8078
  341MOL    H2048300   5.576   4.635   3.474 -0.1951 -1.7930 -1.0067
  341MOL    H2148301   5.433   4.541   3.483  0.4125  0.7608 -0.9407
  341MOL    H2248302   5.547   4.516   3.603 -1.2741 -1.7568 -0.3684
  341MOL    C2348303   5.380   4.933   3.570  0.1559 -0.2578  0.3149
  341MOL    C2448304   5.508   5.027   3.566  0.0806 -0.1879  0.5864
  341MOL    O2548305   5.285   5.001   3.485 -0.4437 -0.5772 -0.0206
  341MOL    H2648306   5.351   4.920   3.674  0.3081  1.6167  0.6166
  341MOL    H2748307   5.537   5.034   3.461 -3.0024 -0.0998 -0.3175
  341MOL    H2848308   5.591   4.973   3.610  0.8008  0.1145 -0.3884
  341MOL    H2948309   5.488   5.120   3.620 -0.5556  0.3525 -0.5599
  341MOL    C3048310   5.153   4.940   3.503 -0.2555  0.2602  0.8627
  341MOL    C3148311   5.072   5.034   3.600  0.4722 -1.1160  1.2261
  341MOL    O3248312   5.083   4.941   3.379 -0.1263  0.0436 -0.1584
  341MOL    H3348313   5.165   4.839   3.542 -0.3652  0.9635  2.7635
  341MOL    H3448314   5.130   5.068   3.686 -1.0056 -3.0277  3.0246
  341MOL    H3548315   5.001   4.962   3.640 -0.2344  0.0747  2.1620
  341MOL    H3648316   5.009   5.117   3.568  2.5311  0.2134  0.4762
  341MOL    C3748317   5.143   4.869   3.277 -0.2279 -0.2156  0.6723
  341MOL    C3848318   5.105   4.722   3.279  0.4756 -0.2015  0.3494
  341MOL    O3948319   5.094   4.924   3.157  0.5212  0.1239 -0.6564
  341MOL    H4048320   5.252   4.861   3.272 -0.1217  0.9521  0.9023
  341MOL    H4148321   5.166   4.680   3.199  1.3902  1.2028  0.2946
  341MOL    H4248322   4.999   4.717   3.251  0.3778  4.7726 -0.6715
  341MOL    H4348323   5.113   4.669   3.373  0.3122 -1.2492 -0.2158
  341MOL    C4448324   5.128   5.057   3.131 -0.6649 -0.2964  0.2096
  341MOL    C4548325   5.232   5.067   3.021 -0.1328  0.1041 -0.9956
  341MOL    O4648326   5.015   5.127   3.083  0.3256 -0.6835  0.3859
  341MOL    H4748327   5.166   5.104   3.222  0.8372  0.2833 -0.6929
  341MOL    H4848328   5.248   5.169   2.986 -0.3191  0.5372  0.1385
  341MOL    H4948329   5.188   5.027   2.930 -0.1270 -1.2313 -0.4217
  341MOL    H5048330   5.324   5.016   3.048 -1.2341 -1.7457 -0.7091
  341MOL    C5148331   4.929   5.166   3.186 -0.2008 -0.0176 -0.6097
  341MOL    C5248332   4.925   5.323   3.172  0.0544  0.5332 -0.6204
  341MOL    O5348333   4.796   5.118   3.161  0.8045  0.5332  0.0034
  341MOL    H5448334   4.952   5.134   3.287 -1.0484 -1.3736 -0.8346
  341MOL    H5548335   4.895   5.356   3.073 -0.0438 -0.4087 -0.9136
  341MOL    H5648336   5.024   5.361   3.194 -0.4623  2.6962 -1.9608
  341MOL    H5748337   4.852   5.361   3.243  0.1833 -0.9398  0.3204
  341MOL    C5848338   4.780   4.980   3.192 -0.4268  0.2683 -0.2604
  341MOL    C5948339   4.702   4.987   3.324  0.8372 -0.4008  0.0311
  341MOL    O6048340   4.703   4.921   3.092 -0.2014  0.5263 -0.4711
  341MOL    H6148341   4.872   4.923   3.206 -0.3764  0.1709 -0.9741
  341MOL    H6248342   4.615   5.053   3.319  1.7913  1.0118  1.6811
  341MOL    H6348343   4.763   5.029   3.404  1.3136 -1.2437  0.1175
  341MOL    H6448344   4.669   4.889   3.359  1.7441 -0.6467  0.2009
  341MOL    C6548345   4.754   4.924   2.960  0.0898 -0.6051 -0.4776
  341MOL    C6648346   4.840   4.804   2.930  0.9964 -0.0034  0.0610
  341MOL    O6748347   4.650   4.918   2.869 -0.1974  0.2827 -0.0112
  341MOL    H6848348   4.817   5.012   2.946 -1.7806  0.4403 -2.6103
  341MOL    H6948349   4.894   4.814   2.835 -0.1677  0.5189 -0.5576
  341MOL    H7048350   4.784   4.711   2.923  1.5103 -0.1975 -1.7944
  341MOL    H7148351   4.913   4.791   3.009 -0.4200  0.1007  1.4042
  341MOL    C7248352   4.556   5.022   2.880 -0.3389  0.0620  0.2823
  341MOL    C7348353   4.576   5.130   2.769 -0.3919 -0.1886 -0.1442
  341MOL    O7448354   4.428   4.971   2.850  0.4191 -0.0018  0.1678
  341MOL    H7548355   4.540   5.067   2.978  1.1036  0.3511  0.3923
  341MOL    H7648356   4.679   5.164   2.751 -0.7052  0.1997 -1.2340
  341MOL    H7748357   4.511   5.216   2.785  0.9015  1.2199 -2.1754
  341MOL    H7848358   4.548   5.086   2.674  3.4605  0.3361 -1.6378
  341MOL    C7948359   4.386   4.883   2.954  0.0329  0.0437  0.5231
  341MOL    C8048360   4.283   4.953   3.033  0.4094 -0.2387  0.2239
  341MOL    O8148361   4.320   4.774   2.896  0.1963 -0.6754 -0.0660
  341MOL    H8248362   4.465   4.855   3.023  1.2255 -3.2848 -2.0175
  341MOL    H8348363   4.323   5.025   3.104 -0.6979 -0.3403  0.9584
  341MOL    H8448364   4.231   4.877   3.091  0.9256 -0.1970  0.7451
  341MOL    H8548365   4.226   5.004   2.955 -0.3722  1.8978  2.1509
  341MOL    C8648366   4.408   4.681   2.841  0.1601  0.8976 -0.0148
  341MOL    C8748367   4.408   4.557   2.939  0.1151  0.0282 -0.2576
  341MOL    O8848368   4.361   4.629   2.729 -0.1838 -0.3410  0.0451
  341MOL    H8948369   4.509   4.721   2.826  1.3013 -1.4774  0.9627
  341MOL    H9048370   4.438   4.579   3.041  2.7299 -2.7787 -0.3680
  341MOL    H9148371   4.468   4.474   2.902 -0.2175 -1.0049  1.4771
  341MOL    H9248372   4.307   4.517   2.943 -0.2049  0.8314 -0.1567
  341MOL    C9348373   4.342   4.725   2.630  0.0480 -0.5055 -0.3200
  341MOL    C9448374   4.468   4.734   2.537 -0.3017 -0.2555 -0.8135
  341MOL    O9548375   4.235   4.694   2.556  0.2415 -0.1601 -0.0654
  341MOL    H9648376   4.314   4.824   2.666  1.0256 -0.1123 -0.6158
  341MOL    H9748377   4.478   4.834   2.494 -0.3214  1.4814  3.0345
  341MOL    H9848378   4.472   4.657   2.460  0.5179  1.1928 -2.2434
  341MOL    H9948379   4.559   4.716   2.594 -0.3813 -1.1969 -0.9800
  341MOL   C10048380   4.116   4.686   2.630  0.2799  0.2900 -0.4818
  341MOL   C10148381   4.027   4.809   2.601  0.1099 -0.6144  0.0952
  341MOL   O10248382   4.043   4.571   2.595 -0.7579  0.4269  0.1353
  341MOL   H10348383   4.134   4.682   2.737 -0.5405  0.0285 -0.3505
  341MOL   H10448384   4.026   4.827   2.493 -2.2382  0.5467  0.2893
  341MOL   H10548385   4.058   4.897   2.657 -2.0681  1.9252 -2.5549
  341MOL   H10648386   3.926   4.792   2.639 -0.3791 -2.9286 -2.1301
  341MOL   C10748387   4.104   4.449   2.643  0.0918 -0.6272 -0.3839
  341MOL   C10848388   4.012   4.403   2.754 -0.0112 -0.4356 -0.1864
  341MOL   O10948389   4.099   4.349   2.541 -0.1168 -0.1291 -0.1973
  341MOL   H11048390   4.205   4.465   2.681 -0.4215 -2.8885  2.1090
  341MOL   H11148391   4.014   4.481   2.830  2.2581 -0.9211  0.2832
  341MOL   H11248392   4.037   4.309   2.802 -0.7226 -1.3083 -1.5083
  341MOL   H11348393   3.910   4.387   2.720  0.0107 -0.5739 -0.1835
  341MOL   C11448394   4.189   4.381   2.435 -0.4437 -0.2608  0.2379
  341MOL   C11548395   4.301   4.277   2.423  0.1299  0.0993 -0.1907
  341MOL   O11648396   4.123   4.387   2.305 -0.1790 -0.3158 -0.6641
  341MOL   H11748397   4.233   4.479   2.451 -2.1390  0.6112 -0.3566
  341MOL   H11848398   4.252   4.190   2.380  0.7459  0.3287 -1.3669
  341MOL   H11948399   4.349   4.244   2.515 -0.1168 -1.0920 -0.4867
  341MOL   H12048400   4.381   4.319   2.362  1.8750 -0.1249  1.8561
  341MOL   C12148401   4.031   4.492   2.290  0.0562  0.4698  0.5211
  341MOL   C12248402   4.068   4.554   2.154  0.1563  0.4018 -0.2315
  341MOL   O12348403   3.906   4.435   2.282  0.1415  0.4873 -0.1174
  341MOL   H12448404   4.033   4.560   2.375 -0.4016  1.1652 -0.0202
  341MOL   H12548405   4.170   4.589   2.170  0.0968  0.3560  0.2650
  341MOL   H12648406   4.006   4.641   2.134  1.1674  0.0754 -5.6258
  341MOL   H12748407   4.059   4.486   2.069  2.1625 -1.9560  1.3401
  341MOL   C12848408   3.826   4.444   2.396  0.1960 -0.0620 -0.2976
  341MOL   C12948409   3.751   4.574   2.372 -0.1417  0.0569 -0.2739
  341MOL   O13048410   3.729   4.342   2.403  0.9817 -0.1892 -0.7174
  341MOL   H13148411   3.884   4.439   2.488  2.2104  1.2986 -1.4417
  341MOL   H13248412   3.681   4.602   2.451  1.1108  0.9910  0.5236
  341MOL   H13348413   3.694   4.569   2.279  1.1385  2.4622 -1.2122
  341MOL   H13448414   3.816   4.661   2.361 -0.2561  0.1999  0.1561
  341MOL   C13548415   3.785   4.213   2.434  0.0320 -0.0881 -0.0387
  341MOL   C13648416   3.665   4.126   2.491  0.2555 -0.2964  0.0384
  341MOL   O13748417   3.834   4.152   2.320  0.7645  0.1771  0.2919
  341MOL   H13848418   3.867   4.229   2.504 -1.0753  2.4270  0.7415
  341MOL   H13948419   3.611   4.184   2.566 -0.5396 -1.2905  0.2362
  341MOL   H14048420   3.690   4.029   2.534  1.5891 -0.1542 -0.3985
  341MOL   H14148421   3.591   4.110   2.412  1.1029  2.1399 -1.3050
  341MOL   H14248422   3.911   4.203   2.297  0.4682  0.0119 -1.0800
  342MOL     C148423   1.738   6.218   4.609 -0.0365  0.0352 -0.1340
  342MOL     C248424   1.621   6.141   4.677  0.1194 -1.2053 -0.0525
  342MOL     O348425   1.833   6.229   4.715 -0.5216 -0.3568  0.3570
  342MOL     H448426   1.705   6.316   4.575  0.4291  0.2648  0.0717
  342MOL     H548427   1.538   6.149   4.606  0.5014 -1.0633 -0.4856
  342MOL     H648428   1.612   6.190   4.774  1.4345 -0.5188 -0.2689
  342MOL     H748429   1.654   6.039   4.694 -0.2429 -1.4921 -1.0147
  342MOL     H848430   1.781   6.164   4.525  3.3105  1.5083  0.5515
  342MOL     C948431   1.937   6.322   4.690 -0.1144  0.2344  0.4814
  342MOL    C1048432   2.028   6.328   4.812 -0.2164  0.4978 -0.6969
  342MOL    O1148433   2.022   6.274   4.589 -0.1672 -0.1110  0.0263
  342MOL    H1248434   1.893   6.419   4.666 -1.4196 -0.4824 -0.0974
  342MOL    H1348435   2.085   6.235   4.823  0.2270  0.9216  0.6509
  342MOL    H1448436   1.971   6.358   4.900 -0.9280 -1.0936 -0.6003
  342MOL    H1548437   2.103   6.407   4.808 -1.8878  2.2691  1.6673
  342MOL    C1648438   2.078   6.383   4.509 -0.0477  0.2926 -0.0072
  342MOL    C1748439   2.162   6.318   4.401  0.2070  0.1470 -0.7555
  342MOL    O1848440   1.972   6.455   4.450  0.1066 -0.9231  0.0122
  342MOL    H1948441   2.139   6.442   4.578 -0.9189 -0.3558  1.3563
  342MOL    H2048442   2.249   6.271   4.446  1.2297  1.7475 -0.9994
  342MOL    H2148443   2.204   6.404   4.348  2.0726 -0.1432  0.1961
  342MOL    H2248444   2.102   6.251   4.341  0.3595 -1.5869  0.9775
  342MOL    C2348445   1.998   6.591   4.436  0.8911  0.6462  0.4328
  342MOL    C2448446   1.890   6.657   4.351  0.4797  0.0892 -0.4639
  342MOL    O2548447   1.994   6.647   4.558 -0.7946 -0.2667 -0.6022
  342MOL    H2648448   2.092   6.605   4.383  1.9432 -2.3073  1.4204
  342MOL    H2748449   1.791   6.650   4.397  1.1026 -0.6410  0.8096
  342MOL    H2848450   1.883   6.604   4.256  0.4346 -2.0432  0.6880
  342MOL    H2948451   1.900   6.761   4.322  1.7129  0.9003  2.6417
  342MOL    C3048452   2.091   6.755   4.579 -0.0690 -0.0563 -0.0522
  342MOL    C3148453   2.041   6.840   4.697 -0.3344  0.5007 -0.3236
  342MOL    O3248454   2.213   6.699   4.624  0.4764  0.1933  0.1328
  342MOL    H3348455   2.104   6.826   4.497 -1.0667 -1.6986 -1.6618
  342MOL    H3448456   1.939   6.870   4.670 -0.5787 -1.5169 -1.7009
  342MOL    H3548457   2.108   6.924   4.714  0.9412 -1.0163  2.5508
  342MOL    H3648458   2.034   6.773   4.783  0.2751  0.4394 -0.3212
  342MOL    C3748459   2.324   6.726   4.544  0.2062  0.3453  0.6413
  342MOL    C3848460   2.449   6.653   4.605 -0.0794 -0.1502  0.3590
  342MOL    O3948461   2.314   6.679   4.412  0.1496  0.2178 -0.4743
  342MOL    H4048462   2.339   6.834   4.549 -0.6696  0.5069 -0.3194
  342MOL    H4148463   2.544   6.680   4.559  0.5165 -1.1457  0.9840
  342MOL    H4248464   2.429   6.546   4.595  0.5045 -0.2601  0.3623
  342MOL    H4348465   2.451   6.671   4.712 -2.7550  3.5386 -0.1035
  342MOL    C4448466   2.354   6.776   4.319 -0.4661  0.1791 -0.7913
  342MOL    C4548467   2.410   6.707   4.188 -0.4929  0.2527 -0.2467
  342MOL    O4648468   2.246   6.856   4.279  0.3255 -0.0505  0.3813
  342MOL    H4748469   2.433   6.843   4.354 -0.0828  1.6272 -4.1676
  342MOL    H4848470   2.441   6.776   4.110  0.7977  1.8432  1.6338
  342MOL    H4948471   2.323   6.651   4.152  0.3156 -0.9065 -0.4299
  342MOL    H5048472   2.492   6.642   4.218  0.6171  1.3076 -0.9502
  342MOL    C5148473   2.275   6.991   4.282  0.4097  0.5211  0.6032
  342MOL    C5248474   2.165   7.062   4.207  0.1243 -0.6323  0.3623
  342MOL    O5348475   2.263   7.028   4.424  0.2318 -0.0811  0.8147
  342MOL    H5448476   2.373   7.011   4.240  0.2958  0.1670  0.1757
  342MOL    H5548477   2.174   7.170   4.221 -1.8866 -0.5265  0.9949
  342MOL    H5648478   2.066   7.028   4.238  0.3782 -0.9558  0.8153
  342MOL    H5748479   2.183   7.051   4.100  1.3476  2.1213  0.2378
  342MOL    C5848480   2.359   7.118   4.461  0.2172 -0.7937  0.0149
  342MOL    C5948481   2.303   7.224   4.551  0.4446 -0.0834 -0.1779
  342MOL    O6048482   2.460   7.053   4.538 -0.7007 -0.2498 -0.0109
  342MOL    H6148483   2.402   7.166   4.373 -2.0159 -0.1830 -0.7967
  342MOL    H6248484   2.245   7.179   4.632 -1.5036  1.4114 -0.6932
  342MOL    H6348485   2.228   7.285   4.500  1.6150 -0.0573 -1.9102
  342MOL    H6448486   2.372   7.295   4.597 -1.9160  1.4979  1.0821
  342MOL    C6548487   2.592   7.094   4.521  0.0231 -0.6970 -0.3247
  342MOL    C6648488   2.673   7.038   4.633  0.3492  0.6539  0.5299
  342MOL    O6748489   2.650   7.054   4.398 -0.2470 -0.8223  0.3065
  342MOL    H6848490   2.598   7.202   4.529  0.3733 -0.8080  1.0816
  342MOL    H6948491   2.639   7.090   4.722  1.5766  1.7119  0.3957
  342MOL    H7048492   2.779   7.054   4.610 -0.1934  1.4193 -1.5973
  342MOL    H7148493   2.672   6.929   4.642 -0.0082  0.6913  0.8929
  342MOL    C7248494   2.732   7.148   4.339  0.3475 -1.0434 -0.3444
  342MOL    C7348495   2.822   7.075   4.241  0.1801  0.2349  0.1020
  342MOL    O7448496   2.658   7.242   4.261  0.2634  0.3581  0.7685
  342MOL    H7548497   2.793   7.207   4.407 -2.4813 -0.3520  1.6634
  342MOL    H7648498   2.891   7.018   4.303 -4.7871 -2.5435  3.4431
  342MOL    H7748499   2.862   7.146   4.168 -2.8436  1.8314 -0.0975
  342MOL    H7848500   2.769   6.999   4.184  1.5306 -0.5030 -0.1817
  342MOL    C7948501   2.671   7.381   4.302  0.1780  0.4985  0.3049
  342MOL    C8048502   2.603   7.470   4.193 -0.5515 -0.5428 -0.2004
  342MOL    O8148503   2.611   7.407   4.427 -0.1117 -0.7524 -0.3745
  342MOL    H8248504   2.777   7.410   4.300 -0.1049  1.4723 -1.6951
  342MOL    H8348505   2.496   7.449   4.194 -0.7858  0.5174 -1.1860
  342MOL    H8448506   2.638   7.465   4.090  0.7361  1.1972  0.1371
  342MOL    H8548507   2.615   7.575   4.222  2.3479 -0.1149 -2.6996
  342MOL    C8648508   2.689   7.486   4.513 -0.0324  0.6463  0.0464
  342MOL    C8748509   2.584   7.565   4.587  0.3435 -0.0038  0.7281
  342MOL    O8848510   2.759   7.394   4.598  0.2459  0.2354 -0.4511
  342MOL    H8948511   2.754   7.558   4.464  0.2871  1.0584  1.0582
  342MOL    H9048512   2.620   7.612   4.678  1.5119  0.1039  0.2206
  342MOL    H9148513   2.499   7.508   4.625  2.2440 -2.4184  1.4986
  342MOL    H9248514   2.527   7.631   4.522 -1.0592 -1.1228  0.7762
  342MOL    C9348515   2.886   7.439   4.644 -0.2020 -0.0190 -0.2543
  342MOL    C9448516   2.930   7.357   4.769 -0.0331 -0.0147 -0.5137
  342MOL    O9548517   2.983   7.417   4.548  0.1668  0.4967 -0.3274
  342MOL    H9648518   2.877   7.544   4.671  0.6803  0.1203 -0.4953
  342MOL    H9748519   2.922   7.251   4.746  1.8628  0.2198 -2.4107
  342MOL    H9848520   2.858   7.370   4.850 -0.6694  0.6449 -1.1714
  342MOL    H9948521   3.029   7.387   4.804 -0.5320  1.8914 -0.6513
  342MOL   C10048522   3.073   7.518   4.531 -0.0725  0.2154 -0.0411
  342MOL   C10148523   3.184   7.456   4.457 -1.0770  0.0146  0.4919
  342MOL   O10248524   3.023   7.615   4.447  0.6781 -0.7508  0.0907
  342MOL   H10348525   3.106   7.559   4.627  1.5376 -0.6666 -0.2060
  342MOL   H10448526   3.151   7.418   4.360 -1.1994 -0.8721  0.8823
  342MOL   H10548527   3.220   7.368   4.510 -1.5226 -0.3649  0.1777
  342MOL   H10648528   3.258   7.536   4.452  0.0736 -1.0330  0.7052
  342MOL   C10748529   3.062   7.744   4.467 -0.1290 -0.0953  0.0890
  342MOL   C10848530   3.038   7.825   4.337  0.4060  1.1478 -0.5805
  342MOL   O10948531   2.990   7.804   4.574  0.3329 -0.3007  0.8760
  342MOL   H11048532   3.168   7.746   4.492 -0.2893  3.1191  0.7958
  342MOL   H11148533   3.096   7.777   4.259 -0.3024  0.1434 -0.4934
  342MOL   H11248534   3.054   0.019   4.346 -0.5397  1.2403  0.0456
  342MOL   H11348535   2.933   7.817   4.308 -0.1691  1.4164  1.3326
  342MOL   C11448536   3.051   0.001   4.636  0.3683  0.1781  0.2129
  342MOL   C11548537   2.935   0.065   4.708 -0.2910  0.3003 -0.8310
  342MOL   O11648538   3.123   7.862   4.741 -0.2746  0.3134 -0.1266
  342MOL   H11748539   3.103   0.070   4.570 -1.1836  1.2550  0.0891
  342MOL   H11848540   2.869   7.903   4.750 -1.6830  0.9593 -1.7674
  342MOL   H11948541   2.882   0.127   4.636  0.0721 -0.9217 -2.1820
  342MOL   H12048542   2.975   0.140   4.777  3.1653 -0.7729 -1.5476
  342MOL   C12148543   3.253   0.005   4.760  0.1667  0.7436  0.0796
  342MOL   C12248544   3.297   7.859   4.898  0.6355 -0.1666  0.1972
  342MOL   O12348545   3.336   7.875   4.657  0.1144  0.4209  0.1575
  342MOL   H12448546   3.242   0.113   4.772 -1.4338  0.3494  2.2960
  342MOL   H12548547   3.231   7.893   4.978 -1.0151 -0.8378 -0.8560
  342MOL   H12648548   3.404   7.860   4.920  1.3493 -3.2653 -2.7905
  342MOL   H12748549   3.274   7.753   4.891 -1.2341  0.1642  1.0091
  342MOL   C12848550   3.441   0.050   4.638  0.0320  0.7440  0.6998
  342MOL   C12948551   3.516   7.912   4.516  1.4813 -0.2847  0.5068
  342MOL   O13048552   3.395   0.175   4.592 -0.3768 -0.0762  0.2689
  342MOL   H13148553   3.507   0.044   4.725  0.9634  0.7652  0.0113
  342MOL   H13248554   3.546   7.811   4.543  0.6475 -1.2723 -2.0965
  342MOL   H13348555   3.611   0.051   4.506  0.3527  1.5077 -1.2930
  342MOL   H13448556   3.447   0.002   4.432  0.7699  2.1086  1.1565
  342MOL   C13548557   3.483   0.279   4.636 -0.0262 -0.3166 -0.3579
  342MOL   C13648558   3.439   0.411   4.564 -0.7755 -0.4850  0.1874
  342MOL   O13748559   3.485   0.297   4.774  0.1980 -0.1915 -0.2496
  342MOL   H13848560   3.582   0.250   4.600 -0.6957  1.8200 -4.1661
  342MOL   H13948561   3.331   0.410   4.555 -0.5993  1.0904 -2.6202
  342MOL   H14048562   3.474   0.425   4.462 -0.9422 -1.0041  0.0593
  342MOL   H14148563   3.487   0.494   4.617 -0.8945  0.8378 -1.7355
  342MOL   H14248564   3.577   0.311   4.793 -0.2184  2.5479 -0.0843
  343MOL     C148565   0.856   4.941   3.072  0.1214 -0.9088 -0.2656
  343MOL     C248566   0.812   5.042   2.975  0.0764  0.1709 -0.0327
  343MOL     O348567   0.956   4.863   3.000 -0.0729 -0.2893 -0.4083
  343MOL     H448568   0.774   4.886   3.119 -1.4053  0.2348 -1.5140
  343MOL     H548569   0.890   5.106   2.935  0.1854 -0.0525 -0.1793
  343MOL     H648570   0.738   5.112   3.012  0.0830 -0.4374  1.1382
  343MOL     H748571   0.766   5.003   2.884 -0.0330  0.1480  0.0326
  343MOL     H848572   0.891   4.991   3.161  0.0292  0.3247 -0.9134
  343MOL     C948573   1.014   4.754   3.073  0.2185 -0.3008  0.6427
  343MOL    C1048574   0.961   4.623   3.017  0.1689  0.0016  1.4014
  343MOL    O1148575   1.155   4.753   3.065 -0.0333  0.3784 -0.5418
  343MOL    H1248576   0.998   4.762   3.180  0.6302  1.3618  0.6058
  343MOL    H1348577   0.853   4.626   3.003  0.2749 -2.0984  0.0495
  343MOL    H1448578   1.015   4.541   3.064  0.6435 -1.2183 -1.1919
  343MOL    H1548579   0.996   4.604   2.916 -1.3905 -2.3135  1.2622
  343MOL    C1648580   1.219   4.878   3.073 -0.5537  0.2448 -0.2571
  343MOL    C1748581   1.219   4.919   3.219 -0.9001 -0.3351  0.0908
  343MOL    O1848582   1.353   4.871   3.035  0.3248 -0.9291  0.3816
  343MOL    H1948583   1.176   4.955   3.009 -0.2406 -0.5234 -1.4054
  343MOL    H2048584   1.117   4.927   3.258 -1.2337 -0.1506 -0.7990
  343MOL    H2148585   1.262   5.019   3.217 -1.3558 -0.0965  1.5449
  343MOL    H2248586   1.275   4.846   3.276  0.9644  0.7317 -0.3384
  343MOL    C2348587   1.371   4.846   2.901 -0.1126 -1.1825  0.0325
  343MOL    C2448588   1.384   4.977   2.826 -0.3523  0.6563  0.5793
  343MOL    O2548589   1.490   4.777   2.873  0.3733  0.2218  0.4094
  343MOL    H2648590   1.290   4.788   2.857 -1.2848  0.0434  0.5544
  343MOL    H2748591   1.412   4.946   2.725  0.7865 -0.2572  1.1558
  343MOL    H2848592   1.460   5.030   2.884 -0.0349 -0.3012  1.0503
  343MOL    H2948593   1.289   5.029   2.828 -0.3912  0.6817 -1.1418
  343MOL    C3048594   1.509   4.661   2.950 -1.1558  0.1183 -0.2536
  343MOL    C3148595   1.488   4.545   2.856  0.0836  0.4097 -0.5914
  343MOL    O3248596   1.639   4.657   3.004 -0.0306  0.1575 -0.3848
  343MOL    H3348597   1.436   4.645   3.029 -0.5398  1.5457  0.6364
  343MOL    H3448598   1.529   4.572   2.759  0.1543  0.9697 -0.4095
  343MOL    H3548599   1.381   4.533   2.836  0.6791 -3.0607 -2.0396
  343MOL    H3648600   1.522   4.446   2.887  0.6950  0.9316  0.4050
  343MOL    C3748601   1.662   4.763   3.098  0.1450 -0.2034 -0.0955
  343MOL    C3848602   1.655   4.685   3.235 -0.7782 -0.4131  0.0630
  343MOL    O3948603   1.796   4.813   3.093 -0.1007  0.0307  0.5173
  343MOL    H4048604   1.582   4.837   3.106  1.6304  1.3048  1.3467
  343MOL    H4148605   1.739   4.617   3.243  1.9247  2.9987  2.3132
  343MOL    H4248606   1.555   4.644   3.251 -0.0506 -2.1064  0.3017
  343MOL    H4348607   1.664   4.764   3.310  1.1983 -0.9983  0.4638
  343MOL    C4448608   1.812   4.904   2.983 -0.1417  0.3629 -0.8422
  343MOL    C4548609   1.777   5.049   3.029  0.1538 -0.0448 -0.1765
  343MOL    O4648610   1.939   4.898   2.941 -0.2694  0.3570  0.2375
  343MOL    H4748611   1.743   4.874   2.904 -0.9471 -0.5361  0.1913
  343MOL    H4848612   1.845   5.072   3.111 -0.6704  0.7257  0.3002
  343MOL    H4948613   1.674   5.053   3.064  1.1622  2.2322  2.7789
  343MOL    H5048614   1.791   5.119   2.946  1.4697  1.9461  1.6682
  343MOL    C5148615   1.979   4.778   2.883  0.4127 -0.4097  0.1727
  343MOL    C5248616   1.980   4.798   2.734 -0.3935 -0.6447  0.5078
  343MOL    O5348617   2.104   4.747   2.926  0.0366  0.1780 -0.2868
  343MOL    H5448618   1.910   4.696   2.901 -2.0396  1.2935 -1.1012
  343MOL    H5548619   1.897   4.855   2.693  0.7284 -0.6473 -1.8632
  343MOL    H5648620   1.994   4.699   2.691  2.4062 -0.3638  0.6704
  343MOL    H5748621   2.064   4.862   2.707 -1.0293 -0.1183 -0.2712
  343MOL    C5848622   2.101   4.688   3.055  0.1294  0.0305 -0.6325
  343MOL    C5948623   2.130   4.541   3.029  0.0225  0.3795  0.5461
  343MOL    O6048624   2.199   4.740   3.135 -0.0938 -0.1616 -0.8540
  343MOL    H6148625   2.006   4.687   3.107  0.3462 -1.3564 -0.2634
  343MOL    H6248626   2.138   4.489   3.125  1.9015 -0.0359  0.1948
  343MOL    H6348627   2.225   4.537   2.976 -2.1729 -1.8418 -3.4379
  343MOL    H6448628   2.056   4.500   2.961  0.4699  0.6846 -0.1286
  343MOL    C6548629   2.172   4.871   3.183 -0.2049  0.9371  0.8845
  343MOL    C6648630   2.144   4.870   3.332 -0.2755 -0.0569 -0.0701
  343MOL    O6748631   2.269   4.968   3.163 -0.1285 -0.0567  0.0261
  343MOL    H6848632   2.081   4.910   3.137 -1.0638 -3.3352 -1.4038
  343MOL    H6948633   2.122   4.973   3.357 -0.9671 -0.3012  0.3255
  343MOL    H7048634   2.233   4.839   3.388 -0.7555 -0.9507  0.1977
  343MOL    H7148635   2.074   4.790   3.356 -0.1836  0.0659  0.6155
  343MOL    C7248636   2.290   5.008   3.031 -0.1479 -0.0122 -0.6177
  343MOL    C7348637   2.234   5.148   3.028  0.3895  0.6017 -0.0955
  343MOL    O7448638   2.421   5.034   3.005  0.0577  0.0212 -0.3398
  343MOL    H7548639   2.252   4.944   2.952 -0.9517  0.8866 -0.9573
  343MOL    H7648640   2.260   5.208   2.941 -0.9108  2.5773  0.8231
  343MOL    H7748641   2.290   5.191   3.111  0.3919 -0.0719  0.2570
  343MOL    H7848642   2.128   5.143   3.053  0.6344  1.1909  1.1274
  343MOL    C7948643   2.508   4.924   2.971  0.7728 -0.2598 -0.4256
  343MOL    C8048644   2.515   4.916   2.812 -0.2239  0.4423 -0.0499
  343MOL    O8148645   2.641   4.957   3.009  0.1545  0.1481  1.0490
  343MOL    H8248646   2.473   4.833   3.019 -1.7697 -0.8302 -3.1884
  343MOL    H8348647   2.578   4.832   2.782  0.5932  0.2343  2.1159
  343MOL    H8448648   2.549   5.009   2.768  0.5173  2.2388  4.0238
  343MOL    H8548649   2.411   4.911   2.782 -1.0475  0.5006  2.6174
  343MOL    C8648650   2.654   4.976   3.148 -0.2724  0.7619 -0.1113
  343MOL    C8748651   2.731   4.859   3.204 -0.7538 -0.0861 -0.4845
  343MOL    O8848652   2.732   5.090   3.182 -0.3475 -0.3403  0.6207
  343MOL    H8948653   2.556   4.985   3.195 -0.0358 -1.8751  0.9908
  343MOL    H9048654   2.690   4.764   3.171 -0.0726 -1.5504  2.6322
  343MOL    H9148655   2.725   4.885   3.310 -2.7819 -1.2589 -0.2872
  343MOL    H9248656   2.834   4.869   3.170 -0.3757 -1.3169  0.2670
  343MOL    C9348657   2.681   5.209   3.122 -0.1074  0.3627  0.3363
  343MOL    C9448658   2.589   5.274   3.229 -0.0010 -0.4727  0.0113
  343MOL    O9548659   2.775   5.299   3.092  0.1608 -0.0784  0.6791
  343MOL    H9648660   2.618   5.199   3.034 -1.3391  1.9706  0.9973
  343MOL    H9748661   2.649   5.301   3.316  2.3072 -1.8346 -1.1082
  343MOL    H9848662   2.511   5.203   3.259 -1.0246 -0.3966 -2.3668
  343MOL    H9948663   2.546   5.367   3.193  2.2986  1.0308  1.0687
  343MOL   C10048664   2.867   5.249   2.996 -0.5158 -0.4615  0.6569
  343MOL   C10148665   2.832   5.327   2.872  0.5854 -0.0688  0.8999
  343MOL   O10248666   2.994   5.286   3.024 -0.1762 -0.0961 -0.3084
  343MOL   H10348667   2.867   5.141   2.980  0.7239 -0.0795 -2.2133
  343MOL   H10448668   2.735   5.296   2.832  0.0056  2.0337  0.6498
  343MOL   H10548669   2.910   5.321   2.795 -0.9616 -0.3315 -0.6877
  343MOL   H10648670   2.814   5.432   2.894 -0.3862 -0.2509  0.9662
  343MOL   C10748671   3.049   5.223   3.134  0.7712 -0.0912 -0.0402
  343MOL   C10848672   3.146   5.127   3.073 -0.1789  0.2380  0.6739
  343MOL   O10948673   3.128   5.308   3.210 -0.1935 -0.4964 -0.1517
  343MOL   H11048674   2.986   5.173   3.207  0.7526  1.6496  1.1531
  343MOL   H11148675   3.219   5.181   3.014  2.1238 -1.6136  1.7168
  343MOL   H11248676   3.114   5.043   3.011 -2.6422 -0.9632  3.4523
  343MOL   H11348677   3.200   5.075   3.153  1.8283 -1.3809 -1.6463
  343MOL   C11448678   3.057   5.405   3.280 -0.0394 -0.2292 -0.0168
  343MOL   C11548679   3.061   5.376   3.433 -0.6100  0.3774 -0.0800
  343MOL   O11648680   3.112   5.534   3.268  0.3416  0.2728  0.1629
  343MOL   H11748681   2.952   5.403   3.252 -0.3601 -2.6923  1.2150
  343MOL   H11848682   3.016   5.462   3.483  0.7216  0.3202  1.2381
  343MOL   H11948683   3.160   5.364   3.476 -1.6516  1.5331  2.7471
  343MOL   H12048684   2.999   5.289   3.452 -0.9028  0.8082  0.9621
  343MOL   C12148685   3.118   5.570   3.131  0.4612 -0.2578 -0.5040
  343MOL   C12248686   3.008   5.669   3.086  0.0220  0.0718  0.2162
  343MOL   O12348687   3.235   5.643   3.113  0.6629 -0.5014 -0.0461
  343MOL   H12448688   3.113   5.488   3.058 -0.7849  0.0953 -0.8270
  343MOL   H12548689   3.018   5.714   2.987  3.2034  0.1719  0.5351
  343MOL   H12648690   2.996   5.745   3.163  1.1428 -0.7027  1.1634
  343MOL   H12748691   2.908   5.627   3.076 -0.1365  0.0849  1.6081
  343MOL   C12848692   3.351   5.572   3.125 -0.6184  0.0556 -0.2198
  343MOL   C12948693   3.427   5.589   2.992 -0.0610  0.0027 -0.1253
  343MOL   O13048694   3.441   5.625   3.223  0.3418 -0.4966  0.4041
  343MOL   H13148695   3.332   5.467   3.147  1.0377 -0.3935 -0.8396
  343MOL   H13248696   3.453   5.695   2.979  1.5829 -0.1356  1.7804
  343MOL   H13348697   3.362   5.566   2.908  1.3591  0.1859 -1.3128
  343MOL   H13448698   3.519   5.531   2.985 -0.8162 -1.3195  0.7804
  343MOL   C13548699   3.383   5.628   3.348 -0.1449 -0.6980  0.0795
  343MOL   C13648700   3.487   5.659   3.451  0.6424 -0.7645  0.5960
  343MOL   O13748701   3.296   5.737   3.356 -0.1341  0.5427  0.6755
  343MOL   H13848702   3.330   5.535   3.369  1.8831 -1.6918  0.8266
  343MOL   H13948703   3.523   5.761   3.441 -0.4435 -0.2772  1.6710
  343MOL   H14048704   3.580   5.607   3.425  1.6463  1.9072 -1.3929
  343MOL   H14148705   3.434   5.636   3.543 -0.8016 -1.5322 -0.4057
  343MOL   H14248706   3.239   5.732   3.281  0.6073  0.0776  0.1393
  344MOL     C148707   6.114   2.331   5.515 -0.7419  0.4888 -0.6248
  344MOL     C248708   5.984   2.263   5.538  0.0554  0.1476 -0.0872
  344MOL     O348709   6.222   2.283   5.599  0.4537 -0.0068 -0.1220
  344MOL     H448710   6.100   2.438   5.524  0.6152  0.8048 -1.9516
  344MOL     H548711   5.958   2.291   5.641 -1.1138  2.1194 -0.8970
  344MOL     H648712   5.993   2.154   5.541  0.2332  0.1854  0.8938
  344MOL     H748713   5.908   2.299   5.469  0.1075  0.4486  0.0093
  344MOL     H848714   6.140   2.320   5.410 -0.6420 -1.4589 -0.4204
  344MOL     C948715   6.332   2.374   5.599  0.4526  0.5894  0.2434
  344MOL    C1048716   6.442   2.302   5.671 -0.8540 -0.2995 -0.3275
  344MOL    O1148717   6.377   2.396   5.468 -0.1223  0.0525  0.6762
  344MOL    H1248718   6.310   2.473   5.639 -2.3053  0.6111 -1.2231
  344MOL    H1348719   6.411   2.275   5.772 -0.0940 -0.8678 -0.2354
  344MOL    H1448720   6.540   2.350   5.672 -1.5664  1.4482 -4.1852
  344MOL    H1548721   6.474   2.211   5.621 -1.0936 -1.5986  1.8052
  344MOL    C1648722   6.454   2.514   5.448  0.4054 -0.1579 -0.3509
  344MOL    C1748723   6.490   2.518   5.298 -1.1152 -0.2216 -0.1857
  344MOL    O1848724   6.382   2.636   5.486 -0.0282 -0.0445  0.1751
  344MOL    H1948725   6.549   2.497   5.499  0.2744 -0.7335 -0.2983
  344MOL    H2048726   6.398   2.522   5.239  0.3008 -0.2147 -2.4459
  344MOL    H2148727   6.544   2.428   5.271 -0.1777 -0.3799  2.0792
  344MOL    H2248728   6.546   2.604   5.263  2.9674 -2.6707  0.0788
  344MOL    C2348729   6.463   2.737   5.533 -0.1642 -0.2331  0.2700
  344MOL    C2448730   6.396   2.872   5.513 -0.1041  0.1043 -0.0679
  344MOL    O2548731   6.496   2.715   5.668 -0.8321 -0.1845  0.3745
  344MOL    H2648732   6.553   2.742   5.472 -1.3334  0.6295 -1.4712
  344MOL    H2748733   6.439   2.949   5.577  0.3043  0.7011 -1.0455
  344MOL    H2848734   6.291   2.861   5.538  0.0688  0.4506  0.8356
  344MOL    H2948735   6.414   2.900   5.409  0.9005 -0.2749 -0.0016
  344MOL    C3048736   6.632   2.729   5.694  0.9538  0.1134  0.2553
  344MOL    C3148737   6.638   2.756   5.844  0.1399 -0.4590  0.2644
  344MOL    O3248738   6.704   2.618   5.652 -0.0943  0.2344  0.2419
  344MOL    H3348739   6.671   2.819   5.646  1.7322 -0.1255  0.4316
  344MOL    H3448740   6.637   2.659   5.894 -0.5746 -1.3996 -1.5282
  344MOL    H3548741   6.563   2.832   5.868  0.5614 -0.2034  0.7823
  344MOL    H3648742   6.735   2.798   5.869  0.2032  0.3840 -1.3401
  344MOL    C3748743   6.825   2.647   5.590 -0.4148  0.2396 -0.5065
  344MOL    C3848744   6.892   2.507   5.577 -0.0054 -0.2374 -0.3894
  344MOL    O3948745   6.806   2.699   5.463  0.2218  0.3625 -0.3729
  344MOL    H4048746   6.889   2.700   5.661  0.3750 -0.9514 -0.3108
  344MOL    H4148747   6.912   2.472   5.678 -1.0083 -0.7738 -0.3667
  344MOL    H4248748   6.991   2.524   5.534  1.0385  2.6983  2.9810
  344MOL    H4348749   6.825   2.444   5.517 -0.1797  0.0530 -0.4991
  344MOL    C4448750   6.905   2.795   5.434  0.5555  0.4320 -0.2122
  344MOL    C4548751   6.880   2.819   5.289 -0.3519 -0.3800 -0.3221
  344MOL    O4648752   6.874   2.917   5.504  0.6741  0.0758 -0.0418
  344MOL    H4748753   7.006   2.761   5.456 -0.0990 -2.0939 -0.8770
  344MOL    H4848754   6.773   2.842   5.283 -0.5916 -0.1839  3.4607
  344MOL    H4948755   6.904   2.731   5.229  0.7125  1.4309 -2.6467
  344MOL    H5048756   6.945   2.891   5.239 -1.2753 -0.1684 -1.2519
  344MOL    C5148757   6.987   2.972   5.560  0.0065 -0.0882 -0.6034
  344MOL    C5248758   6.954   3.123   5.581 -0.2053  0.4080  0.1690
  344MOL    O5348759   7.024   2.924   5.688 -0.0656  0.6130  0.1210
  344MOL    H5448760   7.067   2.969   5.486  0.8764  1.1125  0.2643
  344MOL    H5548761   7.045   3.175   5.611  1.0046 -0.6035 -1.6726
  344MOL    H5648762   6.884   3.140   5.662  0.6863  0.4747  0.9400
  344MOL    H5748763   6.901   3.161   5.494 -0.0738  1.0681  0.3674
  344MOL    C5848764   7.156   2.875   5.703 -0.9109  0.5871  0.0925
  344MOL    C5948765   7.180   2.851   5.853  0.2541 -0.1889  0.2000
  344MOL    O6048766   7.163   2.758   5.638 -0.2493  0.6129 -0.2239
  344MOL    H6148767   7.223   2.947   5.657  0.6069  0.0346  1.3848
  344MOL    H6248768   7.284   2.831   5.878  0.7766  2.3631  0.1794
  344MOL    H6348769   7.121   2.766   5.886  0.8725 -0.7775 -0.1982
  344MOL    H6448770   7.155   2.935   5.918 -0.1386 -0.8815  0.9421
  344MOL    C6548771   7.293   2.720   5.593  0.3720 -0.1627 -0.1079
  344MOL    C6648772   7.291   2.563   5.574  0.3087 -0.2449 -0.2934
  344MOL    O6748773   7.331   2.764   5.467 -0.3905  0.6714 -0.6239
  344MOL    H6848774   7.377   2.739   5.659  1.1651 -0.8951 -0.8933
  344MOL    H6948775   7.219   2.531   5.499  0.5084  0.2275 -0.6891
  344MOL    H7048776   7.270   2.510   5.667 -1.4214  1.5371  0.3511
  344MOL    H7148777   7.390   2.524   5.552  0.1111 -1.1258  0.3287
  344MOL    C7248778   7.450   2.829   5.455 -0.0010  0.9637 -0.7131
  344MOL    C7348779   7.476   2.868   5.308 -0.0427 -0.3421  0.4237
  344MOL    O7448780   7.424   2.943   5.524 -0.8900  0.0488  0.1108
  344MOL    H7548781   7.531   2.762   5.485 -0.8581  0.7465  1.1548
  344MOL    H7648782   7.559   2.937   5.295 -2.5010  2.2143 -2.5608
  344MOL    H7748783   7.389   2.925   5.273 -1.2838 -1.7446  1.1768
  344MOL    H7848784   7.488   2.775   5.254 -0.9992 -0.3819  0.2694
  344MOL    C7948785   7.533   2.989   5.596 -0.4458  0.5563 -0.1561
  344MOL    C8048786   7.508   3.140   5.626 -0.0766 -0.3612 -0.1181
  344MOL    O8148787   7.551   2.928   5.726 -0.8318 -0.8208  0.5046
  344MOL    H8248788   7.623   2.986   5.535  0.5640 -2.2097  1.3981
  344MOL    H8348789   7.579   3.187   5.695 -0.9172 -0.9434  1.1558
  344MOL    H8448790   7.412   3.142   5.678 -1.4658  0.1029 -2.5780
  344MOL    H8548791   7.505   3.205   5.538  1.3165 -0.4521 -0.2444
  344MOL    C8648792   7.677   2.878   5.746  0.1655 -0.3652 -0.2772
  344MOL    C8748793   7.668   2.806   5.889 -0.1045  0.2603  0.4416
  344MOL    O8848794   7.699   2.775   5.662  0.0623  0.1640  0.1038
  344MOL    H8948795   7.757   2.952   5.739  1.5231 -1.7314  0.3931
  344MOL    H9048796   7.604   2.718   5.880 -0.8878  0.9794 -1.2138
  344MOL    H9148797   7.625   2.880   5.956 -0.6821 -0.3933  0.7931
  344MOL    H9248798   7.761   2.778   5.938 -0.3190  0.9160  1.2460
  344MOL    C9348799   7.821   2.783   5.588 -0.1669 -0.4937 -0.0554
  344MOL    C9448800   7.851   2.640   5.543 -0.1584  0.2774  0.0033
  344MOL    O9548801   7.806   2.860   5.469 -0.1269 -0.3310  0.1646
  344MOL    H9648802   7.903   2.819   5.650  0.4411 -2.2310  0.1719
  344MOL    H9748803   7.766   2.603   5.486  0.8659  0.1326 -1.4795
  344MOL    H9848804   7.870   2.574   5.627 -0.0827  0.0139 -0.2217
  344MOL    H9948805   0.019   2.643   5.471  1.8133 -2.0394  2.0830
  344MOL   C10048806   7.880   2.978   5.464 -0.5596  0.5812  0.4247
  344MOL   C10148807   7.906   3.034   5.326 -0.0271  1.2905  0.5647
  344MOL   O10248808   7.829   3.082   5.541  0.0928 -0.3013  0.6379
  344MOL   H10348809   0.069   2.950   5.488  0.0031  0.0809 -2.4310
  344MOL   H10448810   0.070   3.109   5.328  1.1043  0.1101  3.0324
  344MOL   H10548811   7.818   3.074   5.276 -0.7597 -2.0766 -0.9806
  344MOL   H10648812   0.043   2.957   5.268  0.2946 -0.7500  3.4484
  344MOL   C10748813   0.017   3.145   5.620  0.3605  0.1513 -0.1460
  344MOL   C10848814   7.879   3.280   5.667  0.8538 -0.4213  0.0488
  344MOL   O10948815   0.041   3.060   5.737  0.0132  0.5564  0.0251
  344MOL   H11048816   0.108   3.167   5.565  1.6884 -1.1594  1.4572
  344MOL   H11148817   0.035   3.317   5.743  0.3089 -0.6726  0.6779
  344MOL   H11248818   7.788   3.275   5.726  1.5984 -1.8252  1.1073
  344MOL   H11348819   7.877   3.350   5.583  3.5784 -1.1177 -0.6454
  344MOL   C11448820   0.173   3.068   5.779 -0.4177  0.0025  0.3326
  344MOL   C11548821   0.183   2.990   5.914  0.5241 -0.1790 -0.0109
  344MOL   O11648822   0.269   3.019   5.689 -0.0138 -0.3014  0.3435
  344MOL   H11748823   0.186   3.175   5.796 -1.3069  0.3372 -1.0470
  344MOL   H11848824   0.099   3.015   5.979  0.4516 -0.9565  0.2043
  344MOL   H11948825   0.280   3.002   5.962  0.8043  1.5892 -0.9828
  344MOL   H12048826   0.183   2.885   5.885 -0.1208 -0.3567  0.6135
  344MOL   C12148827   0.404   3.057   5.719 -0.2233  0.2102 -0.1532
  344MOL   C12248828   0.493   2.930   5.697  0.6132  0.3669  0.0855
  344MOL   O12348829   0.450   3.153   5.629 -0.5012  0.0272  0.4940
  344MOL   H12448830   0.427   3.082   5.823  1.0511  0.9432 -0.5946
  344MOL   H12548831   0.465   2.860   5.776  0.7785 -1.0738 -1.1120
  344MOL   H12648832   0.599   2.947   5.714  1.0368 -0.1000 -1.9226
  344MOL   H12748833   0.466   2.886   5.601 -2.7845  0.1853  1.0670
  344MOL   C12848834   0.484   3.273   5.687  0.3398 -0.6924 -0.1302
  344MOL   C12948835   0.555   3.349   5.572 -0.2799  0.0219  0.1054
  344MOL   O13048836   0.371   3.344   5.728 -0.2114 -0.7262  0.0126
  344MOL   H13148837   0.547   3.256   5.774 -1.7835 -0.2164  1.5211
  344MOL   H13248838   0.588   3.442   5.617  1.3343 -0.3333 -0.2987
  344MOL   H13348839   0.493   3.374   5.486  2.4238  2.5128 -1.1957
  344MOL   H13448840   0.636   3.293   5.524 -1.4518 -1.7129  0.1023
  344MOL   C13548841   0.391   3.413   5.849 -0.2324 -0.4719 -0.4676
  344MOL   C13648842   0.264   3.499   5.874  0.3574  0.0983  0.4047
  344MOL   O13748843   0.418   3.323   5.957 -0.6025 -0.0907  0.4470
  344MOL   H13848844   0.478   3.478   5.840  0.5175 -1.5764 -1.3012
  344MOL   H13948845   0.248   3.587   5.812 -0.0692  1.1666  1.9992
  344MOL   H14048846   0.266   3.557   5.966 -1.2132  0.2962  0.3283
  344MOL   H14148847   0.180   3.429   5.875  0.3210  0.1448  0.6294
  344MOL   H14248848   0.509   3.339   5.974 -0.9327  0.6267  1.6229
  345MOL     C148849   2.904   6.396   6.470 -0.3417  0.4818 -0.1670
  345MOL     C248850   2.895   6.331   6.614 -0.2062 -0.5487 -0.5816
  345MOL     O348851   3.030   6.438   6.430 -0.4460  0.2250 -0.2713
  345MOL     H448852   2.821   6.466   6.461 -0.1369  1.1902  3.0277
  345MOL     H548853   2.922   6.414   6.679 -0.3910 -2.0597  1.4648
  345MOL     H648854   2.968   6.257   6.643 -0.2093  0.5704  2.4157
  345MOL     H748855   2.797   6.286   6.631 -0.3036 -0.0477  0.2173
  345MOL     H848856   2.874   6.315   6.403 -0.1342 -0.4221  0.8215
  345MOL     C948857   3.047   6.474   6.304 -0.3637  0.2562 -0.2616
  345MOL    C1048858   3.026   6.631   6.295 -0.1360  0.2056  0.9079
  345MOL    O1148859   3.180   6.451   6.266  0.4056 -1.0327  0.0915
  345MOL    H1248860   2.983   6.423   6.232  1.4789  0.5825 -2.2132
  345MOL    H1348861   3.039   6.664   6.192  0.8453  0.5149  1.1329
  345MOL    H1448862   3.101   6.674   6.360 -0.1163 -1.9194  2.3463
  345MOL    H1548863   2.924   6.653   6.328 -0.1009  2.5558 -0.4042
  345MOL    C1648864   3.215   6.316   6.257  0.0467 -0.3988  1.0010
  345MOL    C1748865   3.198   6.287   6.111 -0.4568  0.5811  0.2302
  345MOL    O1848866   3.355   6.305   6.286  0.5789  0.0721 -0.4256
  345MOL    H1948867   3.151   6.251   6.317  0.4910 -2.3609 -0.5790
  345MOL    H2048868   3.097   6.311   6.081 -0.6363 -1.4543 -0.9008
  345MOL    H2148869   3.199   6.178   6.102 -0.0706  0.6732 -0.9758
  345MOL    H2248870   3.282   6.321   6.050 -0.6859  0.6408 -0.0470
  345MOL    C2348871   3.369   6.279   6.426  0.1704  0.7415 -0.5145
  345MOL    C2448872   3.405   6.126   6.427 -0.4775  0.4367 -0.1453
  345MOL    O2548873   3.473   6.350   6.477  0.1865  0.1637 -0.1212
  345MOL    H2648874   3.277   6.295   6.483  0.0192  1.1369 -0.8748
  345MOL    H2748875   3.506   6.108   6.388 -0.2394 -0.8672  1.0289
  345MOL    H2848876   3.339   6.063   6.367 -1.3105  2.5522 -1.5063
  345MOL    H2948877   3.404   6.089   6.529 -0.5161  0.3550 -0.1756
  345MOL    C3048878   3.439   6.485   6.484 -0.3269 -0.6249 -0.1651
  345MOL    C3148879   3.418   6.513   6.633 -1.3170 -0.6335  0.3667
  345MOL    O3248880   3.548   6.553   6.444 -0.4162 -0.2682 -0.1733
  345MOL    H3348881   3.353   6.510   6.423  0.1199 -0.2046 -0.6277
  345MOL    H3448882   3.405   6.621   6.640 -0.1227 -0.3636 -1.2803
  345MOL    H3548883   3.500   6.479   6.696  0.5761  1.4305 -0.8956
  345MOL    H3648884   3.324   6.462   6.658 -1.9310  0.2287 -0.1503
  345MOL    C3748885   3.529   6.624   6.325  1.4303  0.1791 -0.1692
  345MOL    C3848886   3.481   6.774   6.364 -0.2827  0.1997 -0.1293
  345MOL    O3948887   3.642   6.639   6.249 -0.4102 -0.2076  0.2433
  345MOL    H4048888   3.453   6.577   6.261  0.8815 -0.9077  1.2447
  345MOL    H4148889   3.411   6.821   6.295  0.0332  1.5676  0.4699
  345MOL    H4248890   3.567   6.838   6.383  0.2039 -0.1248 -1.1717
  345MOL    H4348891   3.419   6.777   6.454 -1.7105 -2.4343 -0.9777
  345MOL    C4448892   3.727   6.530   6.227 -0.6586 -0.1060 -0.5978
  345MOL    C4548893   3.688   6.453   6.099  0.3851  0.0870 -0.0717
  345MOL    O4648894   3.860   6.571   6.200 -0.0466  0.9173  0.3444
  345MOL    H4748895   3.746   6.475   6.320 -0.6908  1.2365  0.2138
  345MOL    H4848896   3.598   6.392   6.111  1.4776 -1.7360 -0.9589
  345MOL    H4948897   3.768   6.382   6.078  0.4318 -0.4177  1.7563
  345MOL    H5048898   3.669   6.517   6.013  1.6978 -1.0461 -1.2412
  345MOL    C5148899   3.927   6.642   6.295  0.6006 -0.1681  0.3382
  345MOL    C5248900   4.050   6.563   6.351 -0.4923 -0.1126 -0.0674
  345MOL    O5348901   3.971   6.771   6.251 -0.0502  0.0624  0.1734
  345MOL    H5448902   3.853   6.654   6.375  0.1449  1.3363 -0.2817
  345MOL    H5548903   4.092   6.505   6.269 -0.4915 -1.1602  0.6676
  345MOL    H5648904   4.021   6.494   6.431 -0.2557 -1.1717 -0.8844
  345MOL    H5748905   4.115   6.630   6.408 -1.5304  0.2377  0.7092
  345MOL    C5848906   3.877   6.876   6.237  0.9852 -0.1839 -0.1850
  345MOL    C5948907   3.867   6.945   6.374 -0.0646 -0.0369 -0.0228
  345MOL    O6048908   3.943   6.976   6.160  0.7315  0.6494  0.3306
  345MOL    H6148909   3.785   6.841   6.190  1.1406  0.2692 -0.8372
  345MOL    H6248910   3.824   6.873   6.443  1.2333  0.4575  1.3403
  345MOL    H6348911   3.796   7.027   6.365  0.2193  0.5093  2.3266
  345MOL    H6448912   3.960   6.982   6.419  0.2430 -1.8059  0.8178
  345MOL    C6548913   3.946   6.955   6.020  0.3687 -0.8247 -0.3799
  345MOL    C6648914   3.833   7.049   5.965 -0.0167  0.0357 -0.1145
  345MOL    O6748915   4.065   7.005   5.965 -0.1623  0.5989 -0.2052
  345MOL    H6848916   3.918   6.856   5.984  0.3365 -1.4112  1.2388
  345MOL    H6948917   3.831   7.055   5.856  1.0394 -0.7997 -0.1812
  345MOL    H7048918   3.840   7.152   6.000  1.5542  0.7764 -2.4882
  345MOL    H7148919   3.736   7.009   5.995 -0.5156  0.2306 -1.3926
  345MOL    C7248920   4.180   6.925   6.000  0.3216 -0.4413 -0.3011
  345MOL    C7348921   4.233   6.864   5.872  0.3091  0.1584  0.3306
  345MOL    O7448922   4.283   6.997   6.059 -0.3371 -0.6784  0.2520
  345MOL    H7548923   4.155   6.843   6.067  0.1428  0.2762  0.5171
  345MOL    H7648924   4.153   6.812   5.820  0.8921  1.2243 -1.6972
  345MOL    H7748925   4.312   6.797   5.906 -0.0239 -0.9015 -0.9633
  345MOL    H7848926   4.278   6.931   5.798  1.7336 -1.3305 -0.1886
  345MOL    C7948927   4.263   7.046   6.197  0.0447  0.1934  0.3953
  345MOL    C8048928   4.324   6.952   6.298  0.2274  0.2668 -0.2491
  345MOL    O8148929   4.317   7.175   6.203 -0.7568  0.2117  0.0611
  345MOL    H8248930   4.154   7.053   6.205  0.0183 -1.1210  1.3009
  345MOL    H8348931   4.293   6.848   6.281  2.8936 -0.8478  1.3336
  345MOL    H8448932   4.297   6.981   6.399  0.8936  2.5681 -0.7124
  345MOL    H8548933   4.432   6.946   6.282  0.5894  1.4354  1.6136
  345MOL    C8648934   4.254   7.268   6.120  0.3622 -0.0754 -0.1267
  345MOL    C8748935   4.132   7.326   6.188  0.7246 -0.8675 -0.4502
  345MOL    O8848936   4.336   7.369   6.100  0.4083 -0.5567 -0.7363
  345MOL    H8948937   4.224   7.222   6.026 -1.7836  1.1066 -0.0429
  345MOL    H9048938   4.056   7.252   6.211  0.8171 -1.0297 -0.6671
  345MOL    H9148939   4.097   7.400   6.117 -1.4780 -0.7346  0.7194
  345MOL    H9248940   4.153   7.382   6.279  0.7153 -0.6767 -0.5665
  345MOL    C9348941   4.448   7.346   6.019 -0.8396 -0.0122 -0.3274
  345MOL    C9448942   4.429   7.416   5.887  0.1115  0.5685 -0.2137
  345MOL    O9548943   4.570   7.394   6.074  0.2616 -0.0841 -0.3253
  345MOL    H9648944   4.464   7.239   6.003 -2.2760 -0.3432  0.3630
  345MOL    H9748945   4.330   7.391   5.850  0.0902  1.5986 -0.8602
  345MOL    H9848946   4.504   7.376   5.818 -1.2118 -2.3127 -0.0677
  345MOL    H9948947   4.440   7.522   5.910  0.4952  0.7610 -1.2547
  345MOL   C10048948   4.626   7.324   6.183 -0.4012 -0.8647 -0.1322
  345MOL   C10148949   4.767   7.295   6.150  0.5710 -0.2257  0.1531
  345MOL   O10248950   4.624   7.407   6.295 -0.8175  0.0008  0.4372
  345MOL   H10348951   4.563   7.240   6.213 -0.8974 -1.1963 -2.0275
  345MOL   H10448952   4.832   7.259   6.229  0.9111 -1.8516 -0.8334
  345MOL   H10548953   4.808   7.379   6.094 -0.7759 -0.2277 -0.8508
  345MOL   H10648954   4.764   7.212   6.078  1.9194 -0.6037  0.5229
  345MOL   C10748955   4.497   7.437   6.358 -0.3305  0.4482 -1.5755
  345MOL   C10848956   4.506   7.398   6.509  0.3273 -0.0451 -0.1337
  345MOL   O10948957   4.473   7.581   6.356 -0.3442  0.8621  0.8073
  345MOL   H11048958   4.412   7.380   6.321 -2.0286 -0.5048  3.5077
  345MOL   H11148959   4.422   7.411   6.577  1.7891  1.5897  1.4085
  345MOL   H11248960   4.592   7.451   6.551  0.2275  1.0840 -1.3317
  345MOL   H11348961   4.518   7.290   6.512 -0.1506 -0.1010 -0.1974
  345MOL   C11448962   4.463   7.641   6.232 -0.4869 -0.0956 -0.2473
  345MOL   C11548963   4.325   7.704   6.214  0.0426  0.1630  0.6809
  345MOL   O11648964   4.558   7.745   6.218  0.2614  0.4173 -1.1769
  345MOL   H11748965   4.473   7.570   6.150 -1.5630 -1.3589  0.6906
  345MOL   H11848966   4.254   7.622   6.223  2.0594 -1.4638  2.6415
  345MOL   H11948967   4.305   7.748   6.117  1.7997  0.2772  0.3422
  345MOL   H12048968   4.307   7.777   6.293  0.5013 -0.1646  1.0935
  345MOL   C12148969   4.678   7.711   6.159  0.2806 -0.1311  0.6519
  345MOL   C12248970   4.693   7.786   6.029 -0.6347 -0.0149  0.7813
  345MOL   O12348971   4.778   7.773   6.238  0.2078  0.2245  0.0979
  345MOL   H12448972   4.702   7.606   6.140 -1.0436 -0.1840 -0.8161
  345MOL   H12548973   4.661   7.889   6.043 -1.0084  0.0386 -0.4338
  345MOL   H12648974   4.631   7.738   5.953 -3.6274 -0.1083  3.1627
  345MOL   H12748975   4.798   7.782   5.999 -0.5324 -1.9125  1.3238
  345MOL   C12848976   4.812   7.692   6.345  0.3790 -0.1157  0.2725
  345MOL   C12948977   4.952   7.625   6.328 -0.1456  0.0934  0.6955
  345MOL   O13048978   4.817   7.763   6.467 -0.1883  0.4056 -0.0300
  345MOL   H13148979   4.744   7.609   6.363 -0.2640  0.6900  1.5843
  345MOL   H13248980   4.961   7.570   6.235  1.9784 -0.2705  1.0894
  345MOL   H13348981   4.963   7.547   6.404  0.2712 -0.6040 -0.0799
  345MOL   H13448982   5.027   7.704   6.330 -0.4409  0.3566  2.6206
  345MOL   C13548983   4.689   7.787   6.520  0.1840 -0.4984 -0.4233
  345MOL   C13648984   4.705   7.835   6.662  0.7749  0.4334 -0.4260
  345MOL   O13748985   4.622   7.884   6.446  0.4331 -0.2658  0.0486
  345MOL   H13848986   4.633   7.693   6.520 -0.0217 -0.3786 -0.9113
  345MOL   H13948987   4.751   0.019   6.657 -0.9391  1.2516 -0.5130
  345MOL   H14048988   4.777   7.762   6.700 -1.0052  0.2555  2.7938
  345MOL   H14148989   4.613   7.836   6.720  1.4676 -1.2282  0.7430
  345MOL   H14248990   4.609   7.846   6.361  2.2071 -0.6421 -0.0722
  346MOL     C148991   1.709   0.057   1.273 -0.0353  0.7171  0.2530
  346MOL     C248992   1.578   0.042   1.183 -0.4360 -0.0165 -0.4739
  346MOL     O348993   1.779   0.176   1.229  0.1287 -0.2742  0.2710
  346MOL     H448994   1.770   7.884   1.248 -0.1328  0.5640  0.5465
  346MOL     H548995   1.516   7.869   1.207  0.3396 -0.3811  0.2283
  346MOL     H648996   1.596   0.031   1.076  2.6935 -0.7970  0.0826
  346MOL     H748997   1.529   0.139   1.193  2.3182  1.4969 -1.1763
  346MOL     H848998   1.678   0.053   1.377 -0.7943  1.0797  0.0361
  346MOL     C948999   1.907   0.189   1.279  0.0995 -0.2271 -0.6894
  346MOL    C1049000   1.977   0.327   1.240 -0.0881  0.5232 -0.1137
  346MOL    O1149001   1.914   0.174   1.421  0.4261 -0.3742 -0.0529
  346MOL    H1249002   1.955   0.107   1.225  0.6344 -0.1200 -0.3844
  346MOL    H1349003   1.909   0.407   1.272 -3.1230 -1.4555 -1.3604
  346MOL    H1449004   1.984   0.333   1.131  1.8373 -0.8936 -0.0906
  346MOL    H1549005   2.078   0.334   1.278 -0.7854  2.0079  1.5393
  346MOL    C1649006   1.999   0.074   1.466 -0.1338  0.7154  0.2826
  346MOL    C1749007   1.996   0.092   1.622 -0.0971 -0.2680  0.5704
  346MOL    O1849008   1.951   7.859   1.448  0.0604 -0.4230  0.2517
  346MOL    H1949009   2.095   0.084   1.416  0.0897  0.9552  0.7575
  346MOL    H2049010   1.908   0.043   1.666 -0.7921  1.3066  0.9500
  346MOL    H2149011   1.998   0.198   1.644  1.8060  0.1451 -1.4803
  346MOL    H2249012   2.087   0.050   1.665  0.6088  2.1583  1.4966
  346MOL    C2349013   2.047   7.757   1.438  0.3843  0.0783  0.4027
  346MOL    C2449014   1.960   7.632   1.412  0.3182  0.1651 -0.3997
  346MOL    O2549015   2.141   7.772   1.337 -0.1275  0.1215  0.5402
  346MOL    H2649016   2.090   7.758   1.537 -2.4393 -1.2393  1.7082
  346MOL    H2749017   2.018   7.541   1.425  1.7743  1.0313 -0.6411
  346MOL    H2849018   1.924   7.629   1.309 -3.0915 -2.4490  0.7932
  346MOL    H2949019   1.872   7.633   1.476  0.2191  1.0691 -0.5449
  346MOL    C3049020   2.274   7.754   1.384 -0.1634 -0.1114 -0.5284
  346MOL    C3149021   2.368   7.766   1.265 -0.2693 -0.0662  0.0548
  346MOL    O3249022   2.323   7.845   1.467 -0.1477  0.4185  0.2585
  346MOL    H3349023   2.270   7.653   1.425 -0.9587 -0.3933 -1.2889
  346MOL    H3449024   2.467   7.720   1.270 -0.2472 -0.3394 -2.2459
  346MOL    H3549025   2.380   7.872   1.244 -0.0026 -0.4321 -1.7658
  346MOL    H3649026   2.312   7.724   1.181  0.7775  1.9207 -1.6903
  346MOL    C3749027   2.391   7.804   1.577  0.1777  0.2678  0.1324
  346MOL    C3849028   2.449   0.015   1.639  1.0344  0.3195 -0.3521
  346MOL    O3949029   2.306   7.749   1.675  0.2561  0.0959  0.3285
  346MOL    H4049030   2.476   7.743   1.547 -1.1225 -2.1079  1.0592
  346MOL    H4149031   2.529   0.060   1.579 -0.6791  2.5497 -1.0534
  346MOL    H4249032   2.495   7.894   1.731  2.0085 -2.1904 -1.7463
  346MOL    H4349033   2.375   0.088   1.672  1.5078  0.8619 -0.4866
  346MOL    C4449034   2.330   7.617   1.713  0.1116 -0.1174  0.4202
  346MOL    C4549035   2.255   7.600   1.847 -0.1925  0.0709  0.6905
  346MOL    O4649036   2.280   7.527   1.616  0.8268 -0.3147 -0.7303
  346MOL    H4749037   2.439   7.612   1.724  0.0561  0.7115  1.4849
  346MOL    H4849038   2.266   7.495   1.876  0.3781 -0.1060 -0.1449
  346MOL    H4949039   2.146   7.608   1.846 -0.3137 -1.0600  2.4350
  346MOL    H5049040   2.300   7.664   1.923  2.6220 -1.3436  0.2932
  346MOL    C5149041   2.355   7.416   1.596 -0.6480 -0.2661  0.0466
  346MOL    C5249042   2.258   7.310   1.534 -0.0047 -0.0692 -0.4867
  346MOL    O5349043   2.455   7.443   1.498 -0.2113  1.0279  0.1129
  346MOL    H5449044   2.390   7.380   1.692 -1.6566  0.6740  0.7915
  346MOL    H5549045   2.290   7.206   1.542 -1.1506 -0.3386  0.6189
  346MOL    H5649046   2.246   7.339   1.430 -3.8968  0.3223 -0.0090
  346MOL    H5749047   2.159   7.311   1.578  0.9471 -0.7801  1.7480
  346MOL    C5849048   2.591   7.439   1.532 -0.1483 -0.1284 -0.0824
  346MOL    C5949049   2.669   7.450   1.410  0.0643  0.0064 -0.2025
  346MOL    O6049050   2.643   7.549   1.606  0.4510  0.2321 -0.1958
  346MOL    H6149051   2.600   7.339   1.575  0.5445  0.1367  0.4047
  346MOL    H6249052   2.625   7.391   1.328 -0.8621  0.9570 -0.4006
  346MOL    H6349053   2.772   7.433   1.441 -0.4425 -1.9023  0.5241
  346MOL    H6449054   2.667   7.556   1.385 -0.1272  0.3419  1.2179
  346MOL    C6549055   2.703   7.508   1.729  0.1344  0.0967 -0.1040
  346MOL    C6649056   2.754   7.636   1.798 -0.1882 -0.0689 -0.3157
  346MOL    O6749057   2.605   7.447   1.811  0.2493  0.3718  0.3006
  346MOL    H6849058   2.787   7.443   1.706  0.2501  0.3298 -0.3498
  346MOL    H6949059   2.677   7.695   1.847 -0.6569 -1.0096  0.0963
  346MOL    H7049060   2.816   7.698   1.734  1.0916 -1.9112 -0.9087
  346MOL    H7149061   2.823   7.602   1.875 -3.1002 -2.0670  1.5353
  346MOL    C7249062   2.662   7.347   1.893 -0.2500 -0.0016  0.6448
  346MOL    C7349063   2.559   7.317   2.005  0.0295 -0.8611  0.4634
  346MOL    O7449064   2.669   7.224   1.819  0.4009 -0.3513  0.6382
  346MOL    H7549065   2.751   7.392   1.936 -0.5421 -0.3936  1.6667
  346MOL    H7649066   2.467   7.286   1.956 -0.8714 -0.5346  1.9083
  346MOL    H7749067   2.535   7.402   2.069 -0.3116 -0.4784 -0.1682
  346MOL    H7849068   2.596   7.235   2.067  0.7469 -0.1619  0.9788
  346MOL    C7949069   2.781   7.151   1.841  0.0201  0.9401 -0.1257
  346MOL    C8049070   2.766   7.023   1.760  1.1096  0.5035 -0.6406
  346MOL    O8149071   2.891   7.219   1.793 -0.2034 -0.1730 -0.0155
  346MOL    H8249072   2.782   7.124   1.946  1.9123 -0.0318 -0.3588
  346MOL    H8349073   2.665   6.988   1.783  0.5794  2.0298 -0.5530
  346MOL    H8449074   2.839   6.947   1.785  0.1368 -1.3870 -3.3203
  346MOL    H8549075   2.790   7.045   1.656  1.8829 -1.6423 -0.9222
  346MOL    C8649076   2.998   7.242   1.883  0.1587  0.6030 -0.7883
  346MOL    C8749077   3.088   7.333   1.812  0.7237 -0.3108 -0.0161
  346MOL    O8849078   2.952   7.303   2.002  0.3797 -0.0463  0.2588
  346MOL    H8949079   3.046   7.146   1.904  1.0194  1.5310  1.7206
  346MOL    H9049080   3.026   7.416   1.778  2.0523  1.3442  1.5354
  346MOL    H9149081   3.120   7.285   1.720 -0.4436 -0.0976 -0.5407
  346MOL    H9249082   3.180   7.347   1.870  0.3611  1.4085  0.1783
  346MOL    C9349083   3.037   7.270   2.109  0.2142  0.0744 -0.8347
  346MOL    C9449084   2.983   7.349   2.227 -0.2576  0.3813 -0.3571
  346MOL    O9549085   3.022   7.136   2.135  0.8359  0.3428 -0.1334
  346MOL    H9649086   3.140   7.282   2.075  0.7120 -1.3562  0.0874
  346MOL    H9749087   2.883   7.310   2.250  1.3232 -3.8192 -0.1417
  346MOL    H9849088   2.983   7.457   2.210  1.9369  0.1661 -1.8586
  346MOL    H9949089   3.041   7.329   2.317 -0.4063 -0.6668 -0.4880
  346MOL   C10049090   3.137   7.076   2.194  0.0023  0.1088 -0.0113
  346MOL   C10149091   3.091   6.936   2.236 -0.1586  0.1575 -0.7420
  346MOL   O10249092   3.242   7.060   2.103  0.1220  0.4024  0.4089
  346MOL   H10349093   3.161   7.142   2.278 -0.4488  2.0897 -1.4056
  346MOL   H10449094   3.018   6.961   2.313  1.0110 -0.6772  0.6502
  346MOL   H10549095   3.168   6.888   2.294  0.6895  1.4310 -0.7876
  346MOL   H10649096   3.058   6.875   2.151 -1.1351 -0.0277 -0.2366
  346MOL   C10749097   3.365   7.111   2.143 -0.0322 -0.4073 -1.2220
  346MOL   C10849098   3.458   7.094   2.024 -0.3672  0.4412  0.4640
  346MOL   O10949099   3.359   7.243   2.174  0.0173  0.1544  0.5533
  346MOL   H11049100   3.388   7.047   2.228 -0.7212 -0.0726 -0.7797
  346MOL   H11149101   3.554   7.136   2.056 -1.2838  2.2067  0.9806
  346MOL   H11249102   3.420   7.137   1.932  1.9792  1.2348 -0.1882
  346MOL   H11349103   3.468   6.987   2.004 -0.5957  0.9793 -2.6202
  346MOL   C11449104   3.445   7.291   2.275  0.7104  0.4895 -0.8088
  346MOL   C11549105   3.445   7.437   2.254 -1.1294  0.3599  0.3865
  346MOL   O11649106   3.386   7.273   2.401  0.5319 -0.2678 -0.1213
  346MOL   H11749107   3.547   7.254   2.264  0.2722 -1.0187  0.0815
  346MOL   H11849108   3.348   7.469   2.215 -0.3360  0.4499 -1.5752
  346MOL   H11949109   3.528   7.466   2.189  1.4987 -1.0932  3.0030
  346MOL   H12049110   3.452   7.489   2.350 -0.7540 -0.9920  1.0953
  346MOL   C12149111   3.469   7.225   2.499  0.0675  0.1524 -0.2300
  346MOL   C12249112   3.401   7.260   2.633  0.1903  0.4971 -1.1542
  346MOL   O12349113   3.469   7.085   2.493 -0.4512  0.2956  0.4855
  346MOL   H12449114   3.562   7.283   2.502  1.3741 -1.8237 -1.0510
  346MOL   H12549115   3.304   7.211   2.646 -0.0724  1.4693  0.6631
  346MOL   H12649116   3.382   7.366   2.642 -3.0950 -0.1685  0.4681
  346MOL   H12749117   3.465   7.224   2.714 -0.1829  2.8096  0.2056
  346MOL   C12849118   3.598   7.033   2.476 -0.7495  0.6004 -0.5300
  346MOL   C12949119   3.587   6.885   2.485  0.1059  0.2213 -0.1821
  346MOL   O13049120   3.648   7.061   2.351 -0.3409  0.1997 -0.2549
  346MOL   H13149121   3.661   7.073   2.555 -0.2206 -1.9665  0.3939
  346MOL   H13249122   3.681   6.838   2.457 -0.5144 -0.5805 -0.9340
  346MOL   H13349123   3.522   6.840   2.410 -0.1116  0.7680 -0.3241
  346MOL   H13449124   3.554   6.838   2.578  0.2758 -0.7763 -0.6199
  346MOL   C13549125   3.782   7.091   2.350 -0.3234  0.5657  0.4226
  346MOL   C13649126   3.836   7.042   2.215 -0.5524  0.8202  0.2376
  346MOL   O13749127   3.806   7.226   2.369  0.3549  0.5356  0.7058
  346MOL   H13849128   3.834   7.039   2.431 -1.0047 -1.9735 -0.7211
  346MOL   H13949129   3.806   6.940   2.194 -0.5458  0.8579  0.0420
  346MOL   H14049130   3.940   7.067   2.193 -0.4120 -0.6681 -0.8917
  346MOL   H14149131   3.794   7.101   2.133 -2.9502 -1.3012 -0.1051
  346MOL   H14249132   3.884   7.232   2.423  1.1835  0.2624 -0.4451
  347MOL     C149133   4.624   5.057   6.561  0.3728 -0.0818  0.3531
  347MOL     C249134   4.652   5.208   6.548  0.0951 -0.1487  0.4289
  347MOL     O349135   4.735   4.977   6.528  0.9023 -0.3338  0.5347
  347MOL     H449136   4.538   5.012   6.511  0.2526  0.0374  0.4510
  347MOL     H549137   4.721   5.229   6.629 -2.5061  1.2005  2.3672
  347MOL     H649138   4.560   5.266   6.558 -0.6724 -1.5214  1.4707
  347MOL     H749139   4.700   5.224   6.451  0.3270 -1.0901  0.3838
  347MOL     H849140   4.602   5.026   6.663  0.8395  2.0930  1.1391
  347MOL     C949141   4.735   4.851   6.576  0.0162  0.2117 -0.1549
  347MOL    C1049142   4.703   4.745   6.468  0.7015 -0.1010  0.0994
  347MOL    O1149143   4.861   4.823   6.607 -0.1197 -0.0856 -0.7833
  347MOL    H1249144   4.672   4.825   6.661 -0.2445  1.3287 -0.0016
  347MOL    H1349145   4.601   4.746   6.431  0.1532  1.6670  1.6121
  347MOL    H1449146   4.714   4.644   6.509 -0.0865 -0.0438  0.4534
  347MOL    H1549147   4.765   4.755   6.379  0.5351 -1.3657 -0.1743
  347MOL    C1649148   4.912   4.889   6.713  0.7651 -0.2638 -0.7541
  347MOL    C1749149   4.905   4.798   6.837 -0.0323 -0.2581  0.6252
  347MOL    O1849150   5.048   4.918   6.690 -0.1281  0.0924 -0.0174
  347MOL    H1949151   4.864   4.981   6.746 -1.8747 -1.7296 -0.3806
  347MOL    H2049152   4.953   4.704   6.812 -2.3507 -2.3698  3.7560
  347MOL    H2149153   4.804   4.779   6.876  0.3799 -2.8505  0.4713
  347MOL    H2249154   4.969   4.844   6.912 -1.8086  2.1392  0.7301
  347MOL    C2349155   5.077   5.022   6.606 -0.2299 -0.5267  1.3020
  347MOL    C2449156   5.115   5.147   6.686  0.8315 -0.1745 -0.3457
  347MOL    O2549157   5.192   4.996   6.531  0.1414  0.3469 -0.1749
  347MOL    H2649158   4.993   5.037   6.538 -0.3533 -1.0466  1.3397
  347MOL    H2749159   5.031   5.185   6.744  0.4230 -0.6154 -0.6494
  347MOL    H2849160   5.134   5.228   6.616  0.3975  0.3318  0.1190
  347MOL    H2949161   5.201   5.134   6.752 -0.0733 -0.8430  0.7090
  347MOL    C3049162   5.163   4.906   6.425 -0.1001  0.3554 -0.0903
  347MOL    C3149163   5.161   4.982   6.292 -0.3415 -0.2979  0.4690
  347MOL    O3249164   5.255   4.799   6.413 -0.5715  0.5854 -0.4462
  347MOL    H3349165   5.067   4.856   6.439  0.0435  0.9962  3.7961
  347MOL    H3449166   5.101   5.071   6.313 -1.5825 -0.7558 -1.0237
  347MOL    H3549167   5.118   4.924   6.210  1.6037  0.7402 -1.3307
  347MOL    H3649168   5.264   5.011   6.273 -0.9011  1.0983 -0.5327
  347MOL    C3749169   5.258   4.716   6.526 -0.1241 -0.2979 -0.0471
  347MOL    C3849170   5.157   4.602   6.499 -0.4149 -0.4256  0.2574
  347MOL    O3949171   5.387   4.661   6.546 -0.1795 -0.3218  0.1167
  347MOL    H4049172   5.222   4.763   6.618 -0.4247  2.3858 -1.5046
  347MOL    H4149173   5.059   4.629   6.458 -0.1671 -3.8975 -2.8365
  347MOL    H4249174   5.141   4.552   6.595  1.3512 -1.2673  0.1219
  347MOL    H4349175   5.205   4.540   6.424 -2.2190 -1.9263  0.2982
  347MOL    C4449176   5.485   4.765   6.546 -0.4101  0.2467  0.0848
  347MOL    C4549177   5.524   4.788   6.692  0.7762  0.4747 -0.9748
  347MOL    O4649178   5.604   4.716   6.484 -0.3290  0.5155  0.0181
  347MOL    H4749179   5.464   4.856   6.491  1.1410  0.3808 -0.2815
  347MOL    H4849180   5.439   4.803   6.758  1.7249  2.4201 -0.1363
  347MOL    H4949181   5.594   4.871   6.704 -1.1869  1.7240  2.7692
  347MOL    H5049182   5.583   4.700   6.715 -0.2273 -0.0620 -0.4531
  347MOL    C5149183   5.585   4.671   6.352 -0.4658  0.2629 -0.3354
  347MOL    C5249184   5.660   4.780   6.268  0.1822 -0.1005  0.0355
  347MOL    O5349185   5.654   4.552   6.336 -0.0687  0.0458  0.3006
  347MOL    H5449186   5.478   4.665   6.330 -0.4684  1.6429 -0.7361
  347MOL    H5549187   5.756   4.794   6.317  0.1557 -1.5418  0.5374
  347MOL    H5649188   5.606   4.874   6.263  2.2899  1.1620  0.4523
  347MOL    H5749189   5.682   4.743   6.168 -2.9873  1.6771 -1.4016
  347MOL    C5849190   5.595   4.443   6.399 -0.0571  0.6899  0.3622
  347MOL    C5949191   5.543   4.340   6.295  0.3165 -0.3834  0.3403
  347MOL    O6049192   5.688   4.375   6.475  0.2013 -0.2377  0.1212
  347MOL    H6149193   5.506   4.463   6.458  1.0388 -0.3062  2.3830
  347MOL    H6249194   5.618   4.282   6.241 -0.9387 -2.9405  1.2286
  347MOL    H6349195   5.467   4.384   6.230 -1.0426 -0.9095  1.5502
  347MOL    H6449196   5.491   4.266   6.356 -0.7805 -0.0733 -0.2048
  347MOL    C6549197   5.708   4.434   6.598 -0.4023 -0.1114 -0.2943
  347MOL    C6649198   5.636   4.338   6.703  0.3492  0.1099 -0.2096
  347MOL    O6749199   5.844   4.435   6.623 -0.1467  0.0421 -0.2330
  347MOL    H6849200   5.660   4.531   6.605  1.5777  0.9968 -1.8269
  347MOL    H6949201   5.682   4.240   6.689  1.7200  0.7488 -0.2334
  347MOL    H7049202   5.529   4.326   6.687  0.5703 -0.7757 -1.0451
  347MOL    H7149203   5.648   4.381   6.802  0.2027 -1.1079  0.3473
  347MOL    C7249204   5.920   4.534   6.557 -0.3783  1.0757  0.6785
  347MOL    C7349205   5.977   4.634   6.666 -0.5757  0.5373 -0.5455
  347MOL    O7449206   6.030   4.479   6.487  0.0649  0.3922  0.9335
  347MOL    H7549207   5.856   4.592   6.490  0.4732 -0.5325 -1.5867
  347MOL    H7649208   6.026   4.717   6.614 -0.8641  0.5114 -0.8632
  347MOL    H7749209   6.051   4.594   6.736 -0.7193  1.5183  0.1738
  347MOL    H7849210   5.895   4.678   6.723  0.2545  2.1811 -0.5870
  347MOL    C7949211   5.998   4.407   6.373  0.2525 -0.4074 -1.0423
  347MOL    C8049212   6.040   4.486   6.246  0.2504 -0.4025 -0.4042
  347MOL    O8149213   6.070   4.288   6.369  0.2270  0.2309 -0.6243
  347MOL    H8249214   5.892   4.383   6.363 -0.1322  1.3486 -1.3740
  347MOL    H8349215   5.979   4.575   6.230  0.3524 -0.2913 -0.1597
  347MOL    H8449216   6.018   4.421   6.161  1.8085 -0.8616 -0.4764
  347MOL    H8549217   6.146   4.513   6.243  0.8525 -2.4305  1.4886
  347MOL    C8649218   6.018   4.195   6.457 -0.0550 -0.0546 -0.1789
  347MOL    C8749219   5.946   4.083   6.379  0.1497 -0.1713  0.2283
  347MOL    O8849220   6.117   4.132   6.538 -0.3266  0.2313  0.5606
  347MOL    H8949221   5.942   4.244   6.518  1.6321  1.6654  0.6109
  347MOL    H9049222   6.023   4.022   6.331  1.6836  0.3040  2.0169
  347MOL    H9149223   5.884   4.129   6.303  1.3754 -0.6651 -1.0956
  347MOL    H9249224   5.890   4.029   6.455  0.9972  1.2977  1.9212
  347MOL    C9349225   6.151   4.204   6.655  0.0040  0.3070  0.6081
  347MOL    C9449226   6.099   4.134   6.786  0.1669 -0.1005  0.0287
  347MOL    O9549227   6.290   4.214   6.670 -0.2726  0.0340  0.5646
  347MOL    H9649228   6.110   4.305   6.657  0.2277  0.3884  1.3781
  347MOL    H9749229   6.158   4.047   6.811 -0.6985 -1.1920 -1.6184
  347MOL    H9849230   5.999   4.109   6.751  1.3509  0.1743 -3.7908
  347MOL    H9949231   6.089   4.201   6.871 -0.3042 -2.2568  1.6992
  347MOL   C10049232   6.356   4.292   6.569 -0.4340  0.0758  0.5866
  347MOL   C10149233   6.402   4.419   6.630 -0.0216 -0.1322 -0.5916
  347MOL   O10249234   6.469   4.225   6.526 -0.1032  0.3384  0.3643
  347MOL   H10349235   6.283   4.308   6.491 -0.4493  1.0141  0.7905
  347MOL   H10449236   6.461   4.473   6.556  1.4359  1.0236  1.3565
  347MOL   H10549237   6.463   4.399   6.718  0.3831 -0.3051 -0.9116
  347MOL   H10649238   6.316   4.468   6.675  0.5442  0.7078 -0.4064
  347MOL   C10749239   6.442   4.122   6.427 -0.3645  0.4204 -0.4409
  347MOL   C10849240   6.479   4.171   6.290 -0.1154 -0.5444  0.5114
  347MOL   O10949241   6.514   4.006   6.452 -0.1010  0.2469  0.1116
  347MOL   H11049242   6.338   4.088   6.420 -0.3475  0.4079 -0.6414
  347MOL   H11149243   6.390   4.231   6.270 -1.3236 -1.7364  2.1928
  347MOL   H11249244   6.514   4.090   6.225  2.8023 -1.3747  3.0116
  347MOL   H11349245   6.570   4.227   6.309  0.7373 -1.3801 -0.9686
  347MOL   C11449246   6.480   3.931   6.561 -0.6103  0.1366  0.2321
  347MOL   C11549247   6.424   3.801   6.500  0.0389 -0.0715 -0.3233
  347MOL   O11649248   6.585   3.890   6.639  0.1542 -0.3244 -0.1976
  347MOL   H11749249   6.407   3.990   6.617 -1.2236  1.6103 -2.0497
  347MOL   H11849250   6.348   3.821   6.425  0.3335  1.0359 -0.3326
  347MOL   H11949251   6.381   3.737   6.578  1.3115  0.2748  0.6739
  347MOL   H12049252   6.501   3.740   6.452 -1.3618  0.0875 -2.8456
  347MOL   C12149253   6.648   3.989   6.715  0.9480  0.3521  0.0761
  347MOL   C12249254   6.612   3.957   6.865 -0.2368 -0.5715 -1.0009
  347MOL   O12349255   6.785   3.987   6.704  0.1160  0.0176  0.1561
  347MOL   H12449256   6.605   4.086   6.687  0.3921  0.0919  0.0192
  347MOL   H12549257   6.657   4.028   6.934 -2.8274  0.1827 -0.0531
  347MOL   H12649258   6.658   3.863   6.893 -0.6108 -1.0298 -1.9114
  347MOL   H12749259   6.503   3.966   6.867 -0.2239 -0.6899  0.1571
  347MOL   C12849260   6.839   4.043   6.586 -0.0929  0.0035  0.2311
  347MOL   C12949261   6.906   4.181   6.617 -0.4171  0.7681 -0.2126
  347MOL   O13049262   6.926   3.958   6.523  1.1007 -0.4346  0.1935
  347MOL   H13149263   6.755   4.072   6.522 -0.2124  0.8505  0.7533
  347MOL   H13249264   6.986   4.154   6.686 -0.1608 -0.4591 -0.9802
  347MOL   H13349265   6.848   4.252   6.677 -1.2998  0.8077 -1.0965
  347MOL   H13449266   6.947   4.228   6.528  1.9138  0.3440  0.6161
  347MOL   C13549267   6.859   3.837   6.475 -0.2397 -0.6920  0.1217
  347MOL   C13649268   6.828   3.871   6.330  0.3487  0.8844  0.9836
  347MOL   O13749269   6.951   3.725   6.479 -0.0508  0.2205 -0.5240
  347MOL   H13849270   6.778   3.809   6.542 -0.2012  0.0048  0.4697
  347MOL   H13949271   6.763   3.958   6.318  0.2398  0.7025  0.1804
  347MOL   H14049272   6.775   3.785   6.288  0.6013  1.3121 -0.2337
  347MOL   H14149273   6.924   3.873   6.278  0.4295  1.0328  1.1414
  347MOL   H14249274   6.969   3.698   6.568  2.3110  0.5488 -0.8782
  348MOL     C149275   2.881   2.597   7.898 -0.1846  0.3381  0.6376
  348MOL     C249276   2.796   2.704   7.850 -0.0117 -0.5483 -0.4348
  348MOL     O349277   3.003   2.660   7.897  0.4464 -0.5060  0.6107
  348MOL     H449278   2.890   2.513   7.829 -1.5971 -1.0091  2.0401
  348MOL     H549279   2.825   2.734   7.749 -0.3970  4.2516  0.7345
  348MOL     H649280   2.808   2.796   7.907  2.1771 -1.3107  0.3991
  348MOL     H749281   2.691   2.675   7.848  0.1773 -1.1950 -2.0020
  348MOL     H849282   2.852   2.566   0.085  0.4793 -1.7743  0.2078
  348MOL     C949283   3.113   2.588   0.035  0.1753 -0.1761  0.0481
  348MOL    C1049284   3.192   2.552   7.830  0.2364  0.3920  0.3830
  348MOL    O1149285   3.191   2.678   0.105 -0.3419  0.5939 -0.0051
  348MOL    H1249286   3.088   2.506   0.103 -1.3155 -0.9911 -1.4525
  348MOL    H1349287   3.278   2.489   7.853 -0.3745  0.2741  2.4581
  348MOL    H1449288   3.225   2.645   7.783  2.6039 -0.9269 -0.6505
  348MOL    H1549289   3.134   2.506   7.751  0.2253  0.4394  0.3634
  348MOL    C1649290   3.139   2.723   0.222  0.6279  0.4279 -0.4167
  348MOL    C1749291   3.209   2.655   0.335  1.0401 -0.2213  0.3989
  348MOL    O1849292   3.145   2.857   0.242 -0.0718  0.0091 -0.1353
  348MOL    H1949293   3.032   2.700   0.231  0.2068  2.6232  0.4748
  348MOL    H2049294   3.195   2.714   0.426  0.5682  2.3515 -1.2922
  348MOL    H2149295   3.317   2.655   0.316  0.5775 -0.8271 -2.3425
  348MOL    H2249296   3.172   2.553   0.343 -0.9006  0.3536 -0.9931
  348MOL    C2349297   3.092   2.931   0.134  0.1244 -0.0440  0.1600
  348MOL    C2449298   2.963   3.004   0.176  0.1527 -0.2437 -0.3033
  348MOL    O2549299   3.186   3.036   0.109  0.6185 -0.3938  0.3555
  348MOL    H2649300   3.076   2.874   0.042 -0.4059 -0.4179  0.4872
  348MOL    H2749301   2.921   3.062   0.094 -0.7266  1.3435  1.2237
  348MOL    H2849302   2.988   3.082   0.248  1.0598  0.4117 -1.3138
  348MOL    H2949303   2.904   2.922   0.217 -0.0237 -0.1349 -0.3374
  348MOL    C3049304   3.300   2.998   0.038 -0.2422  0.3804  0.3299
  348MOL    C3149305   3.282   3.047   7.808  0.2380  0.0595 -0.7252
  348MOL    O3249306   3.410   3.063   0.091 -0.4434 -0.2895 -0.0820
  348MOL    H3349307   3.323   2.891   0.044  0.0676  0.5196  1.8737
  348MOL    H3449308   3.184   3.011   7.777 -0.3480  0.6468  0.3828
  348MOL    H3549309   3.355   3.013   7.735  1.5294 -1.8377  1.3555
  348MOL    H3649310   3.286   3.156   7.806  2.9355  0.0124  0.1384
  348MOL    C3749311   3.450   3.012   0.213 -0.2079  0.6618  0.0456
  348MOL    C3849312   3.587   2.942   0.192  0.0028 -0.1486  0.5766
  348MOL    O3949313   3.466   3.117   0.309  0.2662 -0.1883 -0.3477
  348MOL    H4049314   3.379   2.935   0.246  1.5510 -0.0837  2.2324
  348MOL    H4149315   3.629   2.906   0.285  2.0578 -0.1089 -0.3150
  348MOL    H4249316   3.666   3.010   0.158  1.3271 -1.1332  1.6447
  348MOL    H4349317   3.585   2.864   0.116 -3.4797 -0.5866  1.0489
  348MOL    C4449318   3.350   3.163   0.362 -0.5484 -0.3658  0.1896
  348MOL    C4549319   3.347   3.117   0.507 -0.3718  0.3878  0.0888
  348MOL    O4649320   3.346   3.298   0.364  0.5753  0.4291  0.2802
  348MOL    H4749321   3.267   3.115   0.310  1.4834 -0.2920 -3.2447
  348MOL    H4849322   3.253   3.145   0.555 -0.7100 -0.8644  0.1661
  348MOL    H4949323   3.419   3.176   0.564 -0.3829 -1.8023  2.4461
  348MOL    H5049324   3.374   3.012   0.517  0.4064  0.5011 -0.7083
  348MOL    C5149325   3.307   3.354   0.239  0.0824  0.4448  0.4409
  348MOL    C5249326   3.168   3.408   0.250  0.1709 -0.3869 -0.0274
  348MOL    O5349327   3.386   3.457   0.213  0.2119  0.9122  0.5896
  348MOL    H5449328   3.303   3.276   0.163  4.9025  0.2787  0.1980
  348MOL    H5549329   3.136   3.475   0.171 -2.1017  0.7840  1.8235
  348MOL    H5649330   3.157   3.470   0.339  0.6897  0.4564 -0.5489
  348MOL    H5749331   3.087   3.336   0.241 -2.8463  2.6765  1.6324
  348MOL    C5849332   3.516   3.428   0.183 -0.0903  0.1993 -0.4429
  348MOL    C5949333   3.544   3.484   0.044 -0.3643 -0.1367 -0.6057
  348MOL    O6049334   3.604   3.504   0.264 -0.0036 -0.1933 -0.1523
  348MOL    H6149335   3.530   3.320   0.191 -0.3825  0.2347  0.6706
  348MOL    H6249336   3.506   3.586   0.050 -2.2455 -0.7893 -1.1042
  348MOL    H6349337   3.488   3.435   7.879  1.3352 -0.6236 -1.5425
  348MOL    H6449338   3.653   3.481   0.034 -0.4029  0.1466 -1.1014
  348MOL    C6549339   3.624   3.456   0.393  0.4131  0.1843 -0.4245
  348MOL    C6649340   3.772   3.416   0.417 -0.2707  0.2017  0.6519
  348MOL    O6749341   3.600   3.554   0.487  0.2146  0.4881 -0.6144
  348MOL    H6849342   3.557   3.371   0.407 -0.0776  0.5561 -0.4839
  348MOL    H6949343   3.787   3.339   0.342  0.1001  1.7971 -0.9386
  348MOL    H7049344   3.789   3.362   0.510  0.7665  0.3528  0.5646
  348MOL    H7149345   3.831   3.507   0.405 -1.9120  1.3630  1.2401
  348MOL    C7249346   3.472   3.608   0.481 -0.5226  0.2628 -0.1171
  348MOL    C7349347   3.396   3.538   0.595 -0.1603  0.1640 -0.7357
  348MOL    O7449348   3.488   3.743   0.510 -0.2187 -0.4408  0.2068
  348MOL    H7549349   3.431   3.596   0.381 -1.6239 -2.6416  0.6568
  348MOL    H7649350   3.401   3.430   0.600  3.1856  0.1629 -2.3387
  348MOL    H7749351   3.290   3.558   0.579  0.0746  2.3823  0.2835
  348MOL    H7849352   3.430   3.587   0.686  0.7252 -0.9977 -0.4329
  348MOL    C7949353   3.552   3.811   0.416  0.2442 -0.0078  0.2744
  348MOL    C8049354   3.450   3.896   0.344 -0.3034 -0.2648  0.3693
  348MOL    O8149355   3.643   3.897   0.472  0.0467 -0.1040  0.2512
  348MOL    H8249356   3.606   3.753   0.341  2.4695 -1.2358  2.7514
  348MOL    H8349357   3.428   3.986   0.402  2.1059  0.3243  0.4226
  348MOL    H8449358   3.352   3.851   0.329 -0.2113 -0.5930  0.7409
  348MOL    H8549359   3.491   3.927   0.248 -0.4329  0.2494  0.4792
  348MOL    C8649360   3.757   3.833   0.519 -0.3104 -0.6237  0.0043
  348MOL    C8749361   3.874   3.892   0.452  0.1446 -0.1439  0.7092
  348MOL    O8849362   3.772   3.860   0.654 -0.3025 -0.5023  0.0211
  348MOL    H8949363   3.761   3.726   0.496 -0.2465 -0.6663  0.2126
  348MOL    H9049364   3.897   3.991   0.491 -1.9974  1.1293 -1.1458
  348MOL    H9149365   3.857   3.883   0.344 -1.6983  0.7954  0.8963
  348MOL    H9249366   3.956   3.829   0.486  0.2269  1.2036  3.1327
  348MOL    C9349367   3.701   3.766   0.728 -0.3891  0.6850 -0.7905
  348MOL    C9449368   3.783   3.634   0.761  0.1166  0.0560 -0.3735
  348MOL    O9549369   3.678   3.832   0.844  0.1419 -0.1137  0.5471
  348MOL    H9649370   3.606   3.728   0.691 -0.1325 -0.7456 -0.0110
  348MOL    H9749371   3.819   3.593   0.667  1.6640  0.2546  0.1111
  348MOL    H9849372   3.713   3.570   0.816 -0.4690  0.7180 -0.3434
  348MOL    H9949373   3.873   3.659   0.817  0.0675  1.4124 -0.8811
  348MOL   C10049374   3.565   3.918   0.840  0.1760 -0.3208 -0.6847
  348MOL   C10149375   3.450   3.859   0.922  0.3195  0.6267  0.4711
  348MOL   O10249376   3.591   4.043   0.891  0.2919 -0.3688  0.0050
  348MOL   H10349377   3.519   3.926   0.742  0.4513 -1.2516 -0.8969
  348MOL   H10449378   3.363   3.921   0.904  0.8310  1.8410  2.1666
  348MOL   H10549379   3.473   3.867   1.028  0.8577 -0.3372  0.4354
  348MOL   H10649380   3.431   3.754   0.898  0.6910  0.8882 -1.0204
  348MOL   C10749381   3.668   4.125   0.805 -0.2358  0.6607  0.5358
  348MOL   C10849382   3.575   4.214   0.721  0.3545 -0.8523 -0.1520
  348MOL   O10949383   3.748   4.204   0.886  0.5421  0.2312  0.0418
  348MOL   H11049384   3.733   4.061   0.746 -0.4900  0.9850 -0.1042
  348MOL   H11149385   3.517   4.260   0.801  1.6805  0.9812 -0.2095
  348MOL   H11249386   3.516   4.151   0.655 -1.0201 -0.1499  0.3884
  348MOL   H11349387   3.641   4.268   0.654  0.7405 -1.5247 -0.3206
  348MOL   C11449388   3.862   4.133   0.946 -0.2012  0.5723  0.4172
  348MOL   C11549389   3.989   4.197   0.872  0.3617 -0.9725 -0.5647
  348MOL   O11649390   3.881   4.162   1.075 -0.0604  0.6426 -0.4346
  348MOL   H11749391   3.859   4.024   0.944 -0.4532  0.5975 -1.2984
  348MOL   H11849392   4.001   4.305   0.875  1.2173 -1.0373 -1.5406
  348MOL   H11949393   3.985   4.165   0.768 -2.7750 -1.7076 -0.2886
  348MOL   H12049394   4.079   4.156   0.918 -0.3467  0.8521  2.6283
  348MOL   C12149395   3.779   4.126   1.162  0.0744  0.0125 -0.3159
  348MOL   C12249396   3.842   4.034   1.267  0.2815 -0.2624  0.1103
  348MOL   O12349397   3.735   4.240   1.239 -0.2112 -0.0624 -0.2317
  348MOL   H12449398   3.688   4.078   1.127 -0.2168  0.9126 -0.8019
  348MOL   H12549399   3.875   3.937   1.230  0.8490  0.1897 -0.6011
  348MOL   H12649400   3.765   4.017   1.342  0.1491 -0.7799 -0.1481
  348MOL   H12749401   3.928   4.081   1.316  0.7912  0.4448 -1.4162
  348MOL   C12849402   3.626   4.301   1.170 -0.3439 -0.8425 -0.4776
  348MOL   C12949403   3.501   4.278   1.261  0.9086 -0.3383  0.1329
  348MOL   O13049404   3.644   4.435   1.172  0.4512  0.0565 -0.3293
  348MOL   H13149405   3.611   4.279   1.064  2.2404 -2.3594 -0.5633
  348MOL   H13249406   3.416   4.336   1.225 -0.6625 -2.6186  0.0899
  348MOL   H13349407   3.522   4.306   1.364 -0.2711  0.8112  0.0831
  348MOL   H13449408   3.475   4.172   1.256  1.2385 -0.3796 -0.7414
  348MOL   C13549409   3.749   4.478   1.082  0.3149  0.1699 -0.5352
  348MOL   C13649410   3.731   4.630   1.071 -0.0431 -0.1651 -0.5033
  348MOL   O13749411   3.875   4.451   1.138 -0.2208  0.0201  0.0484
  348MOL   H13849412   3.749   4.429   0.985  0.8988 -0.9978  0.0501
  348MOL   H13949413   3.625   4.655   1.074 -0.5556 -2.3002  0.1456
  348MOL   H14049414   3.775   4.677   0.983  0.0942  1.8557  0.5946
  348MOL   H14149415   3.775   4.674   1.161  0.3487  0.8119 -1.1601
  348MOL   H14249416   3.895   4.363   1.110 -1.5422 -0.1756 -0.3337
  349MOL     C149417   2.021   1.439   6.626  0.2272 -1.0267 -0.0343
  349MOL     C249418   1.897   1.370   6.578  0.5923  0.1454  0.5719
  349MOL     O349419   2.136   1.354   6.648 -0.7429 -0.4315 -0.2087
  349MOL     H449420   1.996   1.487   6.720  1.7362 -0.9412  0.3466
  349MOL     H549421   1.925   1.295   6.503 -1.2682  0.1816 -0.1711
  349MOL     H649422   1.839   1.449   6.532  0.3013  0.2163  1.0623
  349MOL     H749423   1.847   1.311   6.655  1.0432  1.6213  2.0078
  349MOL     H849424   2.055   1.519   6.560 -1.3548 -0.5919 -0.3341
  349MOL     C949425   2.119   1.257   6.743  0.0046  0.2637  0.7586
  349MOL    C1049426   2.100   1.128   6.670  0.0333 -0.7144  0.0947
  349MOL    O1149427   2.239   1.246   6.819  0.0152 -0.1976  0.1201
  349MOL    H1249428   2.033   1.278   6.807 -0.4031  0.1583  0.2467
  349MOL    H1349429   2.124   1.043   6.735  0.9194 -0.4147  0.1684
  349MOL    H1449430   2.163   1.113   6.582  0.9943  0.7954  0.5023
  349MOL    H1549431   1.996   1.110   6.642  0.0115  0.0720 -0.3156
  349MOL    C1649432   2.275   1.364   6.887  0.0470  1.0056 -0.1807
  349MOL    C1749433   2.230   1.353   7.031  0.2810 -0.3111 -0.2764
  349MOL    O1849434   2.409   1.377   6.887 -0.1491  0.5541  0.7416
  349MOL    H1949435   2.232   1.459   6.855 -0.8249  0.0389 -1.9980
  349MOL    H2049436   2.264   1.266   7.087 -0.4437 -0.3287  0.1373
  349MOL    H2149437   2.121   1.356   7.037  0.3187  0.6274 -0.0018
  349MOL    H2249438   2.263   1.441   7.086  0.4853 -0.2954 -0.4243
  349MOL    C2349439   2.462   1.392   6.755  0.8318 -0.5921 -0.1086
  349MOL    C2449440   2.567   1.508   6.768  0.4492  0.0665  0.6041
  349MOL    O2549441   2.531   1.282   6.724 -0.2623 -0.1462  0.5504
  349MOL    H2649442   2.380   1.413   6.687  1.5473 -0.2420 -0.8538
  349MOL    H2749443   2.650   1.488   6.835  1.1165  0.8687  0.0230
  349MOL    H2849444   2.514   1.599   6.796  1.1384  0.6913 -0.1267
  349MOL    H2949445   2.619   1.521   6.673  0.1236  1.9370  0.6631
  349MOL    C3049446   2.483   1.211   6.612 -0.1679 -0.0828  0.6284
  349MOL    C3149447   2.560   1.267   6.489  0.0352  0.3329 -0.1370
  349MOL    O3249448   2.525   1.075   6.620  0.0828 -0.7222  0.0384
  349MOL    H3349449   2.376   1.219   6.598  0.1296  1.5267 -1.0657
  349MOL    H3449450   2.542   1.374   6.476  1.6454  0.6125 -0.2214
  349MOL    H3549451   2.542   1.205   6.402  0.4139  3.1273 -2.2822
  349MOL    H3649452   2.664   1.251   6.517 -0.5030 -3.4173 -0.1222
  349MOL    C3749453   2.433   0.997   6.691 -0.0895  0.4464  0.1255
  349MOL    C3849454   2.367   0.893   6.597  0.4188 -0.5528  0.4376
  349MOL    O3949455   2.484   0.931   6.803 -0.1828 -0.4877 -1.0415
  349MOL    H4049456   2.352   1.058   6.732 -2.2451 -1.6545 -0.9331
  349MOL    H4149457   2.290   0.843   6.655 -0.5485  0.7971  0.3509
  349MOL    H4249458   2.435   0.820   6.553  2.1081  1.7199 -0.8565
  349MOL    H4349459   2.321   0.953   6.519  0.8554  0.4871  0.9638
  349MOL    C4449460   2.503   1.009   6.918 -0.4760  0.4510  0.5301
  349MOL    C4549461   2.411   0.949   7.026 -0.0734  0.2970  0.6433
  349MOL    O4649462   2.636   1.001   6.971 -0.1305  0.8184  0.5560
  349MOL    H4749463   2.473   1.113   6.902 -0.3059  0.1100 -2.2796
  349MOL    H4849464   2.412   1.013   7.114  1.7542 -0.6737  1.3594
  349MOL    H4949465   2.447   0.852   7.062 -0.9584 -0.6000 -0.8616
  349MOL    H5049466   2.310   0.952   6.986  0.6987  2.4915 -1.2831
  349MOL    C5149467   2.721   1.089   6.903 -0.1712  0.6009  0.1113
  349MOL    C5249468   2.738   1.206   7.000  0.1729  0.2355  0.1397
  349MOL    O5349469   2.853   1.035   6.879  0.4535 -0.2271 -0.6994
  349MOL    H5449470   2.687   1.120   6.805  2.4092  0.8230 -0.7266
  349MOL    H5549471   2.811   1.269   6.949  0.1862 -0.1525 -0.3288
  349MOL    H5649472   2.788   1.186   7.095  1.8553  1.2318 -0.5090
  349MOL    H5749473   2.643   1.259   7.005 -0.8204 -1.4813  0.1726
  349MOL    C5849474   2.849   0.927   6.790  0.4489  0.1615  0.1883
  349MOL    C5949475   2.908   0.971   6.659 -0.1709  0.0327  0.5713
  349MOL    O6049476   2.937   0.830   6.829 -0.5653 -0.2155  0.0997
  349MOL    H6149477   2.752   0.878   6.784  0.5182  0.1431 -0.8790
  349MOL    H6249478   3.012   1.006   6.658  0.4891 -1.8255  2.1785
  349MOL    H6349479   2.867   1.064   6.619  1.9780  0.5249 -0.5813
  349MOL    H6449480   2.903   0.894   6.582  2.0303 -0.9631  1.4002
  349MOL    C6549481   2.906   0.752   6.936  0.0069  0.2025 -0.0446
  349MOL    C6649482   2.906   0.610   6.881  0.4376  0.1616 -0.6106
  349MOL    O6749483   3.004   0.750   7.040  0.0789  0.0219  0.2183
  349MOL    H6849484   2.808   0.778   6.975  0.1354  3.2976 -1.6479
  349MOL    H6949485   2.876   0.540   6.959  0.0733 -0.0567 -0.9495
  349MOL    H7049486   3.005   0.579   6.847 -0.1623 -0.6107 -1.6555
  349MOL    H7149487   2.839   0.605   6.796  2.8514  0.8396 -2.6105
  349MOL    C7249488   3.009   0.868   7.108  0.3054  0.0180  0.2471
  349MOL    C7349489   2.954   0.842   7.253  0.7285 -0.2054  0.6068
  349MOL    O7449490   3.142   0.913   7.113 -0.2301 -0.1054  0.6896
  349MOL    H7549491   2.942   0.942   7.064 -1.5491 -1.4579  0.5627
  349MOL    H7649492   2.946   0.938   7.305 -2.5619 -0.9033  1.4988
  349MOL    H7749493   3.008   0.773   7.318 -0.1136 -0.4292  1.0715
  349MOL    H7849494   2.853   0.804   7.241 -0.2897  2.0446  1.7301
  349MOL    C7949495   3.190   0.971   6.997  0.6131 -0.8303 -0.1913
  349MOL    C8049496   3.185   1.124   7.009 -0.5737  0.7863  0.1234
  349MOL    O8149497   3.324   0.935   6.984  0.4975  0.7588  0.0812
  349MOL    H8249498   3.138   0.941   6.907 -1.9350 -0.5615  1.1618
  349MOL    H8349499   3.080   1.151   7.018 -0.9349  0.0151 -1.6661
  349MOL    H8449500   3.226   1.172   6.920 -1.8257  1.1989 -0.2353
  349MOL    H8549501   3.228   1.161   7.102  2.5707 -2.6889  0.1763
  349MOL    C8649502   3.334   0.797   6.946  0.2370 -0.5407  0.7057
  349MOL    C8749503   3.380   0.790   6.799 -0.3916  0.1614  0.0934
  349MOL    O8849504   3.432   0.717   7.018 -0.2607  0.6088  0.0172
  349MOL    H8949505   3.237   0.747   6.948 -1.1874  1.8618 -2.6437
  349MOL    H9049506   3.461   0.861   6.779  0.1813 -0.2833  0.7962
  349MOL    H9149507   3.295   0.824   6.741  1.6914  2.5076 -1.6597
  349MOL    H9249508   3.397   0.686   6.770  1.4869  0.8556 -1.3977
  349MOL    C9349509   3.401   0.700   7.153  0.2858  0.7176  0.3897
  349MOL    C9449510   3.355   0.557   7.163  0.2569 -0.0662 -0.1079
  349MOL    O9549511   3.515   0.715   7.229  0.1146 -0.4875 -0.0385
  349MOL    H9649512   3.324   0.769   7.186 -1.4839 -0.3830 -1.3108
  349MOL    H9749513   3.351   0.527   7.268 -2.2995 -1.3640 -0.5378
  349MOL    H9849514   3.419   0.490   7.106 -0.4454 -0.5610 -0.3223
  349MOL    H9949515   3.255   0.549   7.120  0.6467  0.3364 -1.1191
  349MOL   C10049516   3.532   0.848   7.279  0.2286 -0.6180  0.0903
  349MOL   C10149517   3.535   0.847   7.427  0.0022 -0.6749  0.1448
  349MOL   O10249518   3.651   0.905   7.235 -0.0989 -0.9832  0.1928
  349MOL   H10349519   3.447   0.914   7.257 -0.4919 -1.6689 -0.3199
  349MOL   H10449520   3.532   0.952   7.456 -0.3254 -0.2914 -1.2360
  349MOL   H10549521   3.619   0.795   7.472 -0.0440 -0.4936  0.4408
  349MOL   H10649522   3.442   0.794   7.449 -0.6880  0.5543  0.2699
  349MOL   C10749523   3.648   0.956   7.106 -0.2628  0.2534 -0.2980
  349MOL   C10849524   3.588   1.095   7.118 -0.0769 -0.2360  0.2594
  349MOL   O10949525   3.771   0.968   7.045  0.6264 -0.4019 -0.1146
  349MOL   H11049526   3.582   0.897   7.042 -0.3263  1.1209 -1.0364
  349MOL   H11149527   3.612   1.145   7.211 -1.1058 -2.3980  1.7321
  349MOL   H11249528   3.482   1.074   7.135 -0.4246  2.4120  1.5681
  349MOL   H11349529   3.602   1.159   7.030  0.6012 -0.9263 -0.1398
  349MOL   C11449530   3.825   0.836   7.014  0.6808 -0.2875 -0.0674
  349MOL   C11549531   3.848   0.837   6.860  0.2216  0.1337 -0.7005
  349MOL   O11649532   3.952   0.813   7.071  0.2383 -0.1734  0.2835
  349MOL   H11749533   3.759   0.753   7.038 -0.4792  0.7650  0.4358
  349MOL   H11849534   3.752   0.862   6.813 -0.6854 -0.7175  0.6655
  349MOL   H11949535   3.873   0.738   6.823 -2.2302 -0.8851  0.2491
  349MOL   H12049536   3.932   0.904   6.842 -0.0664  0.9564  0.8876
  349MOL   C12149537   3.948   0.764   7.205 -0.2155  0.2506  0.1768
  349MOL   C12249538   4.022   0.630   7.193  0.5140  0.0815  0.0049
  349MOL   O12349539   4.023   0.834   7.299 -0.0558 -0.3174  0.2885
  349MOL   H12449540   3.846   0.748   7.240 -2.0014  2.5249 -3.8067
  349MOL   H12549541   3.963   0.560   7.135 -0.7400 -0.0596  1.4224
  349MOL   H12649542   4.016   0.584   7.292 -1.7934  0.0116 -0.1462
  349MOL   H12749543   4.120   0.638   7.146  0.2113 -2.5483 -1.1956
  349MOL   C12849544   3.968   0.961   7.325  0.5013 -0.3799 -0.3766
  349MOL   C12949545   3.914   0.959   7.465 -0.1331  0.4097 -0.7199
  349MOL   O13049546   4.060   1.057   7.314  0.0297 -0.1245 -0.2600
  349MOL   H13149547   3.881   0.992   7.267 -0.2384  1.6563  1.7534
  349MOL   H13249548   3.844   0.878   7.484 -1.0190  1.1145 -0.9427
  349MOL   H13349549   3.853   1.047   7.484  0.2026  0.5929 -0.4830
  349MOL   H13449550   4.005   0.959   7.525 -0.3668  0.4188 -0.3672
  349MOL   C13549551   4.072   1.115   7.187 -0.1433  0.6193  0.2989
  349MOL   C13649552   3.971   1.233   7.177 -0.3260  0.6283  0.3249
  349MOL   O13749553   4.202   1.163   7.167 -0.4013  0.1570  0.3499
  349MOL   H13849554   4.048   1.045   7.107  1.6930  0.1693  0.1117
  349MOL   H13949555   3.988   1.314   7.248 -0.7255 -0.4733  1.6966
  349MOL   H14049556   3.878   1.184   7.204 -0.3500  0.6549  0.2900
  349MOL   H14149557   3.974   1.277   7.077  0.8357  1.6765  0.8028
  349MOL   H14249558   4.254   1.090   7.136  1.2960  0.5320  2.2613
  350MOL     C149559   4.000   7.728   2.746  0.4209 -0.3800  0.5936
  350MOL     C249560   4.039   7.616   2.644  0.1434  0.0666  0.7242
  350MOL     O349561   3.969   7.664   2.872  0.5369  0.5469 -0.8607
  350MOL     H449562   3.911   7.777   2.708 -0.1165 -1.5259  0.3575
  350MOL     H549563   4.037   7.653   2.542  0.0441  0.4170  0.8521
  350MOL     H649564   3.964   7.537   2.647 -1.7939  1.8609  0.5368
  350MOL     H749565   4.137   7.578   2.674 -0.1110 -0.7366  0.5714
  350MOL     H849566   4.079   7.803   2.743  0.0992 -0.1394 -3.1424
  350MOL     C949567   3.865   7.727   2.942 -0.0945 -0.0616 -0.0629
  350MOL    C1049568   3.915   7.870   2.960 -0.1925  0.3354 -0.5327
  350MOL    O1149569   3.740   7.722   2.884  0.1362  0.0002  0.1369
  350MOL    H1249570   3.857   7.669   3.034  0.2875  0.6555  0.4181
  350MOL    H1349571   3.914   0.023   2.873 -1.4153  0.2936 -0.5577
  350MOL    H1449572   4.019   7.879   2.991 -0.0028  1.6709 -1.4953
  350MOL    H1549573   3.861   7.909   3.046  0.7563 -1.8891  1.1005
  350MOL    C1649574   3.682   7.604   2.844 -0.0893 -0.0538  0.0508
  350MOL    C1749575   3.613   7.543   2.970 -0.7960 -0.4163 -0.4838
  350MOL    O1849576   3.579   7.624   2.750 -0.1627  0.2513 -0.2759
  350MOL    H1949577   3.762   7.545   2.800 -0.5562  0.5057 -1.6076
  350MOL    H2049578   3.689   7.515   3.044  0.5010  3.1111 -0.3653
  350MOL    H2149579   3.553   7.456   2.946 -0.2952 -1.1295  0.8157
  350MOL    H2249580   3.535   7.609   3.008  0.5627  1.2838 -0.5854
  350MOL    C2349581   3.612   7.684   2.631  0.2321 -0.2669 -0.0650
  350MOL    C2449582   3.661   7.575   2.534  0.2656  0.1341  0.5798
  350MOL    O2549583   3.500   7.741   2.574  0.1276 -0.4099  0.4286
  350MOL    H2649584   3.697   7.751   2.646  1.4795 -1.6850 -0.6536
  350MOL    H2749585   3.757   7.543   2.577 -0.1315 -2.6615 -0.5079
  350MOL    H2849586   3.693   7.607   2.435  0.1937  0.4329  0.6531
  350MOL    H2949587   3.584   7.498   2.526 -1.0519  1.5540 -0.6417
  350MOL    C3049588   3.453   7.843   2.658 -0.5411  0.2727 -0.1330
  350MOL    C3149589   3.521   0.061   2.615 -0.8718 -0.7384 -0.3183
  350MOL    O3249590   3.313   7.852   2.655  0.3084 -0.2277  0.3140
  350MOL    H3349591   3.476   7.827   2.763 -1.4129  0.5917  0.1100
  350MOL    H3449592   3.630   0.058   2.627 -0.6882  1.8592 -1.1092
  350MOL    H3549593   3.498   0.138   2.688  3.1285  0.8202 -0.5440
  350MOL    H3649594   3.495   0.090   2.513 -0.0472 -1.6432 -0.7952
  350MOL    C3749595   3.252   7.745   2.726  0.4829  0.5596 -0.0791
  350MOL    C3849596   3.205   7.808   2.857 -0.6511 -0.3888  0.3656
  350MOL    O3949597   3.140   7.695   2.657  0.0050  0.0424 -0.2174
  350MOL    H4049598   3.317   7.660   2.745  0.0078 -0.1174 -1.4167
  350MOL    H4149599   3.140   7.750   2.923 -0.3589 -0.3608  0.6805
  350MOL    H4249600   3.144   7.894   2.832  0.4447  0.6836  1.2954
  350MOL    H4349601   3.289   7.843   2.917  0.1278  0.3124 -1.1122
  350MOL    C4449602   3.167   7.619   2.551 -0.6414 -0.6822  0.2320
  350MOL    C4549603   3.118   7.480   2.603 -0.1701 -0.2905 -0.1415
  350MOL    O4649604   3.094   7.653   2.436  0.2639 -0.5446  0.3331
  350MOL    H4749605   3.273   7.599   2.537  0.0294  3.0108 -0.5552
  350MOL    H4849606   3.176   7.445   2.688 -1.3262 -0.3319  0.6341
  350MOL    H4949607   3.128   7.408   2.521 -0.3121 -1.4230  0.8255
  350MOL    H5049608   3.014   7.487   2.634 -0.7789 -2.6231 -1.5580
  350MOL    C5149609   3.139   7.776   2.383 -0.3910  0.0138  0.2114
  350MOL    C5249610   3.171   7.739   2.235  0.4514  0.1164 -0.0896
  350MOL    O5349611   3.028   7.865   2.373 -0.3737  0.0831 -0.0685
  350MOL    H5449612   3.211   7.836   2.438 -0.7208 -0.2286  0.9077
  350MOL    H5549613   3.097   7.675   2.187  0.2004  1.4974 -1.5839
  350MOL    H5649614   3.251   7.665   2.234 -2.3583 -3.0311  0.5995
  350MOL    H5749615   3.193   7.832   2.182  1.9415 -0.6736 -0.8725
  350MOL    C5849616   2.967   7.908   2.491 -0.1972 -0.5809  0.4831
  350MOL    C5949617   2.992   0.146   2.499  0.1566  0.3033 -0.4874
  350MOL    O6049618   2.830   7.882   2.474 -0.4581 -0.5890 -0.0069
  350MOL    H6149619   2.996   7.863   2.585 -0.6885 -1.2354  0.3237
  350MOL    H6249620   2.958   0.191   2.406 -0.0932  1.7712  0.3054
  350MOL    H6349621   3.100   0.146   2.513  0.0022 -0.3126  0.7577
  350MOL    H6449622   2.951   0.182   2.593  0.9046 -0.4654  0.1395
  350MOL    C6549623   2.790   7.759   2.524 -0.8066 -0.3419 -0.0667
  350MOL    C6649624   2.770   7.772   2.674  0.1093  0.2812  0.3577
  350MOL    O6749625   2.674   7.720   2.475 -0.1658  0.4814  0.8927
  350MOL    H6849626   2.869   7.688   2.499 -0.2456  0.1617  0.2877
  350MOL    H6949627   2.714   7.858   2.709  1.5007  1.5028 -0.3533
  350MOL    H7049628   2.861   7.759   2.732  1.2425 -0.2397 -1.4668
  350MOL    H7149629   2.698   7.699   2.712  0.8868 -0.6964  0.0032
  350MOL    C7249630   2.692   7.653   2.343 -0.4873  0.0304 -0.8122
  350MOL    C7349631   2.647   7.511   2.371  0.2608 -0.8438  0.4206
  350MOL    O7449632   2.601   7.714   2.249  0.5077  0.2575  0.9285
  350MOL    H7549633   2.792   7.660   2.300 -0.4663  0.7849 -0.6602
  350MOL    H7649634   2.716   7.462   2.440 -0.0700 -1.5456  0.2598
  350MOL    H7749635   2.665   7.458   2.277 -2.5249  2.0436 -1.8686
  350MOL    H7849636   2.546   7.504   2.411 -0.2115  0.7607 -0.4412
  350MOL    C7949637   2.639   7.841   2.216 -0.0151 -0.0479 -0.4010
  350MOL    C8049638   2.661   7.837   2.072 -0.1879 -0.1139 -0.6333
  350MOL    O8149639   2.530   0.020   2.222 -0.0755 -0.2231 -0.2037
  350MOL    H8249640   2.725   7.880   2.270  1.6926 -2.6105 -1.1677
  350MOL    H8349641   2.599   7.770   2.012  0.5711 -0.7334 -0.7344
  350MOL    H8449642   2.761   7.795   2.073  0.0913  0.5615  1.6699
  350MOL    H8549643   2.657   0.023   2.027  2.4464 -0.8599 -2.6497
  350MOL    C8649644   2.499   0.076   2.351  0.7001 -0.2363 -0.2595
  350MOL    C8749645   2.535   0.230   2.350 -0.0441 -0.1275 -0.2712
  350MOL    O8849646   2.362   0.068   2.369 -0.3381 -0.3149  0.3327
  350MOL    H8949647   2.547   0.025   2.435 -0.7773  1.3075  1.5770
  350MOL    H9049648   2.634   0.238   2.304  0.8115 -1.1054  1.3368
  350MOL    H9149649   2.533   0.273   2.450  0.9231  1.4652 -0.9144
  350MOL    H9249650   2.462   0.282   2.289 -0.4883 -1.3174 -0.7790
  350MOL    C9349651   2.316   7.860   2.421 -0.3620 -0.4418 -0.5922
  350MOL    C9449652   2.245   7.884   2.557 -0.1015  0.7630  0.5220
  350MOL    O9549653   2.218   7.797   2.339  0.5400  0.0798  0.0150
  350MOL    H9649654   2.399   7.790   2.428 -0.0677  0.0825  1.4754
  350MOL    H9749655   2.224   7.787   2.604 -1.8040  0.1780 -1.3852
  350MOL    H9849656   2.145   0.006   2.531 -0.8452 -1.0760  0.7445
  350MOL    H9949657   2.300   0.036   2.624 -0.8120  1.6044  0.2830
  350MOL   C10049658   2.267   7.757   2.209  0.1444 -0.4892 -0.2540
  350MOL   C10149659   2.273   7.607   2.207 -0.1388  0.1877  0.2863
  350MOL   O10249660   2.181   7.806   2.106  0.2173 -0.0511  0.0163
  350MOL   H10349661   2.370   7.786   2.191  0.7878 -2.5810 -0.0058
  350MOL   H10449662   2.181   7.572   2.255 -0.4445  1.7119  0.8464
  350MOL   H10549663   2.362   7.575   2.262  1.9688  4.0238 -0.7352
  350MOL   H10649664   2.267   7.578   2.102 -0.4861  1.0836  0.0564
  350MOL   C10749665   2.190   0.032   2.087 -0.2851 -0.3882 -0.1727
  350MOL   C10849666   2.268   0.062   1.955  0.6377  0.1675 -0.1018
  350MOL   O10949667   2.054   0.081   2.069  0.1733 -0.0877 -0.1876
  350MOL   H11049668   2.230   0.088   2.172 -1.2602 -0.1275  0.1223
  350MOL   H11149669   2.368   0.019   1.963  0.0130 -0.8696  2.8591
  350MOL   H11249670   2.291   0.168   1.943  1.5213 -0.3096 -2.8881
  350MOL   H11349671   2.206   0.018   1.878  0.5850  0.7692 -0.4102
  350MOL   C11449672   1.980   0.088   2.189 -0.5318 -0.1527 -0.2844
  350MOL   C11549673   1.981   0.232   2.231  0.3048 -0.1299  0.5648
  350MOL   O11649674   1.842   0.050   2.169 -0.3274 -0.2364 -0.2706
  350MOL   H11749675   2.028   0.028   2.267 -0.0425  0.6906  0.0756
  350MOL   H11849676   1.958   0.247   2.336  2.9128  0.1299  1.1133
  350MOL   H11949677   1.918   0.293   2.166  0.2455  0.1664  0.9005
  350MOL   H12049678   2.083   0.270   2.230  0.7921 -1.3955  1.5783
  350MOL   C12149679   1.836   7.827   2.161 -0.1772 -0.0493  0.2435
  350MOL   C12249680   1.774   7.779   2.296  0.5950 -0.2679  0.0233
  350MOL   O12349681   1.759   7.776   2.050 -0.4168  0.1006  0.7962
  350MOL   H12449682   1.932   7.777   2.149 -0.8167 -1.1228 -0.5801
  350MOL   H12549683   1.744   7.675   2.287 -0.3840  0.0558 -0.4422
  350MOL   H12649684   1.683   7.836   2.314 -0.3786 -1.3399 -1.4650
  350MOL   H12749685   1.833   7.799   2.386  1.0553 -1.7879  0.0780
  350MOL   C12849686   1.816   7.808   1.920 -0.0136 -0.4497  0.0593
  350MOL   C12949687   1.860   7.675   1.847 -0.5272 -0.5485 -0.0221
  350MOL   O13049688   1.719   7.886   1.849  0.1522  0.0666  0.1285
  350MOL   H13149689   1.908   7.866   1.928  0.3936 -1.0490 -0.2025
  350MOL   H13249690   1.929   7.699   1.766 -1.6832  0.6642 -0.6719
  350MOL   H13349691   1.774   7.625   1.804 -0.3319 -0.1898 -0.8389
  350MOL   H13449692   1.927   7.613   1.906 -0.3904  0.4095  0.8363
  350MOL   C13549693   1.713   0.106   1.882 -0.2695  0.4045 -0.8075
  350MOL   C13649694   1.649   0.177   1.765  0.1087  0.0826 -0.2893
  350MOL   O13749695   1.620   0.118   1.991  0.0513  0.2062 -0.0695
  350MOL   H13849696   1.809   0.148   1.909 -0.1249 -0.7027  0.4239
  350MOL   H13949697   1.620   0.280   1.785  0.0975 -0.1365  0.8172
  350MOL   H14049698   1.562   0.124   1.726  0.1476 -0.7773  0.7526
  350MOL   H14149699   1.720   0.189   1.683  0.8357  0.7571  0.4326
  350MOL   H14249700   1.663   0.070   2.061  1.1820 -4.4671 -3.7305
  351MOL     C149701   6.411   2.748   2.434  0.2835 -0.4392 -0.0446
  351MOL     C249702   6.294   2.840   2.444  0.9930 -0.3199 -0.4282
  351MOL     O349703   6.528   2.822   2.420  0.1154 -0.4931 -0.0708
  351MOL     H449704   6.403   2.692   2.341  0.5708  0.4495 -0.6112
  351MOL     H549705   6.198   2.789   2.450 -0.0439  1.5690 -0.3865
  351MOL     H649706   6.287   2.918   2.368 -1.2493 -1.4225 -1.4146
  351MOL     H749707   6.297   2.900   2.535  2.4545  0.1608 -0.7730
  351MOL     H849708   6.408   2.670   2.510  1.4086 -1.8650 -1.4256
  351MOL     C949709   6.646   2.753   2.400  0.6430 -0.2610  0.4285
  351MOL    C1049710   6.750   2.862   2.389  0.7565 -0.9317  0.0056
  351MOL    O1149711   6.672   2.660   2.509  0.0509  0.2237 -0.6149
  351MOL    H1249712   6.631   2.701   2.305  0.5713  0.4275  0.0616
  351MOL    H1349713   6.844   2.809   2.403  0.2962 -1.6547  0.3955
  351MOL    H1449714   6.745   2.933   2.472 -0.1599  0.8605 -1.5522
  351MOL    H1549715   6.727   2.916   2.298 -0.7329 -0.8049  0.4385
  351MOL    C1649716   6.774   2.565   2.489  0.5887 -0.2164  0.6015
  351MOL    C1749717   6.794   2.507   2.625 -0.3155  0.7190  0.2396
  351MOL    O1849718   6.727   2.468   2.399 -0.0332 -0.1973 -0.0482
  351MOL    H1949719   6.860   2.621   2.453 -0.6208  1.3387  0.0881
  351MOL    H2049720   6.850   2.413   2.616  0.1841  1.2480 -2.2798
  351MOL    H2149721   6.699   2.479   2.670 -0.2545 -0.1902 -0.1890
  351MOL    H2249722   6.841   2.573   2.698  2.1939 -0.4688 -0.2360
  351MOL    C2349723   6.827   2.431   2.310 -0.0508  0.6558  0.1964
  351MOL    C2449724   6.778   2.305   2.239 -0.1706 -0.7056  0.3504
  351MOL    O2549725   6.838   2.523   2.211  0.0224  0.6207  0.0981
  351MOL    H2649726   6.916   2.413   2.369 -0.1415  0.1418  0.1784
  351MOL    H2749727   6.859   2.274   2.173 -0.5457 -1.9341  0.4571
  351MOL    H2849728   6.685   2.325   2.185 -0.2810 -1.5136  0.2338
  351MOL    H2949729   6.774   2.220   2.306  0.9500 -0.3040  0.9325
  351MOL    C3049730   6.962   2.564   2.171  0.3064 -0.3564 -0.7221
  351MOL    C3149731   6.955   2.619   2.032 -0.0659  0.7391 -0.2384
  351MOL    O3249732   7.009   2.662   2.253  0.4299  0.1494  0.2151
  351MOL    H3349733   7.028   2.478   2.177  1.2363  0.4685  1.4460
  351MOL    H3449734   6.880   2.698   2.033 -1.4839 -0.5949  0.3381
  351MOL    H3549735   6.935   2.537   1.964  0.0122  1.8732 -1.6395
  351MOL    H3649736   7.055   2.661   2.014  0.2674 -0.5793 -1.5167
  351MOL    C3749737   7.132   2.638   2.323 -0.1048  0.9706 -0.5057
  351MOL    C3849738   7.165   2.768   2.398  0.0255  0.4711 -0.1171
  351MOL    O3949739   7.109   2.542   2.428  0.1099 -0.0132  0.3172
  351MOL    H4049740   7.207   2.611   2.248  0.2732  0.3820  0.0800
  351MOL    H4149741   7.076   2.818   2.437 -0.5885  0.4201 -1.4485
  351MOL    H4249742   7.219   2.844   2.341  3.3311 -1.2547  0.5751
  351MOL    H4349743   7.235   2.753   2.481  0.2312 -0.9100 -0.5363
  351MOL    C4449744   7.196   2.432   2.426  1.4225  0.1198 -0.3636
  351MOL    C4549745   7.187   2.380   2.573  0.3338  0.3565  0.3686
  351MOL    O4649746   7.149   2.334   2.342 -0.0335 -0.0903  0.0435
  351MOL    H4749747   7.295   2.468   2.399  1.6240 -0.7377 -0.7822
  351MOL    H4849748   7.100   2.319   2.597 -0.5738  2.1025  1.6730
  351MOL    H4949749   7.194   2.458   2.649 -0.7933 -0.5415  1.4303
  351MOL    H5049750   7.278   2.326   2.598  0.0626  0.4405  1.5744
  351MOL    C5149751   7.236   2.222   2.333 -0.1708 -0.8043 -0.0561
  351MOL    C5249752   7.149   2.112   2.260 -0.1304 -0.1895  0.0751
  351MOL    O5349753   7.349   2.250   2.255 -0.0111  0.4942  0.3290
  351MOL    H5449754   7.262   2.193   2.435 -2.9906  0.9166  1.2405
  351MOL    H5549755   7.066   2.089   2.327 -0.2959  0.8167  0.2222
  351MOL    H5649756   7.219   2.031   2.241 -1.9198 -1.1269 -2.8114
  351MOL    H5749757   7.119   2.157   2.166  2.4831  2.6024  0.5111
  351MOL    C5849758   7.468   2.249   2.327 -0.2146  0.1259 -0.0330
  351MOL    C5949759   7.575   2.265   2.227 -0.9844 -0.6824 -0.5861
  351MOL    O6049760   7.484   2.352   2.420 -0.2295  0.3794 -0.3738
  351MOL    H6149761   7.460   2.153   2.377  0.1226  0.5544  0.8412
  351MOL    H6249762   7.591   2.365   2.188  2.5629 -0.3124  1.6196
  351MOL    H6349763   7.561   2.189   2.150 -0.8737  1.9527 -3.2789
  351MOL    H6449764   7.669   2.245   2.279  0.4645  1.9413 -2.0670
  351MOL    C6549765   7.563   2.299   2.532  0.6956 -0.6324 -0.0664
  351MOL    C6649766   7.591   2.420   2.634 -0.6117 -0.1644 -0.2276
  351MOL    O6749767   7.490   2.205   2.606  0.1323 -0.3017  0.0237
  351MOL    H6849768   7.664   2.263   2.511 -0.0123 -1.4330 -2.3497
  351MOL    H6949769   7.658   2.493   2.588  0.6067 -0.3594  1.1730
  351MOL    H7049770   7.637   2.385   2.726 -0.5438  0.5652  0.0202
  351MOL    H7149771   7.495   2.466   2.657  0.5108  2.0380  0.1538
  351MOL    C7249772   7.573   2.111   2.666 -0.0489  0.0066 -0.2371
  351MOL    C7349773   7.483   2.015   2.757 -0.3578 -0.9127 -0.4728
  351MOL    O7449774   7.625   2.029   2.567  0.6101  0.0719  0.4821
  351MOL    H7549775   7.641   2.156   2.738  1.4246 -1.9439 -0.3604
  351MOL    H7649776   7.431   2.075   2.832  0.0012  1.0952 -1.7750
  351MOL    H7749777   7.552   1.947   2.807  1.2841  1.5560  0.7547
  351MOL    H7849778   7.410   1.952   2.707 -0.3876 -1.3995  0.1809
  351MOL    C7949779   7.753   1.997   2.593 -0.1655  0.8637  0.1177
  351MOL    C8049780   7.797   1.910   2.479 -0.2418  0.3896  0.6970
  351MOL    O8149781   7.832   2.110   2.595  0.0603  0.1495  0.0257
  351MOL    H8249782   7.747   1.947   2.689  0.4978  1.4655  0.4740
  351MOL    H8349783   7.750   1.812   2.486 -0.6591  0.6961  2.6240
  351MOL    H8449784   7.901   1.880   2.494 -0.4860 -1.5966 -1.3461
  351MOL    H8549785   7.792   1.965   2.385 -0.4594  2.3389  1.8309
  351MOL    C8649786   0.027   2.110   2.681  0.8995 -0.5940 -0.0988
  351MOL    C8749787   0.091   2.244   2.676 -0.6295 -0.8098  0.3097
  351MOL    O8849788   7.892   2.096   2.807  0.2191 -0.3138 -0.5943
  351MOL    H8949789   0.100   2.039   2.641  1.1835 -0.0702 -0.5163
  351MOL    H9049790   0.192   2.249   2.719 -0.2764  1.2931 -0.7155
  351MOL    H9149791   0.030   2.322   2.722  0.2017  0.5008 -0.7622
  351MOL    H9249792   0.097   2.275   2.572 -0.6237 -0.6153  0.3677
  351MOL    C9349793   0.040   2.007   2.889  0.3208  0.6211 -0.1202
  351MOL    C9449794   7.893   2.024   3.026  0.5435 -0.2877  0.0621
  351MOL    O9549795   0.035   1.874   2.845  0.7285  0.0951  0.3901
  351MOL    H9649796   0.143   2.042   2.884  0.7004 -0.3573  0.7381
  351MOL    H9749797   0.022   1.958   3.101  0.8542  0.7656  0.8192
  351MOL    H9849798   7.790   1.987   3.019  0.5309 -0.3000  0.3254
  351MOL    H9949799   7.895   2.128   3.058 -0.4022 -0.4077  0.5421
  351MOL   C10049800   0.131   1.786   2.899  0.0750  1.1650  0.1749
  351MOL   C10149801   0.098   1.643   2.855 -0.2210 -0.3671  0.8296
  351MOL   O10249802   0.260   1.811   2.854  0.7484  0.2494 -0.0254
  351MOL   H10349803   0.122   1.788   3.008 -2.7506  2.6602 -0.0454
  351MOL   H10449804   0.170   1.570   2.893  0.7477 -0.0242 -0.2843
  351MOL   H10549805   0.099   1.636   2.746  1.1570  0.3610  0.7806
  351MOL   H10649806   0.002   1.612   2.896 -0.2888 -1.2618  0.0153
  351MOL   C10749807   0.350   1.831   2.962  0.5701  0.6850  0.5133
  351MOL   C10849808   0.483   1.850   2.901 -0.0274 -0.0983  0.2657
  351MOL   O10949809   0.318   1.934   3.053 -0.1560  0.0717 -0.3440
  351MOL   H11049810   0.342   1.737   3.018 -1.1192  1.0647  0.9113
  351MOL   H11149811   0.565   1.864   2.971  0.3894 -0.2730 -0.1912
  351MOL   H11249812   0.483   1.940   2.840 -1.2537  1.0406  1.8791
  351MOL   H11349813   0.514   1.768   2.837 -0.9426 -0.0054 -0.3102
  351MOL   C11449814   0.342   1.900   3.185  0.0096  1.5235 -0.2555
  351MOL   C11549815   0.377   2.031   3.256 -0.1832 -0.7031 -0.2056
  351MOL   O11649816   0.234   1.855   3.252 -0.0313 -0.4063 -0.1223
  351MOL   H11749817   0.430   1.838   3.200 -0.4054  0.1123 -3.2940
  351MOL   H11849818   0.465   2.077   3.213 -1.2577  2.9743  1.2934
  351MOL   H11949819   0.384   2.024   3.365 -0.5585 -0.4698 -0.1656
  351MOL   H12049820   0.300   2.106   3.237 -0.4020 -0.1540  2.5714
  351MOL   C12149821   0.254   1.752   3.337  0.3585 -0.3864 -0.2878
  351MOL   C12249822   0.123   1.720   3.400 -0.1943  0.1552  0.3374
  351MOL   O12349823   0.288   1.634   3.261  0.1960  0.7888 -0.5012
  351MOL   H12449824   0.321   1.795   3.412 -2.6019  0.9493  1.6730
  351MOL   H12549825   0.095   1.795   3.473 -1.6806 -0.2069  0.1590
  351MOL   H12649826   0.126   1.631   3.463 -2.0493 -0.1389  0.0574
  351MOL   H12749827   0.045   1.703   3.326 -0.8988  2.4759  0.5207
  351MOL   C12849828   0.391   1.565   3.316  0.5028  0.6840 -0.2376
  351MOL   C12949829   0.411   1.445   3.219 -0.2287 -0.5242  0.1107
  351MOL   O13049830   0.510   1.637   3.320 -0.0494 -1.0079 -0.0176
  351MOL   H13149831   0.367   1.529   3.416  2.5110  3.1345  1.2018
  351MOL   H13249832   0.326   1.377   3.219 -0.9325  0.2503  3.4953
  351MOL   H13349833   0.499   1.390   3.254 -0.5868 -1.7437 -0.8737
  351MOL   H13449834   0.434   1.476   3.117 -1.2096 -2.6213 -0.7859
  351MOL   C13549835   0.597   1.600   3.429 -0.1538 -0.2357  0.5805
  351MOL   C13649836   0.730   1.668   3.393 -0.3807 -0.4816  0.1977
  351MOL   O13749837   0.550   1.626   3.558 -0.1439  0.2936 -0.1770
  351MOL   H13849838   0.616   1.493   3.424 -0.1435 -0.2588  1.1154
  351MOL   H13949839   0.769   1.636   3.296 -1.2538  0.2004 -0.3848
  351MOL   H14049840   0.804   1.633   3.466  0.5904  2.7672  0.8719
  351MOL   H14149841   0.727   1.777   3.393  0.0753 -0.4658  0.7035
  351MOL   H14249842   0.547   1.548   3.610  0.2642  0.2574 -0.2127
  352MOL     C149843   6.714   1.270   6.204  0.0933 -0.6594  0.0632
  352MOL     C249844   6.616   1.176   6.262  0.0758  0.3486 -1.0857
  352MOL     O349845   6.697   1.288   6.061 -0.2752 -0.2054 -0.2003
  352MOL     H449846   6.809   1.218   6.218  0.5709  0.2416  0.1466
  352MOL     H549847   6.606   1.084   6.204 -0.3344 -0.6448  0.5285
  352MOL     H649848   6.516   1.218   6.258 -0.2711 -0.5047 -1.4325
  352MOL     H749849   6.636   1.157   6.367 -0.2494  0.2791 -1.0369
  352MOL     H849850   6.711   1.361   6.263  3.1402 -0.0851 -0.5857
  352MOL     C949851   6.770   1.382   5.999  0.7473 -0.4493 -0.1876
  352MOL    C1049852   6.905   1.328   5.979  0.4362  0.8856  0.8759
  352MOL    O1149853   6.723   1.415   5.871  0.1566 -0.3100 -0.6136
  352MOL    H1249854   6.764   1.475   6.057  1.0788  1.1224 -2.6230
  352MOL    H1349855   6.956   1.320   6.075  0.2214  1.0721  1.0060
  352MOL    H1449856   6.955   1.404   5.920  1.5531  0.8636  1.7916
  352MOL    H1549857   6.907   1.231   5.930  2.2996  0.6245  1.4523
  352MOL    C1649858   6.596   1.468   5.875 -0.2643 -0.0676 -0.4485
  352MOL    C1749859   6.600   1.613   5.813 -0.0068  0.7355 -0.3903
  352MOL    O1849860   6.514   1.393   5.788  0.2248 -0.1249 -0.4705
  352MOL    H1949861   6.558   1.467   5.977  0.2033 -0.2162 -0.2756
  352MOL    H2049862   6.644   1.599   5.714 -1.3262 -2.6577 -0.5564
  352MOL    H2149863   6.665   1.677   5.873  0.6913  0.9690 -1.3752
  352MOL    H2249864   6.506   1.666   5.801 -0.7142 -1.0670 -3.4811
  352MOL    C2349865   6.454   1.282   5.844  0.2883 -0.2395 -0.0153
  352MOL    C2449866   6.299   1.307   5.847  0.4247 -0.0847 -0.4530
  352MOL    O2549867   6.476   1.171   5.757 -1.2981 -0.3240  0.1094
  352MOL    H2649868   6.490   1.261   5.945  4.3115  2.4933 -0.7574
  352MOL    H2749869   6.257   1.222   5.902 -0.5993  0.7108 -0.0075
  352MOL    H2849870   6.255   1.292   5.749 -2.7591 -0.0973  0.9176
  352MOL    H2949871   6.277   1.400   5.899  1.5265  0.3958 -0.8341
  352MOL    C3049872   6.607   1.114   5.777 -0.3475 -0.5730 -0.9943
  352MOL    C3149873   6.594   0.990   5.863  0.1753  0.1996 -0.4834
  352MOL    O3249874   6.678   1.090   5.653  0.0755  0.2464 -0.3676
  352MOL    H3349875   6.670   1.173   5.844 -1.8869 -1.2491  1.1229
  352MOL    H3449876   6.515   0.991   5.937  0.0613 -2.3751 -0.5133
  352MOL    H3549877   6.687   0.974   5.919 -0.7083  0.4171  1.0711
  352MOL    H3649878   6.573   0.901   5.804 -1.0396 -0.6383  1.1592
  352MOL    C3749879   6.743   1.196   5.595  0.1504 -0.4895  0.1725
  352MOL    C3849880   6.891   1.149   5.586 -0.6831  0.0447 -0.3299
  352MOL    O3949881   6.693   1.218   5.459 -0.0882  0.3484 -0.1266
  352MOL    H4049882   6.737   1.285   5.658 -0.5480  0.3138 -0.9909
  352MOL    H4149883   6.940   1.134   5.682  0.5758 -1.0770 -1.1375
  352MOL    H4249884   6.951   1.223   5.532  0.4714  1.2984  2.5952
  352MOL    H4349885   6.904   1.060   5.524  1.8890  0.1400  0.0174
  352MOL    C4449886   6.577   1.301   5.450  0.2442 -0.0729 -0.0427
  352MOL    C4549887   6.625   1.434   5.393  0.2139  0.4157  0.2966
  352MOL    O4649888   6.492   1.248   5.353 -0.1626  0.1851 -0.3504
  352MOL    H4749889   6.528   1.321   5.546 -2.0597 -1.7879 -0.8191
  352MOL    H4849890   6.701   1.467   5.464 -0.6556 -0.4900  1.6696
  352MOL    H4949891   6.546   1.508   5.382 -0.0677  0.6507  3.4218
  352MOL    H5049892   6.677   1.419   5.299  0.9017 -2.5135  1.1000
  352MOL    C5149893   6.402   1.162   5.415  0.5777  1.0005  0.1585
  352MOL    C5249894   6.266   1.226   5.407  0.0194  0.1492 -0.3101
  352MOL    O5349895   6.396   1.042   5.346 -0.2481  0.0459  0.0254
  352MOL    H5449896   6.430   1.146   5.519 -1.0909 -0.6407  0.3819
  352MOL    H5549897   6.193   1.152   5.439  1.1458 -1.3370 -1.0834
  352MOL    H5649898   6.244   1.265   5.308 -2.8710 -1.1322 -0.2267
  352MOL    H5749899   6.269   1.311   5.475  0.7394  0.4453 -0.7066
  352MOL    C5849900   6.504   0.951   5.363  0.4226 -0.6390  0.3140
  352MOL    C5949901   6.427   0.821   5.409 -0.7767  0.2975 -1.1703
  352MOL    O6049902   6.568   0.912   5.248 -0.1409  0.3472 -0.5085
  352MOL    H6149903   6.580   0.988   5.433  1.8082 -2.7740 -0.0293
  352MOL    H6249904   6.337   0.787   5.357 -1.9744  1.3025  0.2094
  352MOL    H6349905   6.413   0.836   5.516  2.0273 -1.8892 -0.4387
  352MOL    H6449906   6.497   0.737   5.414  0.1466  1.1828  1.9532
  352MOL    C6549907   6.621   1.015   5.173  0.3361 -0.0798  0.0494
  352MOL    C6649908   6.771   0.985   5.160 -0.5513  0.1370  0.0887
  352MOL    O6749909   6.562   1.005   5.041  0.1733  0.5416 -0.0687
  352MOL    H6849910   6.603   1.112   5.220 -0.6077 -0.6845  0.9702
  352MOL    H6949911   6.781   0.892   5.105  0.5261 -0.7633  1.7711
  352MOL    H7049912   6.818   0.984   5.259 -1.1445 -0.1245  0.3689
  352MOL    H7149913   6.814   1.068   5.104 -0.7190  0.9659  1.1830
  352MOL    C7249914   6.428   1.043   5.031  0.5899 -0.6099  0.0745
  352MOL    C7349915   6.430   1.192   5.012 -0.4135  0.2236 -0.0422
  352MOL    O7449916   6.357   0.992   4.920 -0.2518 -0.3902 -0.3074
  352MOL    H7549917   6.363   1.014   5.113 -0.8763 -3.0739 -1.8832
  352MOL    H7649918   6.469   1.220   4.914 -2.9120  2.4522 -0.4632
  352MOL    H7749919   6.485   1.240   5.093  0.1769 -0.4406 -0.0412
  352MOL    H7849920   6.332   1.239   5.006  0.8443  3.0359  0.1772
  352MOL    C7949921   6.351   0.853   4.909 -0.3604 -0.3304 -0.1722
  352MOL    C8049922   6.209   0.818   4.945  0.6900 -0.3248  0.3164
  352MOL    O8149923   6.376   0.823   4.781 -0.0555  0.7195  0.1002
  352MOL    H8249924   6.405   0.799   4.987  1.3395 -0.5221 -1.4403
  352MOL    H8349925   6.194   0.710   4.935  0.9069 -0.2167 -1.4808
  352MOL    H8449926   6.142   0.871   4.877 -2.0027 -2.7063  1.0158
  352MOL    H8549927   6.196   0.851   5.048  1.1637  0.7553  0.0373
  352MOL    C8649928   6.503   0.779   4.757 -0.6312 -0.3205  0.3133
  352MOL    C8749929   6.486   0.627   4.733  0.4325  0.3453 -0.6815
  352MOL    O8849930   6.549   0.833   4.633  0.7987 -0.1964  0.2200
  352MOL    H8949931   6.574   0.794   4.838  0.7138 -0.3938 -0.8281
  352MOL    H9049932   6.583   0.579   4.746  0.0513 -0.1146  0.4583
  352MOL    H9149933   6.455   0.609   4.630 -0.7184  0.3652 -0.3476
  352MOL    H9249934   6.416   0.576   4.799  0.7483 -1.2002 -1.5136
  352MOL    C9349935   6.586   0.965   4.644 -0.3343 -0.3403  0.0904
  352MOL    C9449936   6.736   0.974   4.639  0.4418 -0.4774  0.2870
  352MOL    O9549937   6.528   1.041   4.540 -0.2431  0.4911  1.4419
  352MOL    H9649938   6.556   1.008   4.739 -0.9178 -2.7902  1.0610
  352MOL    H9749939   6.759   0.922   4.547 -2.0737  0.5803 -0.9835
  352MOL    H9849940   6.773   0.925   4.730 -0.9659 -0.4603  0.8843
  352MOL    H9949941   6.767   1.077   4.657  0.6420 -0.8426  2.1454
  352MOL   C10049942   6.392   1.076   4.550 -0.3115  0.0106  1.0647
  352MOL   C10149943   6.388   1.227   4.529  0.2462 -0.1010  0.3542
  352MOL   O10249944   6.319   1.028   4.436 -0.2123 -0.3094  0.0232
  352MOL   H10349945   6.345   1.046   4.644 -1.1958  1.2364  1.0131
  352MOL   H10449946   6.289   1.272   4.521 -0.5894 -1.8014  1.0091
  352MOL   H10549947   6.438   1.255   4.435  0.0948 -0.7373  0.0851
  352MOL   H10649948   6.453   1.273   4.603  0.1822 -0.7647  0.8263
  352MOL   C10749949   6.274   0.894   4.451 -0.6327  0.1424  1.0848
  352MOL   C10849950   6.127   0.901   4.494 -0.5436 -0.6078 -0.0085
  352MOL   O10949951   6.287   0.817   4.335 -0.2781 -0.3177 -0.1042
  352MOL   H11049952   6.326   0.848   4.535 -2.1021 -2.2158  0.7200
  352MOL   H11149953   6.059   0.905   4.408 -1.1315  0.0461  0.4815
  352MOL   H11249954   6.113   0.984   4.562  1.5431 -0.0125 -0.2946
  352MOL   H11349955   6.104   0.804   4.538 -0.4652  0.3843  2.2639
  352MOL   C11449956   6.422   0.814   4.283  0.8676  0.0549 -0.0902
  352MOL   C11549957   6.500   0.688   4.323  0.5843 -0.4721  0.3538
  352MOL   O11649958   6.415   0.826   4.152 -0.2287  0.0286  0.1476
  352MOL   H11749959   6.490   0.889   4.324  1.5042  0.4388 -1.8355
  352MOL   H11849960   6.607   0.688   4.303  0.7391 -0.3035  1.1585
  352MOL   H11949961   6.447   0.595   4.304  0.3940 -0.3030  0.0432
  352MOL   H12049962   6.487   0.689   4.431 -3.6297  0.4507 -0.0632
  352MOL   C12149963   6.391   0.956   4.107 -0.9070  0.3432  0.1485
  352MOL   C12249964   6.528   1.009   4.064 -1.1099 -0.2583 -0.1485
  352MOL   O12349965   6.314   0.957   3.994  0.4590 -0.1431 -0.0973
  352MOL   H12449966   6.345   1.015   4.187 -0.9789  0.5349 -0.0350
  352MOL   H12549967   6.528   1.109   4.019 -0.5494 -0.1660  0.0530
  352MOL   H12649968   6.565   0.944   3.984 -0.0132  1.1753 -0.8372
  352MOL   H12749969   6.597   1.012   4.148 -1.6761 -2.6067  0.4298
  352MOL   C12849970   6.179   0.920   4.017 -0.9897  0.4669 -0.7709
  352MOL   C12949971   6.100   1.043   4.050  0.7496 -1.3126  0.0450
  352MOL   O13049972   6.125   0.877   3.899  0.5655 -0.4447  0.2005
  352MOL   H13149973   6.166   0.847   4.097  0.3560  0.8253 -0.2025
  352MOL   H13249974   6.121   1.075   4.152 -0.4868  1.9980 -0.6791
  352MOL   H13349975   5.996   1.014   4.041  0.4510 -0.1508 -0.4015
  352MOL   H13449976   6.112   1.124   3.978  0.2009 -1.1702  0.1139
  352MOL   C13549977   6.169   0.748   3.856 -0.2401 -1.4048  0.4974
  352MOL   C13649978   6.084   0.638   3.914  0.3801 -0.1047  0.2528
  352MOL   O13749979   6.163   0.737   3.716 -0.2102 -1.0164 -0.6042
  352MOL   H13849980   6.270   0.723   3.890  1.1726  1.9243 -0.9611
  352MOL   H13949981   6.112   0.633   4.020  0.6381 -0.4788  0.1656
  352MOL   H14049982   6.096   0.539   3.871 -0.6201 -2.1109  4.3476
  352MOL   H14149983   5.977   0.658   3.921  0.1246 -0.6180 -2.0076
  352MOL   H14249984   6.211   0.811   3.681  0.2031 -1.8757 -1.8547
   7.91392   7.91392   7.91392
