Control file title. For DL_FIELD 4.10
49894
    1MOL     C1    1   6.710   1.164   0.729 -0.1660 -0.5032 -0.3377
    1MOL     C2    2   6.669   1.310   0.724  0.2535  0.0862 -0.6749
    1MOL     C3    3   6.690   1.398   0.625 -1.1735  0.4932  0.2131
    1MOL     C4    4   6.654   1.546   0.617 -0.1282  0.0792  0.6321
    1MOL     H5    5   6.780   1.132   0.652  1.6040 -1.5440  1.6490
    1MOL     H6    6   6.629   1.090   0.733 -0.1902 -0.5905 -2.2412
    1MOL     H7    7   6.619   1.361   0.805 -2.3780 -2.1943 -0.8071
    1MOL     H8    8   6.732   1.354   0.536  0.9460  0.0401  1.4043
    1MOL     H9    9   6.634   1.582   0.718  2.3626  1.7079  0.6005
    1MOL    H10   10   6.575   1.564   0.544 -0.7281 -0.3338  1.1739
    1MOL    H11   11   6.767   1.157   0.821  2.4151 -0.8169 -1.9306
    1MOL    C12   12   6.777   1.627   0.581  0.2228 -0.0401 -0.3788
    1MOL    C13   13   6.745   1.776   0.602  0.4748  0.2501  0.0743
    1MOL    C14   14   6.821   1.856   0.673  0.1187 -0.5208 -0.1693
    1MOL    C15   15   6.804   2.004   0.701  0.1101 -0.4852 -0.1740
    1MOL    H16   16   6.861   1.605   0.647  1.6871  2.7727 -1.2200
    1MOL    H17   17   6.807   1.624   0.476 -0.3490  2.4689 -0.6476
    1MOL    H18   18   6.661   1.820   0.550  0.3006 -0.4519 -0.2411
    1MOL    H19   19   6.909   1.816   0.720  1.7467  1.7929 -1.1750
    1MOL    H20   20   6.880   2.058   0.645 -0.1153  3.1580  2.8466
    1MOL    H21   21   6.812   2.032   0.806  0.1975  0.6584 -0.4813
    1MOL    C22   22   6.679   2.075   0.647  0.2424 -0.5435 -0.0755
    1MOL    C23   23   6.657   2.212   0.716  0.4797  0.1000 -0.2688
    1MOL    C24   24   6.543   2.251   0.768  0.2875 -0.1489  0.3771
    1MOL    C25   25   6.529   2.380   0.842  0.2958 -0.0268 -0.9725
    1MOL    H26   26   6.674   2.076   0.538  0.0872 -0.5656 -0.0681
    1MOL    H27   27   6.593   2.012   0.671 -1.0095  0.2811 -2.2930
    1MOL    H28   28   6.749   2.268   0.729  0.3162  0.5823 -1.1590
    1MOL    H29   29   6.453   2.190   0.767  0.4803 -0.5239  2.6051
    1MOL    H30   30   6.440   2.427   0.798 -0.6955  0.0978  1.1217
    1MOL    H31   31   6.601   2.453   0.803  0.1407  0.5882 -0.1101
    1MOL    C32   32   6.521   2.371   1.005  0.2800 -0.4720 -0.1985
    1MOL    C33   33   6.468   2.505   1.066  0.2429 -0.0790 -0.3256
    1MOL    C34   34   6.338   2.522   1.093 -0.4134 -0.0632  0.7148
    1MOL    C35   35   6.289   2.651   1.159  0.2989  0.0025  0.6775
    1MOL    H36   36   6.454   2.292   1.039  1.3805 -1.3728 -0.1008
    1MOL    H37   37   6.615   2.353   1.057  0.7996 -2.4478 -1.7623
    1MOL    H38   38   6.541   2.584   1.069  1.3930 -1.1244 -0.3325
    1MOL    H39   39   6.271   2.442   1.066 -0.6598  0.6933 -0.9559
    1MOL    H40   40   6.207   2.688   1.097 -0.5266 -1.6085  0.7753
    1MOL    H41   41   6.362   2.731   1.157  0.5669 -0.2657 -0.3864
    1MOL    C42   42   6.246   2.624   1.300  0.0764  0.8511 -0.2459
    1MOL    C43   43   6.198   2.743   1.382 -0.7215 -0.8371  0.1820
    1MOL    C44   44   6.081   2.738   1.448 -0.7904  0.1857 -0.1131
    1MOL    C45   45   6.039   2.846   1.550 -0.1142 -0.8799 -0.3432
    1MOL    H46   46   6.169   2.547   1.303 -0.2940  1.1574 -1.6373
    1MOL    H47   47   6.331   2.579   1.351  0.6795 -0.3791 -2.2823
    1MOL    H48   48   6.268   2.825   1.389 -1.5187 -0.2082  1.0395
    1MOL    H49   49   6.009   2.660   1.427 -0.9392  1.0920 -3.0775
    1MOL    H50   50   6.112   2.926   1.564  0.8416 -1.7581 -0.2636
    1MOL    H51   51   6.026   2.806   1.651  1.6784  0.2202  0.3579
    1MOL    C52   52   5.913   2.914   1.500  0.3533 -0.4407 -0.5864
    1MOL    C53   53   5.850   2.998   1.609 -0.0727  0.1663  0.2425
    1MOL    C54   54   5.829   3.131   1.596  0.0444  0.4245  0.5842
    1MOL    C55   55   5.778   3.224   1.700 -0.8758 -0.2827 -0.4857
    1MOL    H56   56   5.939   2.981   1.418  1.5879 -1.0462 -0.6876
    1MOL    H57   57   5.835   2.841   1.475 -1.5539  1.2552  0.2887
    1MOL    H58   58   5.838   2.942   1.701 -0.3436  1.6131  1.1010
    1MOL    H59   59   5.847   3.164   1.495  2.7916  0.0646  0.9145
    1MOL    H60   60   5.850   3.307   1.703  0.0647 -0.9879 -2.5346
    1MOL    H61   61   5.796   3.177   1.797  0.8866  1.3412  0.0122
    1MOL    C62   62   5.640   3.276   1.668  0.6310 -0.6061 -0.4419
    1MOL    C63   63   5.580   3.366   1.777 -0.1938 -0.1246 -0.0336
    1MOL    C64   64   5.462   3.346   1.837 -0.0573 -0.9138 -0.1039
    1MOL    C65   65   5.410   3.443   1.944 -0.1709  0.2521  1.3543
    1MOL    H66   66   5.632   3.326   1.572  0.2588 -0.6331 -0.4248
    1MOL    H67   67   5.581   3.185   1.656 -1.0009  0.5211 -1.2002
    1MOL    H68   68   5.630   3.456   1.809  1.3034 -0.6711 -0.7794
    1MOL    H69   69   5.396   3.267   1.804 -0.4579 -1.6340  2.3476
    1MOL    H70   70   5.467   3.536   1.953 -1.5232  1.2437  0.0660
    1MOL    H71   71   5.413   3.383   2.035 -0.8216 -1.0336  0.5452
    1MOL    C72   72   5.261   3.477   1.916  0.1432  0.3222  0.3160
    1MOL    C73   73   5.209   3.608   1.972  1.0708  0.5307 -0.4532
    1MOL    C74   74   5.121   3.693   1.912  0.0184 -0.7773  0.5328
    1MOL    C75   75   5.057   3.822   1.965  0.0042  0.2152 -0.0223
    1MOL    H76   76   5.251   3.470   1.808  0.0730 -0.0877  0.3477
    1MOL    H77   77   5.198   3.396   1.955  1.3090 -1.9768 -2.4116
    1MOL    H78   78   5.230   3.651   2.069 -0.8351  0.0535  0.1838
    1MOL    H79   79   5.098   3.666   1.810 -0.4032  1.1834  0.0933
    1MOL    H80   80   5.088   3.830   2.070  1.9434 -1.4161 -0.4321
    1MOL    H81   81   4.950   3.806   1.970 -0.2719  1.8480 -0.5255
    1MOL    C82   82   5.115   3.938   1.884  0.8142 -1.5156  0.4040
    1MOL    C83   83   5.073   4.069   1.952  0.3026  0.3367  0.1005
    1MOL    C84   84   5.017   4.171   1.888  0.2212 -0.3143  0.1053
    1MOL    C85   85   4.967   4.297   1.958 -0.0881  0.3936  0.3116
    1MOL    H86   86   5.223   3.936   1.872  0.9659  1.6978  0.6093
    1MOL    H87   87   5.079   3.944   1.782 -0.8282  1.4743  1.0827
    1MOL    H88   88   5.089   4.066   2.059 -0.9100 -1.2051  0.2590
    1MOL    H89   89   5.007   4.171   1.780 -1.4324 -0.3049  0.2497
    1MOL    H90   90   4.979   4.287   2.066 -0.9803 -2.0972  0.1992
    1MOL    H91   91   4.858   4.303   1.951 -0.1984 -0.2664  1.3397
    1MOL    C92   92   5.033   4.428   1.936 -0.5146  1.0212 -0.0253
    1MOL    C93   93   4.969   4.538   2.012 -0.0547 -0.7470  0.1892
    1MOL    C94   94   4.910   4.647   1.960 -0.4673 -0.1663 -0.1087
    1MOL    C95   95   4.843   4.755   2.038  0.2820  0.2265  0.4930
    1MOL    H96   96   5.139   4.426   1.960 -0.3143  0.3093 -0.9929
    1MOL    H97   97   5.021   4.454   1.831 -0.9206 -0.2036 -0.2879
    1MOL    H98   98   4.969   4.524   2.119 -1.9090  0.5660  0.3673
    1MOL    H99   99   4.926   4.655   1.853 -0.6844  2.4880  0.0222
    1MOL   H100  100   4.877   4.855   2.008  3.3439 -1.1948 -0.9801
    1MOL   H101  101   4.855   4.755   2.146  0.1709 -1.4581  0.5175
    1MOL   C102  102   4.691   4.750   2.020 -0.8810  0.0301  1.0707
    1MOL   C103  103   4.650   4.774   1.870 -0.0925 -0.0976  0.7186
    1MOL   C104  104   4.561   4.700   1.800 -0.6572 -0.5499  0.0457
    1MOL   C105  105   4.517   4.746   1.658 -0.8246 -0.0147  0.0975
    1MOL   H106  106   4.649   4.656   2.057  0.3420 -0.4317  1.2930
    1MOL   H107  107   4.637   4.826   2.076 -0.8013  1.2864 -0.5181
    1MOL   H108  108   4.707   4.852   1.821  1.2237 -0.4402  1.6794
    1MOL   H109  109   4.500   4.630   1.854 -1.3567 -0.5344 -0.7257
    1MOL   H110  110   4.569   4.681   1.588  2.8376  0.2418  2.4988
    1MOL   H111  111   4.559   4.842   1.629  0.3043 -0.6849 -0.4929
    1MOL   C112  112   4.363   4.743   1.651  0.0151 -0.0940  0.7212
    1MOL   C113  113   4.317   4.799   1.516  0.0814 -0.1739 -0.4931
    1MOL   C114  114   4.267   4.731   1.416  0.0999 -0.1258 -1.1849
    1MOL   C115  115   4.223   4.783   1.280 -0.6212  0.3683 -0.1146
    1MOL   H116  116   4.321   4.644   1.668 -1.6541  0.4959  0.1383
    1MOL   H117  117   4.324   4.810   1.728 -0.0124 -2.0202  2.4333
    1MOL   H118  118   4.324   4.905   1.493 -1.0108 -0.0623 -0.3208
    1MOL   H119  119   4.267   4.624   1.434 -1.0795 -0.0507 -0.6823
    1MOL   H120  120   4.311   4.784   1.216 -1.5497 -0.0633 -1.4360
    1MOL   H121  121   4.193   4.887   1.295  3.0144  1.4669 -0.0799
    1MOL   C122  122   4.110   4.695   1.225  0.0729 -0.4593  0.1359
    1MOL   C123  123   4.081   4.731   1.083  0.1829 -0.1024  0.0477
    1MOL   C124  124   3.978   4.810   1.047  0.1338 -0.1803 -0.1118
    1MOL   C125  125   3.947   4.846   0.901  0.1390  0.5434  0.4434
    1MOL   H126  126   4.138   4.590   1.230 -2.0580 -1.0557 -0.1244
    1MOL   H127  127   4.023   4.701   1.290  2.1394 -3.9246  3.4039
    1MOL   H128  128   4.146   4.686   1.008  3.4249  1.5757  1.7343
    1MOL   H129  129   3.917   4.861   1.119 -1.3319 -1.2506 -0.5758
    1MOL   H130  130   3.938   4.954   0.905  1.6432  0.7668 -1.1717
    1MOL   H131  131   3.851   4.798   0.884  0.7755  0.1003 -2.2931
    1MOL   C132  132   4.064   4.820   0.804  0.3616  0.5648  0.2463
    1MOL   C133  133   4.048   4.890   0.664 -0.1959  0.4606  0.4470
    1MOL   C134  134   4.132   4.979   0.615 -0.2777  0.0484  0.5984
    1MOL   C135  135   4.145   5.041   0.476  0.1863 -0.9000 -0.1699
    1MOL   H136  136   4.157   4.859   0.846 -0.1700  2.2372 -0.0995
    1MOL   H137  137   4.064   4.712   0.788 -0.2345  0.2224  2.4077
    1MOL   H138  138   3.972   4.847   0.600 -1.9489  1.9907  1.4795
    1MOL   H139  139   4.208   5.022   0.679 -1.3308  0.3203  1.6877
    1MOL   H140  140   4.247   5.012   0.454 -0.0026 -1.0150 -0.8975
    1MOL   H141  141   4.125   5.147   0.490  0.1607 -0.9357  0.0758
    1MOL   C142  142   4.040   4.970   0.386  0.8429  0.4043 -0.0123
    1MOL   C143  143   4.041   5.022   0.242  0.0300 -0.3977 -0.1241
    1MOL   C144  144   4.059   4.940   0.138 -0.3375  0.7602 -0.4662
    1MOL   C145  145   4.067   4.988   7.975  0.4776  0.1049 -0.4526
    1MOL   H146  146   4.047   4.861   0.389  0.6947  0.3728 -0.6805
    1MOL   H147  147   3.936   4.984   0.416  0.0435 -1.9656 -1.5144
    1MOL   H148  148   4.035   5.129   0.224  0.5714  0.1822  2.9343
    1MOL   H149  149   4.066   4.835   0.163 -0.1405  0.6854 -0.8464
    1MOL   H150  150   4.173   4.967   7.957  0.2992 -2.2920  1.0458
    1MOL   H151  151   4.051   5.095   7.961  1.2998  0.1627 -1.0087
    1MOL   C152  152   3.972   4.922   7.875 -0.4764  0.5240 -0.2767
    1MOL   C153  153   3.997   4.779   7.837 -0.0069  0.1007 -0.0483
    1MOL   C154  154   3.907   4.678   7.846  0.3460 -0.0358  0.5929
    1MOL   C155  155   3.928   4.538   7.805  0.6980  0.1827  0.7170
    1MOL   H156  156   3.870   4.935   7.912 -0.6152  0.5640 -0.6656
    1MOL   H157  157   3.975   4.977   7.781  0.0198  1.2180  0.1417
    1MOL   H158  158   4.091   4.757   7.790  0.5552 -0.8582  1.4888
    1MOL   H159  159   3.810   4.703   7.888  0.0130  0.0699 -0.2432
    1MOL   H160  160   4.036   4.529   7.798  0.6487  0.3876 -0.4812
    1MOL   H161  161   3.878   4.530   7.708  0.0350  0.0837  1.0625
    1MOL   C162  162   3.873   4.425   7.896  0.3187  0.4138 -0.0730
    1MOL   C163  163   3.941   4.285   7.853  0.2710 -0.2711  0.6105
    1MOL   C164  164   3.879   4.183   7.802 -0.2478  0.5668 -0.9889
    1MOL   C165  165   3.945   4.062   7.750 -0.2844 -0.4090 -0.0000
    1MOL   H166  166   3.894   4.428   0.026 -0.1888  0.9780  0.0163
    1MOL   H167  167   3.764   4.428   7.887  0.1050 -2.2272  1.1745
    1MOL   H168  168   4.047   4.283   7.870  0.5623  1.8338 -0.7295
    1MOL   H169  169   3.771   4.193   7.794 -0.4621  0.5162  1.5649
    1MOL   H170  170   4.041   4.040   7.796 -0.0567 -0.6337 -0.5832
    1MOL   H171  171   3.976   4.075   7.646 -1.2164 -1.8174 -0.4831
    1MOL   C172  172   3.861   3.934   7.767  0.9926 -0.4878 -0.7164
    1MOL   C173  173   3.829   3.905   7.914  0.8775 -0.4982 -0.7510
    1MOL   C174  174   3.707   3.870   7.959 -0.1000 -0.0056  0.0833
    1MOL   C175  175   3.679   3.824   0.118 -0.5700 -0.1409 -0.9012
    1MOL   H176  176   3.774   3.921   7.703  1.6766  0.1206 -1.7930
    1MOL   H177  177   3.913   3.844   7.734 -1.0117 -1.1348 -2.2404
    1MOL   H178  178   3.907   3.910   0.013 -0.6561  0.9875  0.7760
    1MOL   H179  179   3.627   3.871   7.887 -0.0287 -0.1841  0.0022
    1MOL   H180  180   3.769   3.826   0.179 -0.3738  1.6072 -1.2279
    1MOL   H181  181   3.646   3.721   0.110  0.2543 -0.2613 -2.8917
    1MOL   C182  182   3.575   3.919   0.182  0.2798  0.2159  0.0103
    1MOL   C183  183   3.528   3.876   0.320  0.1564 -1.0114  0.1859
    1MOL   C184  184   3.585   3.940   0.426 -0.2946 -0.6163  0.1697
    1MOL   C185  185   3.579   3.888   0.565  0.2435 -0.0012 -0.3278
    1MOL   H186  186   3.609   4.022   0.178 -0.9135  0.5834 -1.5088
    1MOL   H187  187   3.481   3.925   0.126  1.6927 -0.4665 -2.5162
    1MOL   H188  188   3.457   3.795   0.328 -1.9669  0.8782  0.7607
    1MOL   H189  189   3.660   4.012   0.397 -2.1138  1.6568  0.9940
    1MOL   H190  190   3.672   3.840   0.595  0.1489 -0.6018 -0.9770
    1MOL   H191  191   3.497   3.815   0.565  0.0573  0.2087 -0.6101
    1MOL   C192  192   3.553   3.999   0.666 -0.4568 -0.0785 -0.5975
    1MOL   C193  193   3.582   3.958   0.810  0.7296  0.0920 -0.0034
    1MOL   C194  194   3.679   4.026   0.880  0.5102  0.0440 -0.0295
    1MOL   C195  195   3.709   3.987   1.016  0.4109  0.5660  0.6464
    1MOL   H196  196   3.606   4.090   0.637 -0.6334 -0.9303 -3.8071
    1MOL   H197  197   3.452   4.040   0.659 -0.2859  0.2351 -1.2905
    1MOL   H198  198   3.528   3.874   0.850 -2.1877  1.4509 -0.9089
    1MOL   H199  199   3.728   4.117   0.849 -0.3681  0.8663  0.9553
    1MOL   H200  200   3.816   3.971   1.030  0.9077  1.2896 -2.0783
    1MOL   H201  201   3.669   3.889   1.045  0.5264  0.1329 -0.6382
    1MOL   H202  202   3.671   4.060   1.088 -2.3072 -0.2597  0.1185
    2MOL     C1  203   7.606   3.805   0.567 -0.0866 -0.5838  0.5475
    2MOL     C2  204   7.627   3.709   0.683 -0.2948 -0.6145 -0.1059
    2MOL     C3  205   7.594   3.743   0.809 -0.0827 -0.1288  0.4158
    2MOL     C4  206   7.601   3.641   0.926  0.0732 -0.5576 -0.2727
    2MOL     H5  207   7.687   3.789   0.496  0.1773 -0.1765  0.7542
    2MOL     H6  208   7.600   3.908   0.601 -0.1350 -0.5649  0.4802
    2MOL     H7  209   7.656   3.610   0.653 -2.4958 -1.1411 -0.5981
    2MOL     H8  210   7.561   3.844   0.829  1.0024  0.2052  0.5356
    2MOL     H9  211   7.655   3.555   0.885  0.2958 -0.1991 -0.7312
    2MOL    H10  212   7.499   3.616   0.957 -0.8104  0.4158 -2.2916
    2MOL    H11  213   7.513   3.789   0.513  0.2997  0.0516 -0.3208
    2MOL    C12  214   7.665   3.707   1.046 -0.5433 -0.2443 -0.6560
    2MOL    C13  215   7.586   3.811   1.127  0.3303  0.6948 -0.0141
    2MOL    C14  216   7.589   3.939   1.097  0.1056  0.2777 -0.0672
    2MOL    C15  217   7.507   4.041   1.167 -0.2024  0.0288  0.0155
    2MOL    H16  218   7.702   3.640   1.124 -1.7559  1.6472  1.6054
    2MOL    H17  219   7.751   3.759   1.004  0.0629 -0.5643  0.1637
    2MOL    H18  220   7.527   3.763   1.204  1.6118 -2.5210 -0.9218
    2MOL    H19  221   7.648   3.976   1.015 -2.5280 -0.9954 -2.6576
    2MOL    H20  222   7.445   3.988   1.239 -2.5227  0.6490 -1.4641
    2MOL    H21  223   7.436   4.089   1.099 -2.3653 -2.3598  0.5262
    2MOL    C22  224   7.590   4.143   1.246  0.6345  0.7681 -0.1315
    2MOL    C23  225   7.666   4.239   1.154  0.1554  0.4023  0.6447
    2MOL    C24  226   7.670   4.374   1.169 -0.4129 -0.3991  0.6686
    2MOL    C25  227   7.743   4.477   1.080 -0.1843 -0.7203 -0.1887
    2MOL    H26  228   7.516   4.204   1.299 -0.2845  0.2883 -0.8352
    2MOL    H27  229   7.652   4.089   1.317 -0.1839  0.0047  0.0242
    2MOL    H28  230   7.730   4.199   1.077  1.6740  1.6481  1.2349
    2MOL    H29  231   7.605   4.405   1.249  0.4823  1.6262  0.6407
    2MOL    H30  232   7.666   4.543   1.039 -1.1007 -1.5709  0.1354
    2MOL    H31  233   7.789   4.435   0.991 -0.5831 -1.1937 -0.1738
    2MOL    C32  234   7.839   4.564   1.159 -0.4788 -0.3728 -0.0756
    2MOL    C33  235   7.961   4.470   1.198  0.3609  0.1445  0.7550
    2MOL    C34  236   0.109   4.508   1.205 -0.3660 -0.1804 -0.4120
    2MOL    C35  237   0.234   4.426   1.256 -0.0360  0.4425 -0.3291
    2MOL    H36  238   7.873   4.655   1.109 -0.8682  0.4467  1.1464
    2MOL    H37  239   7.805   4.593   1.258  1.2226 -1.2906  0.8032
    2MOL    H38  240   7.930   4.369   1.223 -0.4648  0.7465  2.2549
    2MOL    H39  241   0.130   4.610   1.177 -1.9289  0.2453 -0.0256
    2MOL    H40  242   0.212   4.346   1.326  0.9917 -0.0825 -0.6059
    2MOL    H41  243   0.286   4.494   1.323 -0.3066  1.3864 -1.0655
    2MOL    C42  244   0.331   4.387   1.143 -0.4536  0.6959 -0.7073
    2MOL    C43  245   0.454   4.319   1.204 -0.9152  0.3245  1.0214
    2MOL    C44  246   0.508   4.198   1.166  0.4381 -0.8867 -0.1111
    2MOL    C45  247   0.632   4.131   1.225  0.0058 -0.6770  0.4526
    2MOL    H46  248   0.286   4.315   1.075 -1.5534  1.4325 -0.7662
    2MOL    H47  249   0.366   4.477   1.091 -0.6589  0.4226 -1.3241
    2MOL    H48  250   0.499   4.377   1.282  1.8362  2.0623 -1.7331
    2MOL    H49  251   0.461   4.144   1.085 -0.5292 -0.0098 -0.1544
    2MOL    H50  252   0.688   4.209   1.276  0.8712  0.6139 -2.3205
    2MOL    H51  253   0.695   4.103   1.140  0.9331  2.2507  0.1325
    2MOL    C52  254   0.592   4.023   1.326  0.0648  0.4034  0.6968
    2MOL    C53  255   0.707   3.936   1.373  0.3652  0.5470 -0.2769
    2MOL    C54  256   0.700   3.807   1.398 -0.0992  0.2159 -0.2972
    2MOL    C55  257   0.816   3.722   1.443 -0.5436  0.0275  0.2207
    2MOL    H56  258   0.539   4.063   1.412  1.0457 -0.9224  1.9269
    2MOL    H57  259   0.523   3.956   1.274 -0.4276  0.6403  1.0380
    2MOL    H58  260   0.806   3.978   1.369  0.2000  1.1002  1.0355
    2MOL    H59  261   0.607   3.751   1.389 -0.1681  0.0066  1.4899
    2MOL    H60  262   0.770   3.632   1.485  1.6963 -1.7212 -0.9319
    2MOL    H61  263   0.866   3.773   1.525 -0.6421  0.7149 -0.1409
    2MOL    C62  264   0.913   3.677   1.336  0.1285  0.5337  1.0174
    2MOL    C63  265   1.027   3.778   1.323 -0.0617  0.1096  0.2980
    2MOL    C64  266   1.047   3.849   1.211  0.0489 -0.0062 -0.1442
    2MOL    C65  267   1.165   3.948   1.204 -0.0386  0.3356 -0.2093
    2MOL    H66  268   0.962   3.586   1.370 -2.1065 -0.1682  2.4774
    2MOL    H67  269   0.872   3.654   1.237  0.3590 -1.1767  1.3071
    2MOL    H68  270   1.103   3.786   1.399 -0.5774  2.0720  0.6341
    2MOL    H69  271   0.972   3.849   1.133 -0.6563  2.2731  0.5050
    2MOL    H70  272   1.253   3.903   1.159 -0.5895 -0.9734 -0.0158
    2MOL    H71  273   1.190   3.964   1.309 -0.4864 -1.5051  0.1957
    2MOL    C72  274   1.111   4.082   1.152 -0.1135 -0.1992  0.2225
    2MOL    C73  275   1.208   4.195   1.157 -0.4138 -0.8758 -0.5672
    2MOL    C74  276   1.207   4.282   1.260 -0.4034  0.5391 -0.4828
    2MOL    C75  277   1.310   4.390   1.292 -0.1205  0.4716  0.0245
    2MOL    H76  278   1.091   4.074   1.045  0.3556  2.1719 -0.0677
    2MOL    H77  279   1.016   4.099   1.203 -1.0918  0.9102 -1.8990
    2MOL    H78  280   1.281   4.192   1.077 -0.8679 -0.7552 -0.9882
    2MOL    H79  281   1.132   4.258   1.335  1.6229 -1.4815  0.9429
    2MOL    H80  282   1.380   4.395   1.208  0.9581  3.2542  1.0462
    2MOL    H81  283   1.375   4.354   1.372  0.3464  0.9532 -0.1382
    2MOL    C82  284   1.246   4.528   1.310 -0.1305 -0.7166 -0.6392
    2MOL    C83  285   1.344   4.638   1.328 -0.2935  0.1654  0.7967
    2MOL    C84  286   1.365   4.736   1.237  0.9970 -0.2992  0.3453
    2MOL    C85  287   1.454   4.859   1.268  0.4696 -0.0761  0.2959
    2MOL    H86  288   1.187   4.545   1.220 -0.3985  0.4371 -0.2561
    2MOL    H87  289   1.185   4.515   1.400  0.5253 -2.4795 -0.4241
    2MOL    H88  290   1.397   4.640   1.422  0.7722 -1.7365  0.2682
    2MOL    H89  291   1.303   4.736   1.149  0.2381  1.0246  0.8701
    2MOL    H90  292   1.518   4.881   1.182 -2.1440  1.4278 -1.3306
    2MOL    H91  293   1.521   4.840   1.352  0.1115 -0.0032  0.5961
    2MOL    C92  294   1.366   4.981   1.289  0.2539 -0.0260 -0.3193
    2MOL    C93  295   1.321   5.038   1.157 -0.3736 -0.4921  0.1631
    2MOL    C94  296   1.287   5.167   1.137 -0.4379 -0.2145 -0.3153
    2MOL    C95  297   1.233   5.217   0.999 -0.2590  0.2858 -0.4978
    2MOL    H96  298   1.285   4.954   1.358  0.1121  1.7044  0.2251
    2MOL    H97  299   1.415   5.062   1.344  2.5501 -0.5912 -1.4768
    2MOL    H98  300   1.311   4.968   1.075 -0.1145 -1.9801  1.3752
    2MOL    H99  301   1.289   5.239   1.217 -0.9578 -0.8530  0.2714
    2MOL   H100  302   1.265   5.149   0.920 -0.0038  2.1638 -2.0688
    2MOL   H101  303   1.282   5.310   0.971 -0.2046 -0.0518 -1.5362
    2MOL   C102  304   1.084   5.237   1.000  0.4130 -0.4979 -0.1570
    2MOL   C103  305   1.039   5.267   0.870 -0.8956 -0.0386 -0.5245
    2MOL   C104  306   0.989   5.391   0.831 -0.7658 -0.2249 -0.5621
    2MOL   C105  307   0.946   5.434   0.688 -0.4144  0.0711  0.1079
    2MOL   H106  308   1.028   5.149   1.032  0.7550 -0.2151  1.2484
    2MOL   H107  309   1.058   5.309   1.078  0.8538  0.3416 -0.7843
    2MOL   H108  310   1.042   5.188   0.797 -0.9641 -0.4250 -0.1104
    2MOL   H109  311   0.985   5.471   0.903  0.8506 -1.6836  1.2062
    2MOL   H110  312   0.839   5.446   0.672 -0.1597  1.5925 -0.4921
    2MOL   H111  313   0.949   5.340   0.633  0.9887  0.4039 -0.3888
    2MOL   C112  314   1.023   5.552   0.627 -0.1771  0.3342 -0.0592
    2MOL   C113  315   1.008   5.555   0.479  0.8855  0.9585  0.8547
    2MOL   C114  316   1.109   5.567   0.391  0.2920 -0.5840 -0.0157
    2MOL   C115  317   1.110   5.579   0.244  0.2524  1.1249  0.8620
    2MOL   H116  318   0.990   5.646   0.670 -2.1802 -0.6428  0.5882
    2MOL   H117  319   1.129   5.541   0.652 -0.6420 -0.8645  1.4427
    2MOL   H118  320   0.905   5.552   0.446  0.5289 -0.6280  2.0073
    2MOL   H119  321   1.212   5.575   0.425 -0.0019 -1.8206  1.2339
    2MOL   H120  322   1.122   5.677   0.200  0.6422  0.7153  0.0405
    2MOL   H121  323   1.005   5.553   0.230  0.6093 -0.0552  0.2370
    2MOL   C122  324   1.180   5.470   0.161 -0.1640 -0.1734 -0.2190
    2MOL   C123  325   1.327   5.497   0.135 -0.3254  0.1724  0.0931
    2MOL   C124  326   1.384   5.463   0.019 -0.0057  0.1810 -0.0962
    2MOL   C125  327   1.531   5.481   7.967  0.2838 -0.1785 -0.3244
    2MOL   H126  328   1.174   5.384   0.229 -1.1497  0.8760  1.0530
    2MOL   H127  329   1.140   5.455   0.061 -0.0423  0.6402 -0.3909
    2MOL   H128  330   1.399   5.522   0.212  3.0370  0.2534 -2.8933
    2MOL   H129  331   1.327   5.434   7.910 -0.9959  1.1152  0.2378
    2MOL   H130  332   1.593   5.478   0.080 -0.2908  0.1460  0.0861
    2MOL   H131  333   1.546   5.574   7.913 -1.7680  1.3278  1.6411
    2MOL   C132  334   1.578   5.361   7.874 -0.1314 -0.1330 -0.0446
    2MOL   C133  335   1.729   5.364   7.852 -0.2867  0.8291  0.2261
    2MOL   C134  336   1.805   5.266   7.897 -0.1858  0.9839  0.2309
    2MOL   C135  337   1.950   5.253   7.871  0.5539 -0.2831 -0.1999
    2MOL   H136  338   1.558   5.265   7.922 -1.7377  0.7632  1.1367
    2MOL   H137  339   1.528   5.360   7.778 -0.4861 -0.9692  0.1412
    2MOL   H138  340   1.764   5.453   7.802  2.3133 -1.0442 -1.4174
    2MOL   H139  341   1.764   5.183   7.952  0.7891  0.7726  0.6505
    2MOL   H140  342   1.976   5.324   7.793 -1.2692 -0.7040 -1.2386
    2MOL   H141  343   1.970   5.154   7.828  0.8473 -0.0239 -0.6631
    2MOL   C142  344   2.039   5.260   0.018 -0.1073  0.3397  0.0742
    2MOL   C143  345   2.189   5.226   7.963  0.1414  0.0270 -0.6418
    2MOL   C144  346   2.296   5.311   7.977  0.3793  0.4954  0.7526
    2MOL   C145  347   2.437   5.272   7.962 -1.2833  0.1194 -0.0657
    2MOL   H146  348   2.043   5.364   0.051 -0.7228  0.6343 -0.7691
    2MOL   H147  349   2.000   5.191   0.093 -0.1929  0.1986 -0.1030
    2MOL   H148  350   2.197   5.122   7.935 -0.0469  0.0312 -0.7118
    2MOL   H149  351   2.274   5.412   0.030 -0.6886 -0.3821  3.0467
    2MOL   H150  352   2.453   5.165   7.952  1.3212  0.2726  1.7012
    2MOL   H151  353   2.475   5.301   0.084  2.2410  0.2821 -1.3845
    2MOL   C152  354   2.510   5.361   7.857 -0.9093 -0.6123  0.7211
    2MOL   C153  355   2.661   5.357   7.879  0.2994 -0.0825  0.2768
    2MOL   C154  356   2.757   5.276   7.826 -0.2927 -0.3570  0.7541
    2MOL   C155  357   2.904   5.312   7.816 -0.5688 -0.1182  0.3894
    2MOL   H156  358   2.484   5.323   7.758  0.6075 -0.1349  0.1307
    2MOL   H157  359   2.475   5.464   7.862 -0.1198 -0.2237 -1.2740
    2MOL   H158  360   2.699   5.443   7.932 -1.6807  0.5751  0.6793
    2MOL   H159  361   2.716   5.197   7.765  1.3028  0.5523 -1.5589
    2MOL   H160  362   2.908   5.373   7.726 -0.3121  0.2819  0.6758
    2MOL   H161  363   2.969   5.225   7.802  0.9708  1.1717 -0.6256
    2MOL   C162  364   2.951   5.400   7.922  0.0064  0.1849 -0.4834
    2MOL   C163  365   3.096   5.427   7.924 -0.6379 -0.0214  0.0873
    2MOL   C164  366   3.154   5.546   7.892 -0.2496 -0.4031  0.1224
    2MOL   C165  367   3.299   5.569   7.902 -0.1004 -0.4502 -0.8641
    2MOL   H166  368   2.904   5.497   7.907  0.7350  0.0794 -3.9675
    2MOL   H167  369   2.921   5.354   0.039 -1.4596  0.2502 -0.9077
    2MOL   H168  370   3.160   5.344   7.952  1.6020  1.6622  0.0985
    2MOL   H169  371   3.088   5.629   7.875 -2.8306 -2.3521  0.3590
    2MOL   H170  372   3.342   5.573   7.802  3.0420  0.0097  0.4551
    2MOL   H171  373   3.348   5.479   7.939 -0.8512 -0.8182 -0.7637
    2MOL   C172  374   3.357   5.682   0.004 -0.8181 -0.3821  0.1825
    2MOL   C173  375   3.506   5.680   7.955  0.1345 -0.3972 -0.1033
    2MOL   C174  376   3.583   5.790   7.927 -0.0956  0.1242  0.1149
    2MOL   C175  377   3.731   5.800   7.913 -0.2920  0.4593 -0.2211
    2MOL   H176  378   3.311   5.772   7.939 -0.3778 -1.2100 -2.1631
    2MOL   H177  379   3.346   5.683   0.112  0.8708  1.1254  0.3550
    2MOL   H178  380   3.553   5.586   0.002  2.4943  0.7154 -0.1856
    2MOL   H179  381   3.524   5.877   7.903 -2.3281 -2.0610 -2.5984
    2MOL   H180  382   3.769   5.703   7.943  1.3434  1.1063 -0.1400
    2MOL   H181  383   3.767   5.859   0.021 -0.0612  0.4079 -0.2840
    2MOL   C182  384   3.781   5.850   7.769 -0.8766 -0.1686 -0.2905
    2MOL   C183  385   3.732   5.764   7.654  0.9226  0.4045 -0.5263
    2MOL   C184  386   3.648   5.800   7.556 -0.2085  0.0140 -0.5448
    2MOL   C185  387   3.596   5.712   7.450  0.2391  0.6000  0.6894
    2MOL   H186  388   3.743   5.951   7.751  1.8144  1.0460  0.5630
    2MOL   H187  389   3.890   5.859   7.771 -0.8909  0.5509 -1.8093
    2MOL   H188  390   3.777   5.666   7.655 -3.0813 -1.5329  0.7136
    2MOL   H189  391   3.614   5.903   7.551  2.7466  1.0386 -0.5593
    2MOL   H190  392   3.520   5.650   7.499 -0.5115  2.2340  1.6103
    2MOL   H191  393   3.670   5.640   7.414  0.3574  0.8769  0.3822
    2MOL   C192  394   3.529   5.778   7.328  0.2295  0.1234  0.1365
    2MOL   C193  395   3.615   5.882   7.259  0.6924  0.8681 -0.6418
    2MOL   C194  396   3.662   5.872   7.134  0.1978  0.5838 -0.2658
    2MOL   C195  397   3.747   5.987   7.074 -1.0902 -0.4799 -0.0844
    2MOL   H196  398   3.497   5.703   7.257  1.8191  0.2858 -0.7719
    2MOL   H197  399   3.433   5.826   7.344  0.5967  0.9135  0.0014
    2MOL   H198  400   3.644   5.970   7.316  0.4336 -2.4348  4.9664
    2MOL   H199  401   3.634   5.793   7.067 -4.9931  1.5426  0.6022
    2MOL   H200  402   3.750   6.065   7.150 -0.8226 -0.3235 -0.2553
    2MOL   H201  403   3.692   6.040   6.997  0.2653  1.7650  0.4421
    2MOL   H202  404   3.846   5.955   7.041 -2.1345 -2.1095 -1.7795
    3MOL     C1  405   1.910   3.770   2.219 -0.1301 -0.0648  0.2233
    3MOL     C2  406   1.788   3.817   2.147 -0.2518 -1.0987  0.8515
    3MOL     C3  407   1.744   3.750   2.039  0.2657  0.8682  0.4862
    3MOL     C4  408   1.623   3.800   1.958 -0.0577 -0.3149  0.3128
    3MOL     H5  409   1.997   3.813   2.168 -1.3517  1.0996 -0.8901
    3MOL     H6  410   1.901   3.661   2.224 -0.4434  0.0169  1.6962
    3MOL     H7  411   1.748   3.907   2.193  1.9393  0.9522 -1.0945
    3MOL     H8  412   1.805   3.664   2.014 -0.8717  0.9489 -2.9205
    3MOL     H9  413   1.581   3.895   1.992 -1.4058 -1.0179  0.6547
    3MOL    H10  414   1.542   3.731   1.980  1.4872 -2.8969 -1.7675
    3MOL    H11  415   1.913   3.805   2.322 -0.6300  0.3281  0.1032
    3MOL    C12  416   1.659   3.801   1.810 -0.0633  0.2690  0.0091
    3MOL    C13  417   1.777   3.881   1.764 -0.6529 -0.4481  0.0643
    3MOL    C14  418   1.876   3.834   1.691 -0.2506 -0.1265  0.3119
    3MOL    C15  419   1.989   3.924   1.654 -0.5414  0.3412  0.1633
    3MOL    H16  420   1.676   3.699   1.775  1.1800  0.5581 -0.2402
    3MOL    H17  421   1.573   3.826   1.748  1.4995  2.9285 -1.1819
    3MOL    H18  422   1.763   3.987   1.776  2.5398 -0.0817  1.2924
    3MOL    H19  423   1.886   3.728   1.670  0.6770 -0.5580  2.7585
    3MOL    H20  424   2.077   3.862   1.667  0.2206  1.6259  1.2508
    3MOL    H21  425   1.990   4.002   1.730 -1.2407 -1.4271  2.0204
    3MOL    C22  426   1.986   3.976   1.509  0.2141 -0.3735 -0.0640
    3MOL    C23  427   2.067   4.096   1.487  0.2192 -0.0073  0.0345
    3MOL    C24  428   2.143   4.117   1.374 -0.0594  0.3914 -0.3605
    3MOL    C25  429   2.228   4.243   1.356 -0.6321 -0.5488 -0.3967
    3MOL    H26  430   2.025   3.892   1.451  1.3318  1.5870 -2.2672
    3MOL    H27  431   1.890   4.005   1.466  0.7123 -1.6493 -2.1679
    3MOL    H28  432   2.069   4.168   1.567 -1.2668  1.4422 -1.2063
    3MOL    H29  433   2.140   4.040   1.298  1.2118 -1.1153  1.0567
    3MOL    H30  434   2.258   4.246   1.251  2.4739  2.9645  0.4675
    3MOL    H31  435   2.329   4.215   1.387  0.4902 -0.5764 -3.7912
    3MOL    C32  436   2.176   4.373   1.423 -0.3857  0.2090  0.6753
    3MOL    C33  437   2.259   4.492   1.387 -0.0284  0.5566  0.5285
    3MOL    C34  438   2.286   4.597   1.471 -0.3103 -0.4268 -0.2494
    3MOL    C35  439   2.367   4.719   1.433  0.1481  0.3046  0.3642
    3MOL    H36  440   2.073   4.397   1.396  0.1484  0.6260 -1.0794
    3MOL    H37  441   2.183   4.349   1.529  1.5806 -0.2080  0.4638
    3MOL    H38  442   2.305   4.492   1.290 -0.4602  1.6849  0.3095
    3MOL    H39  443   2.242   4.606   1.569  0.8231 -0.1229  0.2463
    3MOL    H40  444   2.300   4.803   1.449  1.0440  1.8976 -3.5820
    3MOL    H41  445   2.389   4.724   1.326 -2.3688  0.5396 -0.1684
    3MOL    C42  446   2.500   4.713   1.517 -0.1754 -0.3742 -0.3442
    3MOL    C43  447   2.576   4.842   1.526  0.2743  0.0390  0.0529
    3MOL    C44  448   2.536   4.968   1.488 -0.0102  0.7867 -0.2482
    3MOL    C45  449   2.615   5.091   1.510  0.5774 -0.1487  0.7693
    3MOL    H46  450   2.487   4.684   1.621 -0.9861  0.1370 -0.2981
    3MOL    H47  451   2.564   4.628   1.492  1.1672  0.4349  0.3406
    3MOL    H48  452   2.667   4.821   1.582  1.1585  2.9330 -0.1928
    3MOL    H49  453   2.442   4.986   1.438  0.7721  0.3733 -1.8749
    3MOL    H50  454   2.719   5.061   1.512  0.7614  0.5407  1.3118
    3MOL    H51  455   2.593   5.128   1.610  1.5931 -0.6462  1.1848
    3MOL    C52  456   2.581   5.186   1.396  0.5381 -0.4755  0.0485
    3MOL    C53  457   2.640   5.322   1.422  0.0145  0.0834  0.2146
    3MOL    C54  458   2.579   5.422   1.484 -0.3925  0.0254 -0.5527
    3MOL    C55  459   2.649   5.550   1.537 -0.1260 -0.6295  0.6804
    3MOL    H56  460   2.622   5.152   1.301  0.7290 -2.7286  0.8830
    3MOL    H57  461   2.474   5.192   1.379 -0.2213  0.0649  4.4266
    3MOL    H58  462   2.739   5.350   1.391 -0.2767  2.4487  1.3317
    3MOL    H59  463   2.472   5.413   1.496 -0.3329 -0.0673 -0.0889
    3MOL    H60  464   2.581   5.635   1.538  1.2559  0.4777  0.2327
    3MOL    H61  465   2.734   5.584   1.479 -0.4939  0.7836  0.9588
    3MOL    C62  466   2.698   5.536   1.681  0.6644 -0.4649 -0.5004
    3MOL    C63  467   2.586   5.536   1.784  0.6134  0.2776  0.0269
    3MOL    C64  468   2.564   5.432   1.867 -0.0107  0.1004  0.2203
    3MOL    C65  469   2.455   5.429   1.974  0.1283 -0.5604  0.2622
    3MOL    H66  470   2.759   5.448   1.700  2.6405  1.2916  1.5014
    3MOL    H67  471   2.769   5.617   1.694  0.3035 -0.5100  1.8957
    3MOL    H68  472   2.527   5.627   1.779  1.2257  0.6826  0.1740
    3MOL    H69  473   2.629   5.347   1.865  1.0991  0.9518 -0.1430
    3MOL    H70  474   2.371   5.371   1.935 -0.4156  0.2912  0.1306
    3MOL    H71  475   2.410   5.527   1.990  0.2067 -0.7398  1.6269
    3MOL    C72  476   2.508   5.372   2.105 -0.3950  0.4250  0.0056
    3MOL    C73  477   2.439   5.422   2.234 -0.7564  0.5464  0.4157
    3MOL    C74  478   2.375   5.346   2.325 -0.2204  0.7289 -0.2410
    3MOL    C75  479   2.309   5.390   2.456  0.5699  0.0656 -0.2676
    3MOL    H76  480   2.477   5.268   2.097 -1.3101  0.7032 -0.0471
    3MOL    H77  481   2.617   5.378   2.095 -0.3255 -1.5707 -0.6017
    3MOL    H78  482   2.444   5.530   2.243  0.8509  0.5146 -0.0719
    3MOL    H79  483   2.388   5.239   2.314  1.1127  0.8093  0.3869
    3MOL    H80  484   2.325   5.498   2.462  0.6061  0.0632 -0.3103
    3MOL    H81  485   2.366   5.345   2.537  0.1492  0.3297  0.1814
    3MOL    C82  486   2.150   5.361   2.450 -0.0173  0.4366 -0.6316
    3MOL    C83  487   2.085   5.435   2.562 -0.6943 -0.3614 -0.6662
    3MOL    C84  488   1.960   5.482   2.557  0.9582  0.1735 -0.1390
    3MOL    C85  489   1.878   5.525   2.675 -0.0070  0.1296 -0.1248
    3MOL    H86  490   2.109   5.391   2.353 -1.1077 -0.8363 -0.5683
    3MOL    H87  491   2.121   5.257   2.446  1.6263 -0.0968  0.6785
    3MOL    H88  492   2.133   5.418   2.657 -0.6599  1.7385 -0.2681
    3MOL    H89  493   1.906   5.490   2.464 -1.0060 -2.0380  0.7633
    3MOL    H90  494   1.929   5.475   2.757 -2.4332 -2.5476 -0.1674
    3MOL    H91  495   1.782   5.473   2.668  0.5428 -0.7687 -1.2859
    3MOL    C92  496   1.849   5.670   2.677 -0.4086  0.0084  0.0332
    3MOL    C93  497   1.796   5.721   2.805 -0.1413  0.6105 -0.8188
    3MOL    C94  498   1.846   5.819   2.882 -0.2226  0.4895 -0.4831
    3MOL    C95  499   1.788   5.871   3.010  0.6604 -0.1132  0.0379
    3MOL    H96  500   1.944   5.721   2.662  0.8575 -1.5518  2.3580
    3MOL    H97  501   1.774   5.695   2.603 -1.7297 -1.1677  0.9278
    3MOL    H98  502   1.701   5.683   2.841  1.1760 -1.2114  0.8728
    3MOL    H99  503   1.931   5.876   2.847 -0.9934  1.3910 -0.9246
    3MOL   H100  504   1.728   5.789   3.049 -1.9898  0.8721 -1.8854
    3MOL   H101  505   1.723   5.958   2.999  1.3411  0.4891  0.7366
    3MOL   C102  506   1.903   5.906   3.110 -0.1343  0.6175 -0.5518
    3MOL   C103  507   1.860   5.939   3.247  0.1771 -0.3695  0.4871
    3MOL   C104  508   1.921   6.023   3.332  0.1733 -0.5669  0.3958
    3MOL   C105  509   1.862   6.066   3.459 -0.4745 -0.1712  0.1354
    3MOL   H106  510   1.975   5.824   3.122  0.0619  1.0638  1.7130
    3MOL   H107  511   1.965   5.983   3.063 -1.3159  1.4954 -0.6854
    3MOL   H108  512   1.778   5.881   3.286  1.5363 -3.4723 -1.0663
    3MOL   H109  513   2.010   6.077   3.305 -0.1300  0.3072  1.1077
    3MOL   H110  514   1.927   6.031   3.539 -0.1672  0.1776  0.0404
    3MOL   H111  515   1.766   6.018   3.476 -0.8083  1.0838  1.9144
    3MOL   C112  516   1.854   6.218   3.470 -0.6347  0.1195  0.0474
    3MOL   C113  517   1.821   6.265   3.609 -0.2281  0.3587 -0.2836
    3MOL   C114  518   1.700   6.307   3.652  0.3184  0.9941  0.1250
    3MOL   C115  519   1.652   6.334   3.789 -0.1167  1.1615  0.1063
    3MOL   H116  520   1.951   6.259   3.441 -0.1329 -1.4627 -0.5357
    3MOL   H117  521   1.789   6.272   3.402  0.9775  2.8321  0.5618
    3MOL   H118  522   1.901   6.270   3.682  0.4955  0.4178 -1.0807
    3MOL   H119  523   1.618   6.312   3.582 -0.7005  2.5044  1.3816
    3MOL   H120  524   1.739   6.326   3.854  1.0270 -0.3210 -1.5572
    3MOL   H121  525   1.576   6.256   3.795  0.6728  0.5539  2.4978
    3MOL   C122  526   1.584   6.467   3.796 -0.2401  0.7784 -0.2091
    3MOL   C123  527   1.672   6.573   3.741  0.0037  0.7299  0.8256
    3MOL   C124  528   1.648   6.648   3.627  0.0565 -0.3646 -0.2440
    3MOL   C125  529   1.747   6.747   3.567  0.4257 -0.3344  0.2940
    3MOL   H126  530   1.486   6.471   3.749 -1.3011  1.0041  1.9360
    3MOL   H127  531   1.573   6.490   3.902 -2.4618  0.0775 -0.2560
    3MOL   H128  532   1.771   6.576   3.784  0.1881 -1.5882  0.5973
    3MOL   H129  533   1.549   6.632   3.587  0.0038  0.4372 -0.4442
    3MOL   H130  534   1.824   6.761   3.643 -0.1026 -1.7824  1.1005
    3MOL   H131  535   1.701   6.843   3.543 -0.0144 -0.7253 -0.4665
    3MOL   C132  536   1.813   6.697   3.437  0.6848 -0.3075 -0.0933
    3MOL   C133  537   1.890   6.798   3.369  0.0554  0.4597 -0.2515
    3MOL   C134  538   1.868   6.846   3.246 -0.2226 -0.5741 -0.4289
    3MOL   C135  539   1.943   6.952   3.165  0.2612  0.5026  0.0418
    3MOL   H136  540   1.873   6.608   3.457  0.5797 -0.6875 -1.4817
    3MOL   H137  541   1.729   6.668   3.375  0.0018 -0.9738  1.1124
    3MOL   H138  542   1.969   6.833   3.435  0.3193 -0.2736 -0.1809
    3MOL   H139  543   1.784   6.813   3.187 -1.1215  0.9127 -0.0154
    3MOL   H140  544   1.874   7.004   3.099  0.2962  0.8267  0.2592
    3MOL   H141  545   2.016   6.898   3.105  1.3403  1.8069  0.1491
    3MOL   C142  546   2.027   7.051   3.246 -0.2296 -0.1049  0.6177
    3MOL   C143  547   2.088   7.158   3.149  0.4217  0.5260 -0.5113
    3MOL   C144  548   2.218   7.191   3.150 -0.2663 -0.2527 -0.1582
    3MOL   C145  549   2.279   7.299   3.067  0.5009  0.0790 -0.4672
    3MOL   H146  550   1.970   7.111   3.317  1.0093  0.1208  1.4413
    3MOL   H147  551   2.101   6.997   3.304 -1.1075 -0.2208  1.6630
    3MOL   H148  552   2.020   7.221   3.095 -0.7510  0.6255  1.0399
    3MOL   H149  553   2.287   7.149   3.222  1.0014  2.0950  0.0300
    3MOL   H150  554   2.316   7.379   3.131 -0.0485  1.4700 -1.8411
    3MOL   H151  555   2.195   7.348   3.016 -0.4327 -1.5552 -0.5284
    3MOL   C152  556   2.376   7.243   2.960  0.4911 -0.2957  0.0966
    3MOL   C153  557   2.453   7.356   2.888  0.0313  0.2526  0.3744
    3MOL   C154  558   2.587   7.353   2.870  0.5384  0.1050 -0.0361
    3MOL   C155  559   2.659   7.448   2.778  0.1670 -0.3066  0.3520
    3MOL   H156  560   2.446   7.175   3.009  0.4162 -0.3944  0.0690
    3MOL   H157  561   2.315   7.191   2.886 -4.0146  2.1405  1.8922
    3MOL   H158  562   2.384   7.418   2.833  0.8738 -1.7586 -3.1022
    3MOL   H159  563   2.640   7.270   2.914 -2.9128 -1.7784  0.7910
    3MOL   H160  564   2.736   7.499   2.835  0.6952 -1.3840  0.6179
    3MOL   H161  565   2.591   7.520   2.732  0.4545 -0.2245  0.0540
    3MOL   C162  566   2.713   7.367   2.658 -0.3072 -0.4153 -0.3755
    3MOL   C163  567   2.791   7.454   2.564  0.6296  0.4023  0.1951
    3MOL   C164  568   2.897   7.414   2.499 -0.0520 -0.0184  0.2027
    3MOL   C165  569   2.963   7.484   2.391 -0.1699  0.0203 -0.1731
    3MOL   H166  570   2.779   7.285   2.686  0.9533  0.9607  0.7448
    3MOL   H167  571   2.634   7.317   2.603 -0.9531  0.0034  0.1616
    3MOL   H168  572   2.747   7.549   2.538  0.7888  0.2034 -0.8101
    3MOL   H169  573   2.930   7.314   2.524 -1.7217 -0.9128 -1.0848
    3MOL   H170  574   2.928   7.587   2.391 -2.1442 -0.6281 -1.0664
    3MOL   H171  575   2.942   7.430   2.299  1.7915 -0.2036 -0.5288
    3MOL   C172  576   3.113   7.477   2.403 -0.2102  0.1761  0.2604
    3MOL   C173  577   3.193   7.538   2.299 -0.3958  0.0973 -0.5208
    3MOL   C174  578   3.313   7.489   2.266 -0.3343  0.5148 -1.0988
    3MOL   C175  579   3.395   7.545   2.152  0.2081 -0.0701 -0.3703
    3MOL   H176  580   3.136   7.538   2.491  1.0898  0.2211 -0.0966
    3MOL   H177  581   3.144   7.374   2.419 -1.1391 -0.0760  0.4711
    3MOL   H178  582   3.154   7.617   2.237 -0.7346  0.4445  0.1385
    3MOL   H179  583   3.366   7.412   2.320 -1.0468 -0.5315 -1.8557
    3MOL   H180  584   3.336   7.616   2.094  0.1949 -2.0862 -2.8757
    3MOL   H181  585   3.435   7.470   2.085 -0.9498 -0.0328 -1.1111
    3MOL   C182  586   3.516   7.608   2.214 -0.5004 -0.3361  0.4235
    3MOL   C183  587   3.608   7.677   2.116 -0.2197  0.1447  0.4394
    3MOL   C184  588   3.598   7.689   1.985 -0.2756 -0.5382 -0.1560
    3MOL   C185  589   3.706   7.760   1.906  0.1031 -0.4104  0.9390
    3MOL   H186  590   3.491   7.683   2.289  2.2003  0.4583  0.5912
    3MOL   H187  591   3.576   7.529   2.260  1.3715 -0.2261 -1.7292
    3MOL   H188  592   3.687   7.734   2.162  1.1299 -0.9334 -0.5076
    3MOL   H189  593   3.525   7.641   1.922 -0.5328  0.6625 -0.7931
    3MOL   H190  594   3.793   7.695   1.906  1.8717  1.7372 -3.4282
    3MOL   H191  595   3.737   7.848   1.962 -1.4221  0.9296 -0.2625
    3MOL   C192  596   3.668   7.781   1.754 -0.5060  0.6664 -0.0130
    3MOL   C193  597   3.784   7.816   1.661  0.1479 -0.5985 -0.2883
    3MOL   C194  598   3.787   7.930   1.591 -0.1456 -0.2655  0.0067
    3MOL   C195  599   3.896   7.967   1.491  0.4816  0.6272  0.1869
    3MOL   H196  600   3.629   7.686   1.717  1.8400 -0.3751  0.0683
    3MOL   H197  601   3.593   7.860   1.754 -0.9449  0.2487 -0.6000
    3MOL   H198  602   3.862   7.743   1.647  0.6181 -0.3781  1.0797
    3MOL   H199  603   3.706   0.024   1.600 -2.6196 -2.7651 -1.6974
    3MOL   H200  604   3.922   0.095   1.486 -1.7962  1.2178  0.2332
    3MOL   H201  605   3.854   7.935   1.396  1.0113 -0.5183  0.3281
    3MOL   H202  606   3.992   7.915   1.496 -1.2957 -2.7317  1.5766
    4MOL     C1  607   3.432   4.364   6.842  0.2873 -0.3232 -0.0863
    4MOL     C2  608   3.554   4.334   6.928 -0.4070  0.1373 -0.2236
    4MOL     C3  609   3.580   4.209   6.950 -0.3062  0.4919 -0.1798
    4MOL     C4  610   3.697   4.152   7.031 -0.5070 -0.1899  0.5221
    4MOL     H5  611   3.467   4.402   6.745 -2.2124  0.9785 -0.5331
    4MOL     H6  612   3.377   4.448   6.886 -0.0161 -0.5173 -0.0976
    4MOL     H7  613   3.617   4.416   6.958  0.1184 -1.3273  2.9201
    4MOL     H8  614   3.504   4.141   6.915  0.5940 -0.6826  0.1037
    4MOL     H9  615   3.779   4.224   7.034 -0.3633 -0.3159 -0.4323
    4MOL    H10  616   3.739   4.071   6.972  0.6051 -0.6069  1.8589
    4MOL    H11  617   3.366   4.278   6.831 -0.4574 -0.2142  3.1526
    4MOL    C12  618   3.665   4.098   7.172  0.2296 -0.1442 -0.0594
    4MOL    C13  619   3.775   4.032   7.248  0.1229  0.3458 -0.4541
    4MOL    C14  620   3.765   3.909   7.299  0.1027 -0.2794  0.1046
    4MOL    C15  621   3.884   3.842   7.359 -0.1880 -0.2508 -0.3622
    4MOL    H16  622   3.633   4.183   7.233 -0.9842  0.7137 -1.8324
    4MOL    H17  623   3.580   4.030   7.170  0.0226  0.0852  0.6214
    4MOL    H18  624   3.861   4.097   7.257 -0.4768  1.0963 -0.0472
    4MOL    H19  625   3.677   3.846   7.291 -0.9870  0.7827  3.1666
    4MOL    H20  626   3.862   3.836   7.466  0.4977  1.5155 -0.0971
    4MOL    H21  627   3.963   3.916   7.347  0.2185 -0.6833 -0.3854
    4MOL    C22  628   3.925   3.705   7.307  0.2937 -1.2379  0.7797
    4MOL    C23  629   3.809   3.619   7.252 -0.0933 -0.3749  0.1260
    4MOL    C24  630   3.807   3.568   7.130  0.0832 -0.3383 -1.0137
    4MOL    C25  631   3.690   3.497   7.072  0.0087 -0.1593 -0.9851
    4MOL    H26  632   4.006   3.719   7.235 -0.3146  1.2227  0.5263
    4MOL    H27  633   3.966   3.650   7.391 -0.4644 -1.2909  1.1165
    4MOL    H28  634   3.717   3.620   7.309 -0.0653 -0.3751  0.1711
    4MOL    H29  635   3.899   3.584   7.075  0.3392 -2.2318 -1.1486
    4MOL    H30  636   3.596   3.529   7.116  0.7226  0.0865  0.3690
    4MOL    H31  637   3.694   3.389   7.086 -3.5760 -0.2750 -0.3393
    4MOL    C32  638   3.670   3.524   6.917 -0.7094  0.0165  0.0178
    4MOL    C33  639   3.634   3.666   6.900  0.7294 -0.9683 -0.2576
    4MOL    C34  640   3.513   3.716   6.864 -0.2914 -0.1333 -0.0781
    4MOL    C35  641   3.477   3.866   6.848 -0.1804  0.0559  0.4837
    4MOL    H36  642   3.763   3.514   6.861 -0.6357  2.4124 -0.3596
    4MOL    H37  643   3.595   3.456   6.878 -0.2785 -1.6033  1.9329
    4MOL    H38  644   3.711   3.734   6.933  0.6528 -1.0247  0.0354
    4MOL    H39  645   3.432   3.646   6.853 -1.1689  0.9684 -0.8116
    4MOL    H40  646   3.547   3.908   6.776  0.6847 -2.2675 -0.0771
    4MOL    H41  647   3.502   3.923   6.937  1.7172 -0.5738  0.3698
    4MOL    C42  648   3.331   3.885   6.813  0.6544  0.1561  0.2725
    4MOL    C43  649   3.304   3.946   6.671 -0.1825 -0.5255  0.4846
    4MOL    C44  650   3.383   4.044   6.616  0.3244 -0.1619 -0.1977
    4MOL    C45  651   3.374   4.099   6.474  0.0492 -0.9277  0.1793
    4MOL    H46  652   3.273   3.793   6.810 -0.6245  0.9860 -1.3430
    4MOL    H47  653   3.281   3.949   6.886  0.7581 -0.7571  1.1493
    4MOL    H48  654   3.223   3.905   6.612 -0.2995  0.3907  0.0093
    4MOL    H49  655   3.463   4.089   6.673  1.0206 -1.4811 -0.0976
    4MOL    H50  656   3.288   4.051   6.426 -0.0812 -0.5880  0.0703
    4MOL    H51  657   3.466   4.074   6.421  1.1519 -1.2485  2.2024
    4MOL    C52  658   3.345   4.248   6.470 -0.0479 -0.1632 -0.8743
    4MOL    C53  659   3.356   4.326   6.340 -0.4714 -0.2372  0.0986
    4MOL    C54  660   3.431   4.285   6.235 -0.1418  0.1365  0.3054
    4MOL    C55  661   3.465   4.357   6.107  0.2682 -0.2242  0.3316
    4MOL    H56  662   3.244   4.268   6.506  0.5993  2.3758 -0.4154
    4MOL    H57  663   3.396   4.308   6.546 -1.8252  0.5292 -0.2095
    4MOL    H58  664   3.297   4.417   6.338 -2.0665 -1.2952 -2.2484
    4MOL    H59  665   3.495   4.200   6.251  1.6170  1.1863 -0.9634
    4MOL    H60  666   3.406   4.448   6.101  2.7919  1.4681  0.3955
    4MOL    H61  667   3.433   4.291   6.027  1.1143  1.7089 -1.6349
    4MOL    C62  668   3.619   4.384   6.087  0.4725  0.0776 -0.3740
    4MOL    C63  669   3.648   4.457   5.957 -0.7917 -0.7002 -1.0078
    4MOL    C64  670   3.765   4.433   5.896 -0.4272 -0.5756 -0.1085
    4MOL    C65  671   3.804   4.497   5.770  0.1903  0.1254  0.3941
    4MOL    H66  672   3.657   4.441   6.173  0.6695 -0.8708  0.1735
    4MOL    H67  673   3.669   4.288   6.084 -0.8564 -0.6438  0.1151
    4MOL    H68  674   3.578   4.526   5.913  3.2534  2.4200 -2.9009
    4MOL    H69  675   3.839   4.364   5.935 -1.2082 -1.4166 -0.0878
    4MOL    H70  676   3.728   4.571   5.748  0.1252 -0.6164 -2.0862
    4MOL    H71  677   3.794   4.420   5.692 -1.1596  2.3760 -1.7173
    4MOL    C72  678   3.949   4.552   5.753  0.5631  0.0369 -0.1157
    4MOL    C73  679   3.972   4.678   5.840  0.1396  0.2474  0.8322
    4MOL    C74  680   4.033   4.672   5.959 -0.4254 -0.0843  0.5910
    4MOL    C75  681   4.050   4.788   6.047  0.1980 -0.3918  0.0038
    4MOL    H76  682   4.023   4.475   5.774 -0.1288 -0.1959  1.6408
    4MOL    H77  683   3.965   4.580   5.649  2.0265 -0.6462 -0.0858
    4MOL    H78  684   3.931   4.770   5.801  0.1025  0.1751  0.6998
    4MOL    H79  685   4.067   4.579   6.002 -1.2515 -0.5443  0.2519
    4MOL    H80  686   4.012   4.876   5.994 -2.9513 -0.9821  1.1865
    4MOL    H81  687   4.157   4.809   6.056  0.0773  0.1263  0.2672
    4MOL    C82  688   3.979   4.782   6.180 -0.1398  0.3096  0.3198
    4MOL    C83  689   3.833   4.747   6.170 -0.1042 -0.2798 -0.7770
    4MOL    C84  690   3.737   4.825   6.119  0.6583  0.0179 -0.6664
    4MOL    C85  691   3.589   4.791   6.105  0.2056 -0.4459 -0.6007
    4MOL    H86  692   4.028   4.716   6.252  1.5706  0.9451 -0.2385
    4MOL    H87  693   3.976   4.882   6.223 -0.4689  0.1560  0.6612
    4MOL    H88  694   3.823   4.642   6.193 -0.5885  0.1633  1.0701
    4MOL    H89  695   3.764   4.925   6.087  1.0432 -0.6519 -2.4687
    4MOL    H90  696   3.567   4.693   6.146 -3.0961  0.5528  0.1826
    4MOL    H91  697   3.576   4.777   5.998  0.1668  0.0098 -0.6586
    4MOL    C92  698   3.500   4.895   6.159  0.2435 -0.1048  0.9207
    4MOL    C93  699   3.359   4.851   6.147 -0.5998 -0.1344  0.0797
    4MOL    C94  700   3.280   4.863   6.036  0.0368 -0.0504  0.1023
    4MOL    C95  701   3.134   4.812   6.018 -0.2032  0.3258 -0.4534
    4MOL    H96  702   3.521   4.932   6.260 -1.6709  0.3117  1.1747
    4MOL    H97  703   3.510   4.986   6.100 -1.4128  1.8107  3.5200
    4MOL    H98  704   3.322   4.798   6.234  1.1857  0.5478  1.2964
    4MOL    H99  705   3.316   4.906   5.944 -1.3824 -1.0696 -0.9562
    4MOL   H100  706   3.073   4.901   6.004 -2.6384 -1.3751 -0.7957
    4MOL   H101  707   3.108   4.763   6.111  0.9793 -0.5718 -0.5868
    4MOL   C102  708   3.124   4.718   5.901  0.2540 -0.4061 -0.3798
    4MOL   C103  709   3.170   4.581   5.930 -0.4862  0.3434 -0.0552
    4MOL   C104  710   3.081   4.481   5.924 -0.2640 -0.2437 -0.8027
    4MOL   C105  711   3.120   4.341   5.950  0.7850 -0.3083  0.0815
    4MOL   H106  712   3.020   4.710   5.872 -0.2977  2.9469  0.4548
    4MOL   H107  713   3.185   4.749   5.816  1.0008  1.5762  0.8385
    4MOL   H108  714   3.277   4.579   5.945 -0.5562 -0.1441  0.3941
    4MOL   H109  715   2.973   4.490   5.914 -0.3835 -0.0699  0.6153
    4MOL   H110  716   3.227   4.326   5.939  0.6424 -1.4811  0.1732
    4MOL   H111  717   3.072   4.298   5.862  0.9699 -1.6578  0.6194
    4MOL   C112  718   3.051   4.279   6.070  0.2258 -0.7661 -0.4771
    4MOL   C113  719   3.055   4.125   6.070  0.3028  0.6614  0.7308
    4MOL   C114  720   3.108   4.043   6.159  0.0245 -0.7450 -0.1817
    4MOL   C115  721   3.116   3.895   6.149 -0.0790 -0.0887 -0.1452
    4MOL   H116  722   3.090   4.314   6.166 -2.0798 -2.5870  1.1812
    4MOL   H117  723   2.947   4.311   6.067 -0.2088 -2.0789  0.2976
    4MOL   H118  724   3.001   4.074   5.992  2.1959 -0.9122  0.4128
    4MOL   H119  725   3.167   4.086   6.238 -1.5563 -0.6948  0.9782
    4MOL   H120  726   3.218   3.855   6.148  0.6691  1.7609  0.2139
    4MOL   H121  727   3.065   3.862   6.059  1.4035 -1.3983 -0.5234
    4MOL   C122  728   3.044   3.817   6.263 -0.3113  0.4183  0.2906
    4MOL   C123  729   3.032   3.664   6.237  0.2065  0.0646  0.3602
    4MOL   C124  730   3.090   3.586   6.150 -0.5488  0.3940 -0.2807
    4MOL   C125  731   3.076   3.432   6.166 -0.3728 -0.5537  0.0998
    4MOL   H126  732   3.090   3.829   6.361 -2.6061  0.1591  1.4436
    4MOL   H127  733   2.939   3.839   6.285 -0.6279 -1.2697  0.5742
    4MOL   H128  734   2.973   3.608   6.309  0.4150  0.2980  0.7163
    4MOL   H129  735   3.151   3.625   6.069  0.9192  0.6259  0.9233
    4MOL   H130  736   3.032   3.415   6.265 -0.4279 -0.7085  0.0497
    4MOL   H131  737   3.181   3.404   6.164 -0.2979 -0.3055  0.5677
    4MOL   C132  738   3.008   3.354   6.046  0.0251  0.3411  0.0204
    4MOL   C133  739   2.970   3.207   6.073 -0.0939  0.2358 -0.6104
    4MOL   C134  740   2.857   3.138   6.049 -0.2050  0.3837  0.5018
    4MOL   C135  741   2.814   3.002   6.102  0.1933  0.1712 -0.2767
    4MOL   H136  742   2.915   3.403   6.015  1.2492  3.7126  1.4844
    4MOL   H137  743   3.064   3.358   5.953 -1.2062 -1.2482 -0.8147
    4MOL   H138  744   3.048   3.162   6.132 -0.9245  0.4911  0.7086
    4MOL   H139  745   2.776   3.186   5.997 -0.1798 -0.4158 -0.2754
    4MOL   H140  746   2.708   3.000   6.126  0.1947 -1.7107 -0.3986
    4MOL   H141  747   2.875   2.963   6.183 -1.0497 -1.6126 -0.1915
    4MOL   C142  748   2.830   2.910   5.984  0.6784 -0.0545  0.4951
    4MOL   C143  749   2.981   2.892   5.952 -0.6342  0.4654  0.6352
    4MOL   C144  750   3.041   2.770   5.953 -0.4742 -0.5265 -0.4646
    4MOL   C145  751   3.189   2.757   5.908 -0.6484  0.2417  0.5742
    4MOL   H146  752   2.779   2.813   5.989 -2.3543  1.5341  1.1944
    4MOL   H147  753   2.790   2.953   5.892  1.2071  1.1777  0.8373
    4MOL   H148  754   3.026   2.981   5.912  2.8278 -1.3291  0.3931
    4MOL   H149  755   2.995   2.676   5.980 -1.5029  0.3193  0.7971
    4MOL   H150  756   3.246   2.735   5.998  1.6025  2.0438 -0.3720
    4MOL   H151  757   3.227   2.851   5.869  0.6636 -0.8220 -0.7926
    4MOL   C152  758   3.215   2.642   5.815 -0.1018  0.4654  0.3412
    4MOL   C153  759   3.195   2.507   5.880  0.4898  0.6857 -0.1255
    4MOL   C154  760   3.288   2.416   5.886 -0.4227 -0.4171  0.3661
    4MOL   C155  761   3.261   2.294   5.958  0.2585 -0.4856 -0.5863
    4MOL   H156  762   3.148   2.631   5.729  1.9478  1.2279 -1.3764
    4MOL   H157  763   3.307   2.664   5.761 -1.2441 -1.4795 -2.5237
    4MOL   H158  764   3.096   2.494   5.921  0.1497 -1.2457 -1.4472
    4MOL   H159  765   3.381   2.419   5.830 -0.5736  1.6732  0.1910
    4MOL   H160  766   3.242   2.209   5.892 -0.0880 -0.4609 -0.5223
    4MOL   H161  767   3.170   2.301   6.018 -0.0700 -1.6907 -0.9192
    4MOL   C162  768   3.368   2.273   6.069  0.0761  0.4554 -0.3413
    4MOL   C163  769   3.354   2.136   6.137 -0.4800  0.5079 -0.1150
    4MOL   C164  770   3.373   2.120   6.269  0.8002  0.2162  0.2064
    4MOL   C165  771   3.337   1.998   6.342  0.1767 -0.0899  0.8402
    4MOL   H166  772   3.464   2.275   6.016  1.7622 -0.0005  2.6267
    4MOL   H167  773   3.368   2.354   6.142  1.6719  1.0571 -0.9791
    4MOL   H168  774   3.340   2.055   6.067 -1.2407  0.5725 -0.0433
    4MOL   H169  775   3.383   2.205   6.334  0.6140  0.5760 -0.2284
    4MOL   H170  776   3.368   1.909   6.286  0.4755 -0.4860  1.6249
    4MOL   H171  777   3.229   1.999   6.360 -0.2922 -0.3101 -1.7409
    4MOL   C172  778   3.408   1.996   6.479  0.2708 -0.3777  0.0652
    4MOL   C173  779   3.346   1.889   6.566  0.1446 -0.3908 -0.5191
    4MOL   C174  780   3.420   1.799   6.629 -0.2024  0.4457  0.0883
    4MOL   C175  781   3.368   1.694   6.730 -0.5389 -0.4458  0.1445
    4MOL   H176  782   3.515   1.976   6.464  0.7205  0.9439  1.4397
    4MOL   H177  783   3.385   2.088   6.532 -0.2584  0.3201 -1.3409
    4MOL   H178  784   3.241   1.886   6.588  0.4949  1.0457  1.3992
    4MOL   H179  785   3.526   1.801   6.609 -0.1807 -0.5131  0.0744
    4MOL   H180  786   3.404   1.713   6.831  1.7236  1.3537 -0.9251
    4MOL   H181  787   3.405   1.603   6.683 -4.2461 -1.5452 -0.7830
    4MOL   C182  788   3.213   1.679   6.743 -0.6702  0.3685  0.5222
    4MOL   C183  789   3.173   1.582   6.856 -0.3085 -0.2479  1.0613
    4MOL   C184  790   3.065   1.501   6.850 -0.7305 -0.4013 -0.4606
    4MOL   C185  791   3.010   1.421   6.964 -0.8632 -0.3487  0.0410
    4MOL   H186  792   3.164   1.771   6.774  0.2457  1.3233 -0.7909
    4MOL   H187  793   3.171   1.659   6.645  0.1644  0.3742  0.1585
    4MOL   H188  794   3.236   1.591   6.943  0.7560 -0.1758  0.2814
    4MOL   H189  795   3.001   1.506   6.764  2.3952 -0.1771 -2.8820
    4MOL   H190  796   2.925   1.485   6.985  1.0383  2.4782 -0.5871
    4MOL   H191  797   3.072   1.424   7.053  0.5940 -1.4259 -0.9177
    4MOL   C192  798   2.950   1.283   6.912  0.4082  0.0357  0.1766
    4MOL   C193  799   3.042   1.214   6.809  0.2764 -0.4443 -0.3744
    4MOL   C194  800   3.040   1.085   6.774 -0.6117  0.1348  0.2200
    4MOL   C195  801   3.134   1.022   6.669 -0.2229  0.5636  0.2159
    4MOL   H196  802   2.916   1.212   6.988 -0.4049 -0.2217 -0.4297
    4MOL   H197  803   2.860   1.324   6.867  0.4540 -1.1015 -0.9832
    4MOL   H198  804   3.118   1.279   6.769 -0.4767 -0.3440 -1.6551
    4MOL   H199  805   2.985   1.007   6.826  0.5451  0.1268  1.4529
    4MOL   H200  806   3.160   1.098   6.596  0.2311  0.0823 -0.1335
    4MOL   H201  807   3.098   0.932   6.618 -1.9885 -0.5869  3.3269
    4MOL   H202  808   3.229   0.997   6.716  0.7445  0.4024 -1.7683
    5MOL     C1  809   3.803   5.948   3.619 -0.0433  0.7433 -0.3970
    5MOL     C2  810   3.862   5.832   3.699  0.0294 -0.4425  1.1376
    5MOL     C3  811   3.911   5.840   3.824 -0.5213 -0.1721  0.6217
    5MOL     C4  812   3.962   5.723   3.907 -0.2796 -0.4264  0.5173
    5MOL     H5  813   3.694   5.940   3.616 -0.1616  0.7953  2.2201
    5MOL     H6  814   3.850   5.950   3.521  2.1104 -0.7104  0.5816
    5MOL     H7  815   3.864   5.741   3.640 -2.2619  1.1270 -1.5074
    5MOL     H8  816   3.918   5.936   3.872  2.1107  1.0635 -2.0639
    5MOL     H9  817   3.915   5.628   3.882  1.1503 -0.8619 -0.5948
    5MOL    H10  818   3.923   5.741   4.007 -1.6924 -0.1137 -0.0737
    5MOL    H11  819   3.824   6.043   3.668 -1.6411  1.5570 -1.2290
    5MOL    C12  820   4.112   5.715   3.917 -0.9530  0.5878 -0.0778
    5MOL    C13  821   4.150   5.605   4.021  0.5839 -0.3404  0.2472
    5MOL    C14  822   4.241   5.618   4.120  0.7068 -0.8983 -0.0249
    5MOL    C15  823   4.276   5.508   4.221 -0.7950  0.1089 -0.4507
    5MOL    H16  824   4.152   5.687   3.819  0.8839  2.2950  0.1644
    5MOL    H17  825   4.151   5.813   3.940 -2.0056  0.6919  1.3254
    5MOL    H18  826   4.085   5.519   4.015  0.7553 -0.4641  0.1656
    5MOL    H19  827   4.302   5.706   4.137 -1.1716  0.3032  0.5833
    5MOL    H20  828   4.232   5.414   4.187 -0.5369 -0.7673  1.5560
    5MOL    H21  829   4.227   5.519   4.318  0.3062  2.9957 -0.1735
    5MOL    C22  830   4.428   5.490   4.249 -0.0067 -0.1268 -0.1296
    5MOL    C23  831   4.467   5.403   4.361 -0.0079  0.1072  0.2903
    5MOL    C24  832   4.561   5.308   4.347 -0.4374  0.1884  0.3340
    5MOL    C25  833   4.597   5.211   4.452  0.4969  0.4644  0.2827
    5MOL    H26  834   4.494   5.466   4.165 -0.8822  0.5269 -1.0108
    5MOL    H27  835   4.461   5.589   4.282 -0.5052 -1.2460  3.8941
    5MOL    H28  836   4.418   5.427   4.454  0.9701  1.8597  0.3650
    5MOL    H29  837   4.608   5.298   4.250 -1.2512 -0.2799 -0.0212
    5MOL    H30  838   4.560   5.114   4.421  3.8350 -0.5793 -0.5993
    5MOL    H31  839   4.549   5.240   4.546 -0.8433  1.2855 -0.6353
    5MOL    C32  840   4.749   5.191   4.463  0.3451 -0.8975  0.1578
    5MOL    C33  841   4.822   5.118   4.346 -0.6750 -0.1009 -0.5490
    5MOL    C34  842   4.781   5.014   4.275 -0.5119  0.0882 -0.7891
    5MOL    C35  843   4.866   4.953   4.171 -0.3753 -0.4903 -1.0941
    5MOL    H36  844   4.792   5.289   4.483 -3.5175  0.6668  1.0758
    5MOL    H37  845   4.764   5.134   4.555 -2.8348 -2.7814 -0.4297
    5MOL    H38  846   4.917   5.161   4.316 -1.1116 -1.0597 -3.5471
    5MOL    H39  847   4.684   4.969   4.285 -0.0206 -1.3159 -2.0824
    5MOL    H40  848   4.967   4.995   4.168  0.0533 -1.4668 -0.9239
    5MOL    H41  849   4.830   4.967   4.069 -0.7564  1.2334 -0.7295
    5MOL    C42  850   4.873   4.801   4.201 -0.0706 -0.1394  0.2066
    5MOL    C43  851   4.973   4.732   4.105  0.3065 -0.4732 -0.5334
    5MOL    C44  852   4.954   4.616   4.037 -0.6830  0.8399  0.1870
    5MOL    C45  853   5.062   4.546   3.957 -0.0799  1.1131 -0.4862
    5MOL    H46  854   4.895   4.784   4.306 -1.7365 -0.3671  0.5278
    5MOL    H47  855   4.769   4.771   4.190 -0.7154  1.8752  0.7132
    5MOL    H48  856   5.070   4.778   4.094 -0.6465  1.4119 -1.1648
    5MOL    H49  857   4.856   4.573   4.047 -0.2135 -0.1752  0.5030
    5MOL    H50  858   5.160   4.591   3.971 -0.0947  1.0218 -0.0832
    5MOL    H51  859   5.032   4.553   3.852  2.4549  1.8609 -1.2104
    5MOL    C52  860   5.075   4.393   3.979  0.4258 -0.1157  0.9081
    5MOL    C53  861   4.956   4.302   3.942  0.0942  0.8234 -0.6536
    5MOL    C54  862   4.889   4.237   4.040  0.1713 -0.4203  0.0993
    5MOL    C55  863   4.762   4.163   4.005 -0.2515  0.3181 -0.4680
    5MOL    H56  864   5.162   4.347   3.931 -0.1257  1.0789 -1.3324
    5MOL    H57  865   5.091   4.383   4.086 -1.1828  0.2913  1.1944
    5MOL    H58  866   4.930   4.288   3.838  1.7132 -0.9558 -0.8437
    5MOL    H59  867   4.919   4.251   4.142 -1.3203  0.1790  0.4708
    5MOL    H60  868   4.742   4.165   3.898  2.8731 -0.2314 -1.1172
    5MOL    H61  869   4.685   4.224   4.053  0.8107  1.4956 -0.2447
    5MOL    C62  870   4.759   4.030   4.069 -0.3295  0.6181  0.6457
    5MOL    C63  871   4.630   3.951   4.031  0.5804 -0.8937 -0.4679
    5MOL    C64  872   4.530   3.930   4.115  0.1186 -0.4674 -0.1644
    5MOL    C65  873   4.411   3.837   4.085 -0.7594  0.6471 -0.3103
    5MOL    H66  874   4.850   3.975   4.044 -0.3223  1.2029 -0.6430
    5MOL    H67  875   4.752   4.053   4.175  1.8533  0.6940  0.7980
    5MOL    H68  876   4.632   3.914   3.930 -4.0814  0.7227 -1.2585
    5MOL    H69  877   4.529   3.982   4.210 -2.4331 -1.7958  0.5727
    5MOL    H70  878   4.431   3.785   3.992  1.1369 -0.6389  0.7944
    5MOL    H71  879   4.334   3.913   4.068 -0.6993  0.8808  0.4450
    5MOL    C72  880   4.380   3.741   4.201  0.1226  0.2686  0.0357
    5MOL    C73  881   4.268   3.643   4.160 -0.0910 -0.0225  0.1251
    5MOL    C74  882   4.280   3.509   4.140 -0.0430 -0.3839 -0.0096
    5MOL    C75  883   4.162   3.415   4.111  0.3206 -0.1530 -0.7296
    5MOL    H76  884   4.468   3.681   4.225  0.6880  0.7627 -0.7417
    5MOL    H77  885   4.359   3.788   4.296 -2.2004 -0.1722 -0.2343
    5MOL    H78  886   4.167   3.681   4.166 -0.2413  0.0875 -2.3972
    5MOL    H79  887   4.377   3.464   4.126 -0.0545 -0.7778  1.1241
    5MOL    H80  888   4.068   3.470   4.105 -0.0037 -0.5799  0.4620
    5MOL    H81  889   4.157   3.347   4.196  1.1869  0.3589 -0.2548
    5MOL    C82  890   4.196   3.328   3.989  0.2999 -0.1650  0.1504
    5MOL    C83  891   4.121   3.200   3.978 -0.1225  0.7147  0.5171
    5MOL    C84  892   4.026   3.173   3.892 -0.1448  0.3704 -0.9875
    5MOL    C85  893   3.946   3.047   3.890  0.1443 -0.1289 -0.4786
    5MOL    H86  894   4.188   3.390   3.900  1.6599  2.0044  1.5104
    5MOL    H87  895   4.297   3.286   3.994  0.4404 -0.4681 -3.4381
    5MOL    H88  896   4.139   3.128   4.057 -0.2800 -0.4716 -0.5190
    5MOL    H89  897   3.998   3.246   3.816 -0.8629 -1.4069 -2.4607
    5MOL    H90  898   3.840   3.069   3.903  0.3338  0.4734  0.0311
    5MOL    H91  899   3.961   2.985   3.979 -2.1006 -1.1094 -0.7454
    5MOL    C92  900   3.951   2.980   3.750  0.3170 -0.1988 -1.4514
    5MOL    C93  901   3.864   3.047   3.648 -0.2468 -0.0763 -0.0060
    5MOL    C94  902   3.753   2.994   3.597  0.3222 -0.0670 -0.0328
    5MOL    C95  903   3.670   3.057   3.493  0.3334  0.5191  0.1816
    5MOL    H96  904   4.055   2.998   3.722  0.2129  1.2045 -0.9665
    5MOL    H97  905   3.916   2.877   3.763 -2.3141  0.9021  0.6289
    5MOL    H98  906   3.912   3.134   3.604 -0.4616 -0.0805 -0.2507
    5MOL    H99  907   3.711   2.902   3.634 -1.4348  0.1031 -1.5395
    5MOL   H100  908   3.690   3.164   3.500 -1.0916  0.9071 -1.4087
    5MOL   H101  909   3.566   3.032   3.518 -0.4708  3.8654  0.3896
    5MOL   C102  910   3.706   3.010   3.353 -0.1832 -0.3788  0.6905
    5MOL   C103  911   3.594   3.020   3.252  0.2591  0.4033  0.4020
    5MOL   C104  912   3.558   2.932   3.159 -0.0281  0.3651  0.0247
    5MOL   C105  913   3.461   2.955   3.047  0.3271  0.6033  0.0263
    5MOL   H106  914   3.793   3.068   3.323  0.9843 -0.4165  3.7872
    5MOL   H107  915   3.729   2.904   3.353 -1.8892 -0.7596 -1.0917
    5MOL   H108  916   3.539   3.113   3.253  1.0420  1.0203  6.2326
    5MOL   H109  917   3.606   2.836   3.152  1.9715  1.3862 -0.6746
    5MOL   H110  918   3.420   3.055   3.058 -2.4255 -0.4778 -0.1245
    5MOL   H111  919   3.379   2.884   3.056  0.0778  0.8359 -0.3907
    5MOL   C112  920   3.529   2.932   2.915  0.6480  0.0688  0.2301
    5MOL   C113  921   3.436   2.938   2.796  0.2168 -0.2933  0.2924
    5MOL   C114  922   3.460   3.010   2.685 -0.6214  0.6110 -0.1854
    5MOL   C115  923   3.371   3.023   2.564 -0.3371 -0.1365 -0.3464
    5MOL   H116  924   3.612   3.000   2.898 -0.2877  0.8762 -1.1786
    5MOL   H117  925   3.572   2.832   2.916  1.0820  0.2687  1.7010
    5MOL   H118  926   3.347   2.877   2.805 -0.8994  1.2044 -0.2643
    5MOL   H119  927   3.556   3.060   2.682 -0.3639  0.1204 -0.1558
    5MOL   H120  928   3.374   3.131   2.545 -0.0012  0.4068  2.5906
    5MOL   H121  929   3.273   2.988   2.597 -0.4236  0.4621  0.0477
    5MOL   C122  930   3.418   2.950   2.437 -0.5458  0.5576 -0.3294
    5MOL   C123  931   3.516   2.835   2.461  0.1126  0.5985  0.3634
    5MOL   C124  932   3.484   2.708   2.457  0.2267 -0.1145 -0.7514
    5MOL   C125  933   3.570   2.594   2.499 -0.5240  1.0098  0.1589
    5MOL   H126  934   3.320   2.920   2.400 -1.3580 -2.2469  3.7697
    5MOL   H127  935   3.458   3.024   2.368 -1.5402  4.5988  3.2527
    5MOL   H128  936   3.617   2.866   2.483  0.7166 -0.8675 -0.2508
    5MOL   H129  937   3.382   2.686   2.429  0.5371 -1.5315 -0.7874
    5MOL   H130  938   3.586   2.575   2.605  3.0099  0.7108 -0.3659
    5MOL   H131  939   3.671   2.592   2.457 -0.4312 -1.5716  0.4383
    5MOL   C132  940   3.518   2.462   2.453  0.0827  0.6152  0.2370
    5MOL   C133  941   3.628   2.360   2.447 -0.1706 -0.3398 -0.3432
    5MOL   C134  942   3.618   2.222   2.467 -0.5823 -0.0183  0.4484
    5MOL   C135  943   3.740   2.123   2.482 -0.0791 -0.2861 -0.4069
    5MOL   H136  944   3.436   2.409   2.500 -1.7048  1.4732 -1.8371
    5MOL   H137  945   3.485   2.479   2.351  1.6310  1.1944 -0.1874
    5MOL   H138  946   3.722   2.397   2.409  0.3917  1.5101  2.6672
    5MOL   H139  947   3.526   2.183   2.509  0.3588 -1.5767  1.1418
    5MOL   H140  948   3.829   2.183   2.498 -0.3294 -0.3037  1.2087
    5MOL   H141  949   3.747   2.071   2.387  1.2465 -2.0193  0.6022
    5MOL   C142  950   3.713   2.014   2.586  0.2120  0.0609  0.2963
    5MOL   C143  951   3.808   1.903   2.594 -0.0041  0.0412  0.0036
    5MOL   C144  952   3.921   1.891   2.525 -0.4240  0.4406 -0.4065
    5MOL   C145  953   4.012   1.768   2.544 -0.6396  0.0793 -0.0697
    5MOL   H146  954   3.725   2.055   2.687 -1.7222  0.2081  0.4889
    5MOL   H147  955   3.613   1.971   2.582 -0.6577  2.0181  0.6484
    5MOL   H148  956   3.781   1.837   2.675 -1.4422  0.8737  0.2137
    5MOL   H149  957   3.944   1.952   2.440 -0.8457 -0.3243 -1.0758
    5MOL   H150  958   4.031   1.736   2.441  1.9376  1.7638 -0.1612
    5MOL   H151  959   3.958   1.686   2.592  0.7633 -0.7023  0.2215
    5MOL   C152  960   4.134   1.804   2.621 -0.1351 -0.7586 -0.4990
    5MOL   C153  961   4.220   1.684   2.631  0.1914 -0.7038  0.1037
    5MOL   C154  962   4.234   1.607   2.739  0.7432 -0.3220 -0.4198
    5MOL   C155  963   4.348   1.509   2.750 -0.3762  0.1215  0.4123
    5MOL   H156  964   4.188   1.889   2.581 -0.2177  0.2463  1.4390
    5MOL   H157  965   4.106   1.827   2.724  1.5860  2.1515 -0.6290
    5MOL   H158  966   4.276   1.666   2.540  0.5056  0.8606 -0.0391
    5MOL   H159  967   4.181   1.623   2.831  0.5612 -1.4906 -0.3121
    5MOL   H160  968   4.433   1.551   2.698  0.5852 -1.7738  0.3960
    5MOL   H161  969   4.320   1.415   2.702  0.8882  1.3076 -2.7166
    5MOL   C162  970   4.368   1.480   2.895  0.2891 -0.1170 -0.4222
    5MOL   C163  971   4.475   1.376   2.924  0.1069 -0.6926 -0.3487
    5MOL   C164  972   4.454   1.250   2.981  0.5503 -0.1412  0.2250
    5MOL   C165  973   4.555   1.140   3.002 -0.5587  0.5594  0.1820
    5MOL   H166  974   4.382   1.570   2.955 -1.0785  0.8958 -1.5837
    5MOL   H167  975   4.275   1.429   2.923  0.1267 -0.5622 -1.7286
    5MOL   H168  976   4.575   1.403   2.894  0.2217  0.6658  1.1524
    5MOL   H169  977   4.355   1.227   3.018  1.1887 -4.6560 -0.5749
    5MOL   H170  978   4.581   1.137   3.108 -0.7217 -0.7145  0.2018
    5MOL   H171  979   4.647   1.170   2.952  0.7189 -1.0178  1.5281
    5MOL   C172  980   4.513   0.998   2.965  0.4992 -0.3875 -0.0992
    5MOL   C173  981   4.508   0.967   2.819 -0.6108  0.3337  0.2036
    5MOL   C174  982   4.402   0.928   2.747 -0.5055 -1.0559  0.0186
    5MOL   C175  983   4.395   0.913   2.604  0.9184  0.4607  0.7953
    5MOL   H176  984   4.579   0.925   3.012  2.3482  1.5266  0.3388
    5MOL   H177  985   4.412   0.983   3.001  0.0764  1.3274 -0.5264
    5MOL   H178  986   4.597   1.000   2.767 -0.7917 -0.4802 -0.6314
    5MOL   H179  987   4.309   0.907   2.798 -0.6844  0.9043  0.5242
    5MOL   H180  988   4.370   0.810   2.579  1.6408  0.4879 -0.0575
    5MOL   H181  989   4.490   0.925   2.553  0.5832  0.8228  0.2373
    5MOL   C182  990   4.289   1.002   2.539  0.1093  0.4653 -0.0291
    5MOL   C183  991   4.277   0.979   2.388 -0.6323 -0.4498 -0.3281
    5MOL   C184  992   4.252   1.066   2.287 -0.2706  0.9678 -0.7694
    5MOL   C185  993   4.250   1.015   2.143  0.5465  0.8917 -0.0847
    5MOL   H186  994   4.189   0.981   2.576 -0.8625  2.4531 -1.4550
    5MOL   H187  995   4.324   1.103   2.559 -0.0943  0.0398  2.6240
    5MOL   H188  996   4.275   0.874   2.360  2.0072 -0.9026  1.0265
    5MOL   H189  997   4.236   1.172   2.299 -3.1000  0.4621  0.2191
    5MOL   H190  998   4.153   1.040   2.099  0.2531 -0.6675 -0.3820
    5MOL   H191  999   4.263   0.909   2.118  0.5194  0.7105  0.6536
    5MOL   C192 1000   4.355   1.102   2.067  0.0446  0.2725  0.4061
    5MOL   C193 1001   4.342   1.070   1.919 -0.5701 -0.4652  0.3731
    5MOL   C194 1002   4.426   1.002   1.840 -0.1341 -0.7316  0.5935
    5MOL   C195 1003   4.410   0.986   1.688  0.0224 -0.3252  0.4096
    5MOL   H196 1004   4.347   1.210   2.079  2.3574  0.4730  0.2332
    5MOL   H197 1005   4.451   1.068   2.105 -0.8054 -3.6158 -0.6957
    5MOL   H198 1006   4.257   1.115   1.870  0.0730 -1.4903 -1.7829
    5MOL   H199 1007   4.515   0.973   1.893 -1.1599  1.2565  3.4971
    5MOL   H200 1008   4.407   0.879   1.664  0.7198 -0.3330  0.3156
    5MOL   H201 1009   4.494   1.036   1.640 -0.5903 -0.9764 -1.3988
    5MOL   H202 1010   4.319   1.026   1.645  1.3326  0.8895 -1.3055
    6MOL     C1 1011   5.410   7.917   7.946  0.4629  0.0485  0.3760
    6MOL     C2 1012   5.360   0.074   7.897  0.2889 -0.4145 -0.5653
    6MOL     C3 1013   5.246   0.081   7.824 -1.1072 -0.3261  0.1442
    6MOL     C4 1014   5.199   0.209   7.771 -0.3638  0.8664 -0.2238
    6MOL     H5 1015   5.369   7.833   7.890  1.7835 -1.2335  1.3063
    6MOL     H6 1016   5.377   7.906   0.072  0.2852 -0.0169  0.3125
    6MOL     H7 1017   5.415   0.165   7.917 -0.6235  0.4233 -1.7896
    6MOL     H8 1018   5.185   7.974   7.793  0.0294 -0.6753 -1.2229
    6MOL     H9 1019   5.206   0.206   7.662  0.4900 -1.0988 -0.1222
    6MOL    H10 1020   5.260   0.294   7.801  1.7710 -0.9457  0.6986
    6MOL    H11 1021   5.519   7.916   7.952  0.4627 -0.4720  0.3040
    6MOL    C12 1022   5.051   0.238   7.824 -0.2750 -0.1010  0.1091
    6MOL    C13 1023   5.044   0.240   7.971 -0.2960  0.3581  0.1254
    6MOL    C14 1024   4.951   0.184   0.073  1.0084 -0.3458 -0.2025
    6MOL    C15 1025   4.953   0.168   0.224 -0.1190 -0.4268 -0.1693
    6MOL    H16 1026   5.024   0.336   7.785  1.4285  0.3568  0.0115
    6MOL    H17 1027   4.968   0.182   7.780 -1.1889 -1.3333  3.2596
    6MOL    H18 1028   5.128   0.291   0.041  0.4399 -0.4067 -0.3360
    6MOL    H19 1029   4.871   0.131   0.024  2.7078 -1.5072 -1.8057
    6MOL    H20 1030   5.011   0.244   0.276 -1.0308 -0.8893  1.5503
    6MOL    H21 1031   4.982   0.068   0.255  0.1361 -0.6806 -1.2051
    6MOL    C22 1032   4.810   0.175   0.278 -0.1359 -0.2859  0.0846
    6MOL    C23 1033   4.793   0.131   0.417 -0.0650 -0.5049 -1.0830
    6MOL    C24 1034   4.749   0.012   0.455 -0.5632 -0.5226  0.1276
    6MOL    C25 1035   4.743   7.935   0.596 -0.0624 -0.0719  0.0629
    6MOL    H26 1036   4.765   0.274   0.264  3.9565  1.7704  0.6529
    6MOL    H27 1037   4.746   0.116   0.213 -0.5789  0.7645 -0.4494
    6MOL    H28 1038   4.821   0.207   0.489 -0.0138 -0.7565 -0.8388
    6MOL    H29 1039   4.716   7.927   0.373  0.6073  1.9617 -2.2777
    6MOL    H30 1040   4.652   7.970   0.643 -1.3794 -1.6166 -1.2676
    6MOL    H31 1041   4.832   7.977   0.644 -1.2073  1.9386  0.4891
    6MOL    C32 1042   4.745   7.785   0.603  0.2086 -1.2324  0.2697
    6MOL    C33 1043   4.742   7.722   0.745 -0.5702 -0.0462 -0.1547
    6MOL    C34 1044   4.855   7.701   0.824  0.0600  0.3430  0.1244
    6MOL    C35 1045   4.867   7.654   0.963 -0.2671 -1.0771 -0.3283
    6MOL    H36 1046   4.647   7.750   0.570  0.1322 -0.5136 -0.2925
    6MOL    H37 1047   4.814   7.738   0.532 -0.0764 -1.0153 -0.1490
    6MOL    H38 1048   4.647   7.707   0.793  0.0741  1.4397  1.6216
    6MOL    H39 1049   4.955   7.712   0.785  0.3509 -1.7567  0.2126
    6MOL    H40 1050   4.940   7.711   1.022  1.7983 -2.0992 -1.8283
    6MOL    H41 1051   4.899   7.550   0.960  1.7884 -0.4998  0.4250
    6MOL    C42 1052   4.737   7.674   1.041  0.2655  0.1176 -0.2710
    6MOL    C43 1053   4.727   7.598   1.172  0.4091 -0.1683 -0.5441
    6MOL    C44 1054   4.721   7.667   1.289 -0.2090 -0.0558 -1.0275
    6MOL    C45 1055   4.703   7.604   1.425  0.0128  0.7140 -0.1130
    6MOL    H46 1056   4.731   7.779   1.069 -0.2275  0.2264 -0.7728
    6MOL    H47 1057   4.645   7.638   0.997 -0.0051 -1.7123  1.7151
    6MOL    H48 1058   4.730   7.491   1.155  1.6196 -0.3918  0.9871
    6MOL    H49 1059   4.718   7.775   1.287 -0.1447  0.0431  2.1422
    6MOL    H50 1060   4.607   7.638   1.463 -0.9518 -1.1010 -0.8765
    6MOL    H51 1061   4.777   7.647   1.494  0.2609 -1.2296  0.8785
    6MOL    C52 1062   4.713   7.448   1.415  0.2630  0.4552 -0.6917
    6MOL    C53 1063   4.702   7.406   1.561  0.7552 -0.6312 -0.7766
    6MOL    C54 1064   4.586   7.376   1.620 -0.2597 -0.2407 -0.1291
    6MOL    C55 1065   4.568   7.316   1.759 -0.4265  0.1449 -1.3574
    6MOL    H56 1066   4.637   7.389   1.364 -0.6920  1.1869 -0.1331
    6MOL    H57 1067   4.813   7.415   1.386 -0.7279 -2.8353 -0.5622
    6MOL    H58 1068   4.789   7.401   1.625  0.6127  0.4325 -0.4941
    6MOL    H59 1069   4.502   7.386   1.553  2.4046 -0.6879 -3.7186
    6MOL    H60 1070   4.665   7.289   1.799 -0.7713 -0.0208 -0.6160
    6MOL    H61 1071   4.506   7.226   1.750  1.4046 -1.3860  0.9035
    6MOL    C62 1072   4.504   7.417   1.859 -0.3145  0.0744  0.3544
    6MOL    C63 1073   4.482   7.353   1.994  0.3546 -0.1631  0.0522
    6MOL    C64 1074   4.368   7.336   2.055  0.2668  0.1731 -0.7662
    6MOL    C65 1075   4.334   7.300   2.202 -0.4335  0.1685 -0.0259
    6MOL    H66 1076   4.561   7.509   1.864  1.9839 -1.3037  0.4449
    6MOL    H67 1077   4.410   7.457   1.821 -0.3460  0.6871  1.0755
    6MOL    H68 1078   4.573   7.327   2.047  1.0238 -0.0108 -1.0062
    6MOL    H69 1079   4.274   7.346   2.003 -0.0297 -1.4983 -0.6018
    6MOL    H70 1080   4.428   7.290   2.257 -0.9191  0.2526  0.8368
    6MOL    H71 1081   4.282   7.204   2.195  0.0490 -0.2396  1.6441
    6MOL    C72 1082   4.246   7.406   2.269  0.5310  0.6114 -0.0935
    6MOL    C73 1083   4.217   7.364   2.418  0.4305 -0.8063  0.3269
    6MOL    C74 1084   4.279   7.405   2.534 -0.3023 -0.3090  0.0253
    6MOL    C75 1085   4.241   7.363   2.670  0.6246 -0.4116 -0.3478
    6MOL    H76 1086   4.286   7.507   2.281  1.3850  0.1619  1.0367
    6MOL    H77 1087   4.151   7.417   2.217  1.1155  1.7582 -0.9440
    6MOL    H78 1088   4.135   7.297   2.438 -0.2174 -0.5659 -1.4427
    6MOL    H79 1089   4.351   7.485   2.527 -0.3117 -0.4401 -1.6531
    6MOL    H80 1090   4.165   7.285   2.668 -0.8321  1.0090 -2.0186
    6MOL    H81 1091   4.203   7.448   2.726  3.0644  0.0775  0.5918
    6MOL    C82 1092   4.366   7.303   2.734 -0.3511  0.6059  0.3215
    6MOL    C83 1093   4.333   7.252   2.869 -0.2366  0.3318 -0.6349
    6MOL    C84 1094   4.392   7.287   2.983  0.6116  0.3956  0.4305
    6MOL    C85 1095   4.367   7.231   3.124 -0.6960 -0.1721  0.0168
    6MOL    H86 1096   4.413   7.227   2.671  0.5590  0.6127  0.9839
    6MOL    H87 1097   4.445   7.376   2.747  1.9592 -1.4876 -1.4948
    6MOL    H88 1098   4.248   7.185   2.875 -0.2056  0.3202 -0.3102
    6MOL    H89 1099   4.480   7.349   2.981  1.5767 -0.9720 -1.8998
    6MOL    H90 1100   4.466   7.194   3.152  0.9720  2.1044 -2.6103
    6MOL    H91 1101   4.295   7.151   3.113 -0.5529 -0.2019 -0.7440
    6MOL    C92 1102   4.310   7.331   3.220 -0.0401 -0.7647 -0.2733
    6MOL    C93 1103   4.279   7.260   3.351 -0.2996 -0.2772 -0.0232
    6MOL    C94 1104   4.158   7.249   3.400 -0.0910  0.8035  0.2680
    6MOL    C95 1105   4.120   7.158   3.505  0.2207  0.2721 -0.2569
    6MOL    H96 1106   4.383   7.408   3.245 -0.5032 -0.1527 -0.7734
    6MOL    H97 1107   4.222   7.378   3.175 -0.3582  0.3925  1.4934
    6MOL    H98 1108   4.368   7.209   3.384  1.0215  1.4522 -0.8299
    6MOL    H99 1109   4.083   7.306   3.348  0.4227  0.7779 -0.4935
    6MOL   H100 1110   4.185   7.073   3.526 -1.1838  0.0049  3.4099
    6MOL   H101 1111   4.028   7.115   3.466  0.0622  0.9652 -0.6498
    6MOL   C102 1112   4.101   7.239   3.640  0.0394  0.4553 -0.4028
    6MOL   C103 1113   4.053   7.158   3.763  0.1756  0.0564  0.2010
    6MOL   C104 1114   4.127   7.134   3.876 -0.1738 -1.4247 -0.1667
    6MOL   C105 1115   4.082   7.045   3.987 -0.2436  0.3979  0.3190
    6MOL   H106 1116   4.193   7.282   3.678  2.3244 -2.3187 -2.5155
    6MOL   H107 1117   4.025   7.315   3.623 -0.2429  0.5347  1.1567
    6MOL   H108 1118   3.950   7.129   3.748  0.2128  0.4285 -0.8818
    6MOL   H109 1119   4.230   7.168   3.874 -0.2805 -1.1164 -0.6008
    6MOL   H110 1120   3.995   6.987   3.956  0.3663 -0.0519 -0.5766
    6MOL   H111 1121   4.062   7.119   4.064 -0.1829  0.0116  0.7082
    6MOL   C112 1122   4.190   6.943   4.023 -0.8218  0.7252 -0.2142
    6MOL   C113 1123   4.169   6.877   4.155  0.2523  0.1514 -0.5023
    6MOL   C114 1124   4.142   6.744   4.165  0.3585  0.1332 -0.3953
    6MOL   C115 1125   4.124   6.661   4.292 -0.4324  0.4505  0.3913
    6MOL   H116 1126   4.199   6.873   3.939  0.5475  0.5214  0.0919
    6MOL   H117 1127   4.285   6.993   4.042 -0.1417 -1.4464  2.3589
    6MOL   H118 1128   4.196   6.935   4.242  0.8249  2.5929 -2.2514
    6MOL   H119 1129   4.135   6.683   4.076  2.7563 -2.3827  1.0539
    6MOL   H120 1130   4.023   6.620   4.299  0.5387 -2.1220 -0.5084
    6MOL   H121 1131   4.146   6.722   4.380  1.0195  1.6578 -0.7825
    6MOL   C122 1132   4.229   6.548   4.292  0.7895 -0.5379 -0.0891
    6MOL   C123 1133   4.270   6.495   4.430 -0.4553  0.0608 -0.0602
    6MOL   C124 1134   4.272   6.359   4.453 -0.1686 -0.2107  0.4940
    6MOL   C125 1135   4.338   6.306   4.578 -0.2969 -0.1065 -0.1860
    6MOL   H126 1136   4.193   6.474   4.221 -0.7077  0.2498 -0.1615
    6MOL   H127 1137   4.322   6.585   4.249 -0.2406 -1.5366 -3.2925
    6MOL   H128 1138   4.287   6.558   4.516 -1.2246 -0.7195  0.6819
    6MOL   H129 1139   4.255   6.296   4.367 -1.3810  0.4426  0.2472
    6MOL   H130 1140   4.375   6.393   4.634  2.6072 -0.5174 -1.3559
    6MOL   H131 1141   4.422   6.240   4.555  0.3908 -0.2733  2.6296
    6MOL   C132 1142   4.232   6.245   4.682  1.0015 -0.1827 -0.1921
    6MOL   C133 1143   4.294   6.203   4.811  0.0367  0.8635 -0.4357
    6MOL   C134 1144   4.270   6.086   4.876 -0.2375  0.4882  0.5197
    6MOL   C135 1145   4.349   6.046   4.994 -0.7315  0.1683  0.7655
    6MOL   H136 1146   4.163   6.328   4.697  0.2182 -0.5476 -1.6591
    6MOL   H137 1147   4.181   6.164   4.631  0.8391 -0.7521  0.8593
    6MOL   H138 1148   4.355   6.275   4.863 -0.9874  1.0928  0.4584
    6MOL   H139 1149   4.201   6.016   4.831  1.5185 -0.8692 -0.1494
    6MOL   H140 1150   4.276   6.031   5.074  1.0082 -0.8728  2.2012
    6MOL   H141 1151   4.412   6.126   5.032 -1.2525  0.8456  0.2138
    6MOL   C142 1152   4.415   5.908   4.981  0.1385  0.3740 -0.1550
    6MOL   C143 1153   4.518   5.891   4.868 -0.1388 -0.0460 -0.5648
    6MOL   C144 1154   4.508   5.780   4.791  0.3824 -0.6002 -0.3046
    6MOL   C145 1155   4.601   5.745   4.667  0.1246 -0.2655 -0.1586
    6MOL   H146 1156   4.472   5.883   5.070 -2.6617 -2.2276  1.0116
    6MOL   H147 1157   4.340   5.829   4.975 -0.0876  0.4331  1.5769
    6MOL   H148 1158   4.599   5.961   4.847 -0.7119  0.7836 -0.0666
    6MOL   H149 1159   4.442   5.700   4.822  0.6286  0.9381  4.6835
    6MOL   H150 1160   4.661   5.656   4.689 -1.4886 -0.9018  1.8360
    6MOL   H151 1161   4.674   5.823   4.650 -0.7665  0.7526  0.6084
    6MOL   C152 1162   4.517   5.725   4.537 -0.4298 -0.3262  0.0465
    6MOL   C153 1163   4.478   5.864   4.483  0.0648  0.4083  0.9195
    6MOL   C154 1164   4.355   5.886   4.427  0.8797  0.5817  0.0137
    6MOL   C155 1165   4.305   6.011   4.363 -0.3669  0.5429  0.1075
    6MOL   H156 1166   4.561   5.667   4.456 -1.6602 -2.2244  0.7054
    6MOL   H157 1167   4.426   5.670   4.559 -0.5481 -0.4718 -0.7734
    6MOL   H158 1168   4.554   5.940   4.473  0.7238 -0.1452  1.6129
    6MOL   H159 1169   4.283   5.805   4.431  2.0214 -0.3612  2.1035
    6MOL   H160 1170   4.390   6.076   4.347 -0.0715 -0.1801 -1.3506
    6MOL   H161 1171   4.238   6.056   4.437 -2.2173 -0.6232 -0.7998
    6MOL   C162 1172   4.233   5.985   4.227  0.9483 -0.2711 -0.5300
    6MOL   C163 1173   4.160   6.107   4.187 -0.1794  0.1138 -0.0416
    6MOL   C164 1174   4.149   6.140   4.053  0.1752 -0.8528 -0.1966
    6MOL   C165 1175   4.084   6.265   4.007  0.2492  1.1379 -0.7169
    6MOL   H166 1176   4.301   5.953   4.148  2.3060  0.4036  0.3332
    6MOL   H167 1177   4.162   5.906   4.249 -0.4413  0.7432 -1.2724
    6MOL   H168 1178   4.111   6.170   4.259 -0.3644 -0.4228  0.3046
    6MOL   H169 1179   4.179   6.079   3.969 -0.8454  1.1753 -2.0939
    6MOL   H170 1180   4.137   6.287   3.913  2.0970 -0.1398  0.0028
    6MOL   H171 1181   4.100   6.343   4.082 -1.0181  0.3376  0.3891
    6MOL   C172 1182   3.934   6.262   3.976 -0.2385 -0.1376 -0.6797
    6MOL   C173 1183   3.885   6.385   3.900  0.1335  0.7246 -0.1452
    6MOL   C174 1184   3.792   6.466   3.954 -0.2559  1.0341 -0.3138
    6MOL   C175 1185   3.739   6.590   3.884  0.1556 -0.4107  0.0848
    6MOL   H176 1186   3.914   6.172   3.918  1.7170 -1.6825  0.9470
    6MOL   H177 1187   3.882   6.255   4.072  0.5356 -0.0654 -0.2491
    6MOL   H178 1188   3.939   6.412   3.810  3.0726  3.5267  2.3439
    6MOL   H179 1189   3.740   6.442   4.045  1.2991 -0.9699  0.0925
    6MOL   H180 1190   3.631   6.591   3.868  0.0760 -0.5152  0.6347
    6MOL   H181 1191   3.778   6.599   3.782 -0.5574  0.8053 -0.1018
    6MOL   C182 1192   3.776   6.725   3.959 -0.0455 -0.3681 -0.1101
    6MOL   C183 1193   3.733   6.853   3.889  0.0901 -0.4374  0.3453
    6MOL   C184 1194   3.707   6.972   3.952 -0.0417 -0.2644  0.5569
    6MOL   C185 1195   3.682   7.111   3.893 -0.3147  0.4057 -0.2163
    6MOL   H186 1196   3.710   6.729   4.045 -0.4756 -0.0541 -0.4500
    6MOL   H187 1197   3.882   6.726   3.985 -0.1361 -2.2470  0.3976
    6MOL   H188 1198   3.743   6.838   3.782  2.2205 -0.4736  0.5396
    6MOL   H189 1199   3.706   6.980   4.060 -0.4742 -0.0379  0.5335
    6MOL   H190 1200   3.669   7.103   3.785 -0.1369  0.1801 -0.2204
    6MOL   H191 1201   3.771   7.173   3.910  0.5501 -0.7643 -0.4182
    6MOL   C192 1202   3.556   7.179   3.952  0.5779  0.2579  0.0335
    6MOL   C193 1203   3.504   7.300   3.872  0.3702 -0.4631  0.3648
    6MOL   C194 1204   3.497   7.423   3.920  0.3870 -0.7694 -0.5322
    6MOL   C195 1205   3.442   7.544   3.843  0.0738  0.1237 -0.2056
    6MOL   H196 1206   3.469   7.114   3.951  0.3687  0.5275 -3.2817
    6MOL   H197 1207   3.576   7.215   4.053  0.5236  0.8502 -0.1673
    6MOL   H198 1208   3.469   7.289   3.771 -1.4471 -0.7573  1.0214
    6MOL   H199 1209   3.528   7.425   4.023  1.1330 -1.1387 -0.7494
    6MOL   H200 1210   3.405   7.517   3.744  0.8536  0.2783 -0.5364
    6MOL   H201 1211   3.525   7.613   3.830 -0.9800  1.2271 -1.3000
    6MOL   H202 1212   3.362   7.583   3.906 -0.2987  0.7436 -1.0539
    7MOL     C1 1213   3.825   7.232   4.280  0.2995  0.0525 -0.2416
    7MOL     C2 1214   3.867   7.090   4.332  0.4519  0.1269 -0.6522
    7MOL     C3 1215   3.816   7.023   4.433 -0.6918  0.0494 -1.0541
    7MOL     C4 1216   3.873   6.899   4.496 -0.2242  0.4093 -0.3669
    7MOL     H5 1217   3.903   7.305   4.255  1.1249 -1.5433 -2.4549
    7MOL     H6 1218   3.761   7.263   4.362  0.5019  1.1910 -0.5020
    7MOL     H7 1219   3.948   7.049   4.274 -0.9208 -0.5022 -2.1640
    7MOL     H8 1220   3.742   7.068   4.498  0.5263 -0.3280  0.6521
    7MOL     H9 1221   3.970   6.882   4.449 -1.0139 -1.4243 -1.4011
    7MOL    H10 1222   3.805   6.817   4.475 -0.8293  0.7794  0.1496
    7MOL    H11 1223   3.774   7.221   4.185 -1.8440 -0.9789  0.9885
    7MOL    C12 1224   3.902   6.920   4.644  0.4952  0.4616 -0.3853
    7MOL    C13 1225   3.992   6.809   4.712 -0.3614  0.3300 -0.0855
    7MOL    C14 1226   3.943   6.730   4.810  0.2221 -0.4559  0.8761
    7MOL    C15 1227   4.005   6.605   4.861  0.5665  0.2504 -0.0656
    7MOL    H16 1228   3.957   7.013   4.654  0.4260  0.6468 -1.6344
    7MOL    H17 1229   3.807   6.928   4.697  0.0804  0.9429 -1.1916
    7MOL    H18 1230   4.089   6.790   4.668 -0.9534 -0.6142 -1.0032
    7MOL    H19 1231   3.844   6.753   4.848 -0.8604  0.7134 -2.4013
    7MOL    H20 1232   4.042   6.645   4.956  2.8725  1.1203 -1.3060
    7MOL    H21 1233   4.097   6.580   4.810 -0.3184 -1.2788 -0.9482
    7MOL    C22 1234   3.909   6.482   4.864  0.1005  0.4811  0.0254
    7MOL    C23 1235   3.783   6.507   4.948  0.6093  0.2171  0.9278
    7MOL    C24 1236   3.746   6.423   5.044 -0.4703  0.1146  0.0185
    7MOL    C25 1237   3.633   6.464   5.140  0.3152 -0.4675  0.5449
    7MOL    H26 1238   3.881   6.451   4.763 -1.7112  2.0954 -0.0004
    7MOL    H27 1239   3.965   6.399   4.906 -1.8943 -0.7109  0.4233
    7MOL    H28 1240   3.735   6.604   4.942  1.3531  0.4897 -0.9703
    7MOL    H29 1241   3.793   6.326   5.051 -3.6454 -1.5175 -0.4890
    7MOL    H30 1242   3.668   6.541   5.209  0.2467  1.6438 -1.6962
    7MOL    H31 1243   3.592   6.381   5.198  0.7253 -0.0304  1.4820
    7MOL    C32 1244   3.512   6.530   5.080 -0.7726  0.5104  0.5309
    7MOL    C33 1245   3.397   6.522   5.172  0.0567 -0.5291  0.3064
    7MOL    C34 1246   3.270   6.498   5.122  0.0606 -0.5115 -0.0690
    7MOL    C35 1247   3.147   6.481   5.200  0.0749 -0.2083 -0.3537
    7MOL    H36 1248   3.540   6.633   5.055  0.4650  0.4414  1.5706
    7MOL    H37 1249   3.489   6.482   4.985 -1.8986  1.8348  0.1223
    7MOL    H38 1250   3.417   6.540   5.277 -0.5512 -0.7624  0.4649
    7MOL    H39 1251   3.253   6.488   5.016 -0.1547 -1.3113  0.0425
    7MOL    H40 1252   3.112   6.381   5.173 -0.3053  0.0028 -0.6454
    7MOL    H41 1253   3.060   6.540   5.171  0.0301  0.5870  1.3292
    7MOL    C42 1254   3.163   6.487   5.355 -0.0011 -0.5033  0.6406
    7MOL    C43 1255   3.044   6.456   5.445 -0.4889 -0.4376 -0.1278
    7MOL    C44 1256   3.010   6.545   5.543  0.2001 -0.6248  0.2914
    7MOL    C45 1257   2.892   6.526   5.640 -0.1880  0.7164 -0.5708
    7MOL    H46 1258   3.245   6.419   5.379 -1.2594 -1.8481  1.2611
    7MOL    H47 1259   3.197   6.589   5.369 -1.1411  0.1617 -1.2785
    7MOL    H48 1260   2.993   6.362   5.429  0.7434 -1.8876  3.7983
    7MOL    H49 1261   3.082   6.626   5.554  1.2718 -1.5438  0.1617
    7MOL    H50 1262   2.943   6.520   5.736  0.3467  0.9007 -0.8371
    7MOL    H51 1263   2.838   6.436   5.612 -0.2730 -0.0141  1.8265
    7MOL    C52 1264   2.796   6.643   5.642  0.8700 -0.1657 -0.2206
    7MOL    C53 1265   2.670   6.611   5.719  0.1611 -0.4819 -0.4497
    7MOL    C54 1266   2.641   6.642   5.848 -0.1728 -0.6860 -0.3300
    7MOL    C55 1267   2.520   6.602   5.929 -0.2590  0.7414 -0.0043
    7MOL    H56 1268   2.826   6.736   5.691 -1.2334  0.4569 -0.0660
    7MOL    H57 1269   2.760   6.670   5.543  0.0783  0.8086  0.3118
    7MOL    H58 1270   2.607   6.544   5.663  2.6937 -2.0511 -1.5611
    7MOL    H59 1271   2.716   6.694   5.907 -0.3819 -1.2744  0.4738
    7MOL    H60 1272   2.442   6.559   5.866 -0.7206  1.1548  0.2858
    7MOL    H61 1273   2.472   6.686   5.978 -1.0864  1.4540 -1.9827
    7MOL    C62 1274   2.558   6.506   6.046 -0.4577  0.0639  0.1508
    7MOL    C63 1275   2.452   6.488   6.149  0.4900  0.0635  0.0702
    7MOL    C64 1276   2.404   6.367   6.181  0.4068 -0.0226 -0.4413
    7MOL    C65 1277   2.295   6.344   6.289 -0.0422  0.8966  0.1290
    7MOL    H66 1278   2.579   6.404   6.016  1.2720  0.2959  0.5511
    7MOL    H67 1279   2.635   6.548   6.111 -0.9830 -2.2866  2.3443
    7MOL    H68 1280   2.432   6.581   6.200  0.8785  0.0699  0.2111
    7MOL    H69 1281   2.428   6.277   6.126  0.2024  1.0602 -2.3232
    7MOL    H70 1282   2.263   6.439   6.332 -0.5696  0.3023  1.0802
    7MOL    H71 1283   2.320   6.277   6.371 -0.6970 -0.6753 -0.9293
    7MOL    C72 1284   2.175   6.261   6.230  0.0598 -0.4576  0.5104
    7MOL    C73 1285   2.049   6.263   6.320  0.8007  0.0493  0.5080
    7MOL    C74 1286   1.934   6.197   6.298  0.6894  0.2569  0.2582
    7MOL    C75 1287   1.806   6.201   6.389 -1.1472  0.7053  0.5514
    7MOL    H76 1288   2.136   6.309   6.141 -0.9902 -1.3546  0.4564
    7MOL    H77 1289   2.195   6.163   6.186  2.2518 -0.2339  0.9596
    7MOL    H78 1290   2.040   6.347   6.387  1.9743 -0.2441  1.0505
    7MOL    H79 1291   1.938   6.122   6.221  0.2309  1.2111 -0.7081
    7MOL    H80 1292   1.814   6.245   6.488  0.4024  1.4829  0.1077
    7MOL    H81 1293   1.774   6.099   6.410 -0.5886  0.1736 -1.0711
    7MOL    C82 1294   1.684   6.256   6.318 -0.1503  0.5967 -0.7866
    7MOL    C83 1295   1.687   6.406   6.287 -0.4931  0.3564 -0.1002
    7MOL    C84 1296   1.706   6.460   6.161  0.7144  0.4716  0.8178
    7MOL    C85 1297   1.716   6.609   6.135 -0.1187  0.3298  0.6098
    7MOL    H86 1298   1.643   6.199   6.235  0.2651 -2.7065  1.1602
    7MOL    H87 1299   1.601   6.251   6.390  1.4016  0.3532  1.0300
    7MOL    H88 1300   1.679   6.472   6.372 -0.4017  0.3031 -0.0500
    7MOL    H89 1301   1.716   6.395   6.075 -2.2512 -1.3712  1.7654
    7MOL    H90 1302   1.645   6.663   6.198 -1.3255  1.3699 -1.5850
    7MOL    H91 1303   1.687   6.646   6.037  0.9624 -0.1378  0.1162
    7MOL    C92 1304   1.851   6.673   6.160 -0.0495 -0.3060  0.1162
    7MOL    C93 1305   1.963   6.621   6.070 -0.8407 -0.4491  0.3362
    7MOL    C94 1306   2.045   6.681   5.981 -1.2322 -0.1070 -0.1020
    7MOL    C95 1307   2.142   6.615   5.880  0.2822  0.0299 -1.3175
    7MOL    H96 1308   1.843   6.782   6.156  1.2423 -0.2182 -0.2107
    7MOL    H97 1309   1.885   6.672   6.263  0.0775  1.4815  0.1158
    7MOL    H98 1310   1.969   6.513   6.070  0.3623 -0.3913 -0.0959
    7MOL    H99 1311   2.042   6.788   5.971  0.4115 -0.1932 -1.7712
    7MOL   H100 1312   2.175   6.519   5.920  0.5669  0.0434 -1.5195
    7MOL   H101 1313   2.234   6.674   5.886  0.4511 -0.3294 -0.1150
    7MOL   C102 1314   2.097   6.605   5.734  0.3066  0.0236  0.6829
    7MOL   C103 1315   2.204   6.532   5.649 -0.5631 -0.1630  0.2305
    7MOL   C104 1316   2.175   6.459   5.537 -0.0631 -0.6897 -0.2495
    7MOL   C105 1317   2.283   6.388   5.464 -0.4331  0.0632  0.2810
    7MOL   H106 1318   2.002   6.551   5.730  0.2801  0.0739  0.6308
    7MOL   H107 1319   2.087   6.704   5.691 -1.8839 -0.1927  0.6289
    7MOL   H108 1320   2.305   6.551   5.681 -0.3884  1.5430 -1.2731
    7MOL   H109 1321   2.076   6.448   5.496 -0.5377 -0.2620  0.7826
    7MOL   H110 1322   2.248   6.285   5.473 -2.4291  0.8851  2.2374
    7MOL   H111 1323   2.379   6.390   5.516 -1.5280 -2.7658  2.5635
    7MOL   C112 1324   2.299   6.428   5.318  0.6204 -0.0476  0.0081
    7MOL   C113 1325   2.320   6.576   5.295 -0.0577  0.5236 -0.1089
    7MOL   C114 1326   2.212   6.658   5.277  0.6375 -0.1755  0.4335
    7MOL   C115 1327   2.207   6.803   5.236 -0.1001 -0.2455 -0.2455
    7MOL   H116 1328   2.382   6.375   5.273 -0.1705 -0.7336 -0.6622
    7MOL   H117 1329   2.215   6.379   5.268  1.1343 -1.9420  0.9669
    7MOL   H118 1330   2.418   6.618   5.313  1.2913 -1.7660 -1.7234
    7MOL   H119 1331   2.120   6.601   5.276 -0.8248  2.1068 -1.4134
    7MOL   H120 1332   2.117   6.841   5.284  0.5469 -1.4699  1.9740
    7MOL   H121 1333   2.182   6.813   5.130  0.2059 -0.2713 -0.3207
    7MOL   C122 1334   2.328   6.879   5.288 -0.2781 -0.1858 -0.0186
    7MOL   C123 1335   2.303   7.029   5.295 -0.4174  0.2901 -0.3522
    7MOL   C124 1336   2.391   7.114   5.344  0.6212 -0.3071  0.2880
    7MOL   C125 1337   2.371   7.263   5.352  0.1630 -0.0242  0.4096
    7MOL   H126 1338   2.358   6.845   5.387  0.1994 -4.9141 -1.6647
    7MOL   H127 1339   2.414   6.868   5.222 -1.1835  1.6272 -1.5732
    7MOL   H128 1340   2.202   7.055   5.267 -0.9367 -1.1894  0.1132
    7MOL   H129 1341   2.488   7.081   5.378 -0.0008 -2.9193 -0.3996
    7MOL   H130 1342   2.276   7.297   5.310  0.6417 -0.2208 -0.8424
    7MOL   H131 1343   2.438   7.317   5.285 -0.8407  0.1352 -0.4688
    7MOL   C132 1344   2.395   7.325   5.494 -0.2069 -0.5525 -0.1381
    7MOL   C133 1345   2.356   7.470   5.495  0.0799 -0.0764  0.3397
    7MOL   C134 1346   2.441   7.568   5.523 -0.6424 -0.3093  0.0645
    7MOL   C135 1347   2.425   7.719   5.509 -0.0658  0.1525 -0.4891
    7MOL   H136 1348   2.331   7.273   5.566  0.2448 -3.1839 -1.5728
    7MOL   H137 1349   2.498   7.305   5.523  0.7567  3.2069 -0.6784
    7MOL   H138 1350   2.258   7.492   5.454  0.2670  0.3998  0.1489
    7MOL   H139 1351   2.540   7.533   5.547 -0.0100  0.5974 -1.1963
    7MOL   H140 1352   2.331   7.747   5.462 -0.0232 -1.9829 -1.8971
    7MOL   H141 1353   2.497   7.748   5.432  1.1254  0.6933  0.7949
    7MOL   C142 1354   2.447   7.806   5.638  0.2049  0.2419  0.4511
    7MOL   C143 1355   2.420   7.957   5.620 -0.7640  0.0328  0.3178
    7MOL   C144 1356   2.485   0.091   5.658  0.5997  1.0160  0.7788
    7MOL   C145 1357   2.444   0.233   5.614  0.4872  0.5850 -0.5822
    7MOL   H146 1358   2.390   7.774   5.724 -0.0922 -0.6919 -0.0888
    7MOL   H147 1359   2.550   7.781   5.662  0.3348 -1.6774 -1.9178
    7MOL   H148 1360   2.328   0.011   5.572 -0.4796 -0.0081 -0.2525
    7MOL   H149 1361   2.578   0.085   5.713  0.6873 -0.2917  0.4911
    7MOL   H150 1362   2.347   0.231   5.564  0.3544 -1.2371 -0.2922
    7MOL   H151 1363   2.506   0.257   5.528 -0.2834 -0.2522 -1.3844
    7MOL   C152 1364   2.455   0.336   5.726  0.2366 -0.6672  0.6122
    7MOL   C153 1365   2.402   0.474   5.694  0.2076 -0.2031  0.2628
    7MOL   C154 1366   2.300   0.535   5.751  0.6613 -0.7924  0.0318
    7MOL   C155 1367   2.241   0.681   5.728  0.0723  0.1850 -0.1782
    7MOL   H156 1368   2.406   0.286   5.809 -0.6108 -0.2567  0.3739
    7MOL   H157 1369   2.561   0.356   5.743  0.1431  1.3602 -0.9256
    7MOL   H158 1370   2.453   0.544   5.631 -0.2494  2.1718  2.4410
    7MOL   H159 1371   2.231   0.485   5.818 -0.9037  1.8284  0.4729
    7MOL   H160 1372   2.137   0.666   5.700  0.0799 -3.2960  1.3685
    7MOL   H161 1373   2.277   0.738   5.642  0.2447  0.6230  0.1842
    7MOL   C162 1374   2.244   0.770   5.852  0.0107 -0.0593 -0.2808
    7MOL   C163 1375   2.109   0.780   5.919  0.8993  0.1892  0.0244
    7MOL   C164 1376   2.086   0.705   6.024 -0.2950  0.6715 -0.8448
    7MOL   C165 1377   1.951   0.687   6.093  0.6162 -0.0586 -0.1606
    7MOL   H166 1378   2.320   0.741   5.924 -1.0424  2.1731  1.7785
    7MOL   H167 1379   2.276   0.870   5.821  0.5146  0.5812  2.1873
    7MOL   H168 1380   2.025   0.833   5.875  0.1694 -1.0993 -0.1505
    7MOL   H169 1381   2.166   0.644   6.066 -1.3565 -1.4226 -1.7702
    7MOL   H170 1382   1.891   0.752   6.030  1.3409 -0.0906 -0.8979
    7MOL   H171 1383   1.955   0.732   6.192  0.2830  0.2912 -0.3064
    7MOL   C172 1384   1.906   0.533   6.086  0.5865 -0.4340  1.2447
    7MOL   C173 1385   1.999   0.442   6.173  0.0722 -0.4901 -0.2373
    7MOL   C174 1386   2.047   0.320   6.138  0.4504  0.2593  0.2302
    7MOL   C175 1387   2.116   0.220   6.226  0.2825  0.2913 -0.5121
    7MOL   H176 1388   1.807   0.504   6.122  0.0782  0.7935  0.8527
    7MOL   H177 1389   1.911   0.504   5.981  1.8806  0.7279  0.9837
    7MOL   H178 1390   2.021   0.475   6.273 -1.0203 -2.7640  0.7760
    7MOL   H179 1391   2.032   0.289   6.036  1.2858 -1.8009  0.7170
    7MOL   H180 1392   2.214   0.203   6.182 -0.0702  0.2271 -1.2952
    7MOL   H181 1393   2.062   0.125   6.217 -0.8122  0.8528  0.0447
    7MOL   C182 1394   2.131   0.250   6.375  0.5797 -0.1955 -0.2670
    7MOL   C183 1395   2.253   0.320   6.407 -0.7735  0.2456  0.8998
    7MOL   C184 1396   2.342   0.266   6.490 -0.3443 -1.1238  0.2511
    7MOL   C185 1397   2.470   0.341   6.523  0.1365 -0.5181 -0.0233
    7MOL   H186 1398   2.050   0.307   6.421  2.5497  2.9591 -0.5308
    7MOL   H187 1399   2.126   0.154   6.426  1.6667 -1.3991 -2.3241
    7MOL   H188 1400   2.266   0.422   6.372  1.5140 -1.1089 -2.3534
    7MOL   H189 1401   2.326   0.168   6.533  0.9266 -1.3269  0.2721
    7MOL   H190 1402   2.463   0.443   6.485 -0.8843 -0.6566 -0.2364
    7MOL   H191 1403   2.558   0.290   6.484 -0.6566 -2.1710  0.2899
    7MOL   C192 1404   2.481   0.357   6.670 -0.5389  0.2473 -0.6693
    7MOL   C193 1405   2.623   0.410   6.701  0.0355  0.0152  0.4066
    7MOL   C194 1406   2.640   0.530   6.764  0.3741 -0.0486  0.1000
    7MOL   C195 1407   2.778   0.592   6.800 -0.0213  0.3356  0.6612
    7MOL   H196 1408   2.403   0.427   6.698 -0.6306  0.0925 -0.5343
    7MOL   H197 1409   2.456   0.265   6.724  2.0218 -0.4062 -0.5050
    7MOL   H198 1410   2.712   0.352   6.682  0.7696  0.4722  2.3567
    7MOL   H199 1411   2.559   0.597   6.784  1.5705  1.5507 -0.3208
    7MOL   H200 1412   2.787   0.580   6.908 -2.1286  2.6735  1.1499
    7MOL   H201 1413   2.770   0.698   6.775 -1.4571  0.1066  0.1371
    7MOL   H202 1414   2.859   0.533   6.756  0.0848  0.1960  1.0368
    8MOL     C1 1415   0.954   1.039   5.913  0.4292  0.2035 -0.2162
    8MOL     C2 1416   1.004   0.901   5.881  0.2773  0.2522 -0.1981
    8MOL     C3 1417   1.127   0.851   5.868  0.1625 -0.3862  0.7767
    8MOL     C4 1418   1.165   0.711   5.824 -1.0033 -0.0456 -1.1182
    8MOL     H5 1419   1.044   1.100   5.927  1.2389 -1.4205  1.9349
    8MOL     H6 1420   0.886   1.041   5.998  1.4882 -0.2261  0.6602
    8MOL     H7 1421   0.926   0.830   5.855  0.9874 -0.9405  0.8813
    8MOL     H8 1422   1.210   0.919   5.871 -0.3543  0.3547 -1.1187
    8MOL     H9 1423   1.110   0.642   5.887  0.7636 -1.1971 -0.7833
    8MOL    H10 1424   1.263   0.690   5.868 -1.1656  0.1382 -0.6684
    8MOL    H11 1425   0.898   1.077   5.828 -1.6351 -0.5569  0.7559
    8MOL    C12 1426   1.149   0.696   5.670  0.0269 -0.1997 -1.1350
    8MOL    C13 1427   1.181   0.559   5.624 -0.3905 -0.0435  0.0882
    8MOL    C14 1428   1.294   0.520   5.571 -0.5913  0.1112  0.1998
    8MOL    C15 1429   1.307   0.376   5.515 -0.4118  0.1507  0.2741
    8MOL    H16 1430   1.047   0.716   5.637 -0.0305 -2.8194 -2.6548
    8MOL    H17 1431   1.219   0.773   5.636  0.6036 -0.1240  0.1804
    8MOL    H18 1432   1.101   0.486   5.625  0.4604 -0.9944 -0.6947
    8MOL    H19 1433   1.374   0.592   5.567 -0.3248 -0.0791  1.7857
    8MOL    H20 1434   1.354   0.395   5.418 -3.5756 -0.6548 -1.4700
    8MOL    H21 1435   1.206   0.342   5.496 -1.0940  2.6122 -0.8093
    8MOL    C22 1436   1.400   0.295   5.619 -0.0616  0.1132  0.2541
    8MOL    C23 1437   1.430   0.153   5.580 -0.1257 -0.5529 -0.0768
    8MOL    C24 1438   1.542   0.113   5.521 -0.6797  0.0999 -0.0844
    8MOL    C25 1439   1.571   7.947   5.478  0.4824 -0.0312 -0.1336
    8MOL    H26 1440   1.486   0.363   5.620 -1.0235  1.4105 -1.0974
    8MOL    H27 1441   1.353   0.300   5.717  1.7679  0.5196  1.1370
    8MOL    H28 1442   1.347   0.092   5.614 -0.2970  1.0844  2.6279
    8MOL    H29 1443   1.623   0.184   5.507  0.0542 -1.1166 -2.1789
    8MOL    H30 1444   1.597   7.948   5.373 -1.0442  0.8754 -0.5209
    8MOL    H31 1445   1.473   7.901   5.486  0.0660  0.7341 -0.7962
    8MOL    C32 1446   1.673   7.870   5.570  0.2222  0.5208  0.0756
    8MOL    C33 1447   1.706   7.733   5.528  0.2554  0.2005 -0.3301
    8MOL    C34 1448   1.835   7.691   5.506  0.0749 -0.3861  0.6241
    8MOL    C35 1449   1.871   7.546   5.487  0.0647 -0.7820  0.3750
    8MOL    H36 1450   1.764   7.930   5.567  2.0358 -2.1816 -0.7383
    8MOL    H37 1451   1.638   7.856   5.673  0.9248 -1.6528  0.0377
    8MOL    H38 1452   1.621   7.667   5.535  1.0355 -0.9480 -1.2871
    8MOL    H39 1453   1.917   7.760   5.513 -0.0115 -0.4233  2.1162
    8MOL    H40 1454   1.899   7.534   5.382 -1.1270 -0.4247  0.0099
    8MOL    H41 1455   1.787   7.477   5.500 -0.4264 -0.5812 -1.5829
    8MOL    C42 1456   1.980   7.512   5.590 -0.6975 -0.5184  0.1272
    8MOL    C43 1457   2.011   7.368   5.583  0.4365  0.2055 -0.3124
    8MOL    C44 1458   1.971   7.271   5.669  0.3101 -0.3027  0.2105
    8MOL    C45 1459   2.009   7.125   5.667 -0.1053  0.4721  0.5343
    8MOL    H46 1460   2.078   7.558   5.571 -0.5321 -0.7959  0.3069
    8MOL    H47 1461   1.945   7.542   5.689  1.6211 -0.3519  0.9459
    8MOL    H48 1462   2.081   7.335   5.508  0.6099 -2.5344  0.9775
    8MOL    H49 1463   1.900   7.294   5.747  2.6945 -0.2238  2.4122
    8MOL    H50 1464   1.927   7.060   5.696 -1.0278  0.8319 -1.2498
    8MOL    H51 1465   2.087   7.107   5.742  0.7372 -0.6984 -0.5888
    8MOL    C52 1466   2.054   7.071   5.530  0.3279  0.2218  0.1262
    8MOL    C53 1467   1.949   7.089   5.417 -0.3367  0.1072 -0.0377
    8MOL    C54 1468   1.891   6.987   5.346  0.2019  0.0877 -0.9446
    8MOL    C55 1469   1.786   6.994   5.238  0.2864 -0.2856 -0.4653
    8MOL    H56 1470   2.137   7.138   5.513 -0.1641  0.6610 -0.5448
    8MOL    H57 1471   2.082   6.965   5.538 -2.2300 -0.6982 -2.4263
    8MOL    H58 1472   1.924   7.191   5.393  3.3741  1.1248  0.1663
    8MOL    H59 1473   1.923   6.886   5.365 -0.8488  0.1226  1.2433
    8MOL    H60 1474   1.699   6.942   5.278 -0.6166 -0.8549 -3.1099
    8MOL    H61 1475   1.809   6.941   5.146  1.1121 -0.6437 -0.0530
    8MOL    C62 1476   1.747   7.140   5.200  0.3483 -0.2481 -0.4179
    8MOL    C63 1477   1.663   7.148   5.072 -0.3071 -0.2425 -0.3047
    8MOL    C64 1478   1.531   7.184   5.070 -0.0880  0.6936 -0.2689
    8MOL    C65 1479   1.449   7.192   4.938 -0.0731  0.2189 -0.1624
    8MOL    H66 1480   1.686   7.173   5.285  0.9096  0.2351 -0.2015
    8MOL    H67 1481   1.832   7.200   5.170 -0.9264  1.7909 -0.0595
    8MOL    H68 1482   1.716   7.120   4.982  2.7087  1.9038  0.7164
    8MOL    H69 1483   1.482   7.211   5.163  0.6711 -0.7456  0.5625
    8MOL    H70 1484   1.500   7.135   4.861  2.2952 -0.4132  1.8216
    8MOL    H71 1485   1.445   7.296   4.907 -0.9649 -0.3477 -2.0376
    8MOL    C72 1486   1.315   7.132   4.950 -0.1551 -0.5953  0.4275
    8MOL    C73 1487   1.208   7.234   5.000 -0.4007 -0.6255 -0.5012
    8MOL    C74 1488   1.118   7.212   5.101  0.5644  0.7796 -0.0971
    8MOL    C75 1489   1.006   7.309   5.136 -0.3553  0.4529  0.5740
    8MOL    H76 1490   1.280   7.095   4.854 -1.9119 -0.2474  0.9182
    8MOL    H77 1491   1.312   7.042   5.013  0.1734 -1.3605 -0.6416
    8MOL    H78 1492   1.201   7.331   4.952 -0.7557 -1.2429 -1.6843
    8MOL    H79 1493   1.122   7.117   5.153  2.1003 -0.0808 -1.7142
    8MOL    H80 1494   0.924   7.300   5.065  2.1915  0.2837 -2.4399
    8MOL    H81 1495   1.054   7.407   5.128  0.8944 -0.1907 -0.0071
    8MOL    C82 1496   0.944   7.290   5.281 -0.2092  0.1202 -0.0347
    8MOL    C83 1497   1.052   7.288   5.388  0.2681  0.1824 -0.7460
    8MOL    C84 1498   1.186   7.321   5.371 -0.1625  0.3726 -0.4801
    8MOL    C85 1499   1.289   7.313   5.485 -0.0946  0.2123 -0.0054
    8MOL    H86 1500   0.866   7.365   5.298  1.2069  1.1136  2.3525
    8MOL    H87 1501   0.887   7.198   5.290  0.2043  0.0089  1.6884
    8MOL    H88 1502   1.017   7.274   5.488 -0.0048 -2.0738 -1.1412
    8MOL    H89 1503   1.233   7.342   5.276  1.2300  0.9505  0.3310
    8MOL    H90 1504   1.362   7.233   5.467  0.2442  0.6751 -0.6932
    8MOL    H91 1505   1.231   7.302   5.577  0.9092  2.5902  0.9617
    8MOL    C92 1506   1.374   7.441   5.501  0.1216 -0.0940 -0.5688
    8MOL    C93 1507   1.463   7.448   5.633  0.2097 -0.5926 -0.4206
    8MOL    C94 1508   1.457   7.534   5.734 -0.2639 -0.3457 -0.5673
    8MOL    C95 1509   1.571   7.539   5.842 -0.4966  0.0201 -0.3119
    8MOL    H96 1510   1.453   7.463   5.429 -0.6057  1.6767 -0.8444
    8MOL    H97 1511   1.303   7.523   5.496 -0.8740 -0.9481 -0.5410
    8MOL    H98 1512   1.544   7.378   5.622  1.6296  0.7800  1.0263
    8MOL    H99 1513   1.377   7.605   5.747  0.5423  0.1957  1.7156
    8MOL   H100 1514   1.525   7.511   5.937  0.8255 -2.6330 -0.4077
    8MOL   H101 1515   1.617   7.638   5.851  0.7419 -0.7727  2.6484
    8MOL   C102 1516   1.693   7.449   5.809 -0.5138 -0.3520 -0.1446
    8MOL   C103 1517   1.795   7.481   5.915  0.0443 -0.1185 -0.3372
    8MOL   C104 1518   1.793   7.442   6.040  0.2504  0.7720 -0.4180
    8MOL   C105 1519   1.888   7.500   6.145  0.0150 -0.1155 -0.0090
    8MOL   H106 1520   1.670   7.342   5.813 -1.3039 -0.1581  0.9200
    8MOL   H107 1521   1.723   7.460   5.705 -1.4613  0.8799 -0.2961
    8MOL   H108 1522   1.872   7.549   5.882  0.1338  1.4815  2.9866
    8MOL   H109 1523   1.718   7.371   6.071  1.1993 -0.5489 -1.0655
    8MOL   H110 1524   1.849   7.595   6.180  2.4786  1.0623 -0.3516
    8MOL   H111 1525   1.983   7.528   6.099  0.6923 -0.7946  0.9689
    8MOL   C112 1526   1.929   7.409   6.260 -0.4282  0.2408  0.9981
    8MOL   C113 1527   1.826   7.394   6.375  0.2895 -0.5563  0.1709
    8MOL   C114 1528   1.857   7.407   6.501  0.4421  0.2183 -0.1137
    8MOL   C115 1529   1.765   7.399   6.617  0.9304 -0.4977 -0.9914
    8MOL   H116 1530   1.941   7.317   6.203  1.9766  0.7202  0.6876
    8MOL   H117 1531   2.026   7.431   6.304  0.0284  0.8055 -0.2925
    8MOL   H118 1532   1.722   7.387   6.347  0.5172  0.4595 -0.9387
    8MOL   H119 1533   1.962   7.422   6.522  0.4154 -1.2852  1.1351
    8MOL   H120 1534   1.804   7.324   6.687  3.4627 -1.2260 -3.1151
    8MOL   H121 1535   1.676   7.350   6.576 -0.8433  1.8133 -0.0155
    8MOL   C122 1536   1.738   7.527   6.698  0.0017 -0.8202 -0.3939
    8MOL   C123 1537   1.679   7.643   6.615  0.0877 -0.3227 -0.2163
    8MOL   C124 1538   1.760   7.748   6.574 -0.9114  0.1973 -0.2493
    8MOL   C125 1539   1.707   7.864   6.495 -0.2660  0.3689 -0.3060
    8MOL   H126 1540   1.681   7.502   6.788 -2.6483 -0.1375 -1.8179
    8MOL   H127 1541   1.836   7.565   6.728 -0.4803  0.8088 -0.7954
    8MOL   H128 1542   1.577   7.628   6.582  0.0060 -0.7053  0.2079
    8MOL   H129 1543   1.863   7.751   6.606 -0.0587 -1.2804 -2.7302
    8MOL   H130 1544   1.659   7.935   6.561  0.4829 -0.6484  1.3645
    8MOL   H131 1545   1.624   7.836   6.429 -1.3318  0.7705  0.8539
    8MOL   C132 1546   1.816   7.918   6.399 -0.1620 -0.3147 -0.2541
    8MOL   C133 1547   1.755   0.032   6.294  0.6825  0.1147 -0.0421
    8MOL   C134 1548   1.736   7.977   6.162  0.2717 -0.1843  0.1421
    8MOL   C135 1549   1.670   0.088   6.052 -0.3433  0.2367  0.3795
    8MOL   H136 1550   1.895   0.002   6.443  0.1874 -0.7229 -0.3165
    8MOL   H137 1551   1.862   7.841   6.337  1.3757  0.2591  0.1329
    8MOL   H138 1552   1.719   0.129   6.325  0.3537  0.6187 -1.9124
    8MOL   H139 1553   1.785   7.887   6.126  2.5287  0.1602  2.1918
    8MOL   H140 1554   1.749   0.102   5.977 -1.5853 -0.9439 -1.1774
    8MOL   H141 1555   1.639   0.185   6.091 -0.2967  0.9234 -1.2336
    8MOL   C142 1556   1.545   0.022   5.996  0.2115  0.1407 -0.0224
    8MOL   C143 1557   1.434   0.025   6.096  0.3114 -0.5568  0.0052
    8MOL   C144 1558   1.350   7.899   6.120  0.2888  0.0761 -0.4461
    8MOL   C145 1559   1.232   7.911   6.213 -0.0674  0.0293  0.1909
    8MOL   H146 1560   1.503   0.075   5.911 -0.8918  0.1244  0.5070
    8MOL   H147 1561   1.578   7.901   5.960  1.6862 -0.4511  2.8079
    8MOL   H148 1562   1.425   0.120   6.146 -0.0624 -1.6323  2.0236
    8MOL   H149 1563   1.378   7.804   6.075  3.4089  1.0960 -0.7795
    8MOL   H150 1564   1.196   0.037   6.221 -1.3632  0.0616 -4.6031
    8MOL   H151 1565   1.249   7.875   6.315 -0.7512  0.7389  0.5623
    8MOL   C152 1566   1.117   7.832   6.158 -0.7735  0.0312 -0.2355
    8MOL   C153 1567   0.997   7.831   6.245  0.3928 -0.5328  1.1443
    8MOL   C154 1568   0.900   7.739   6.232 -0.3864  0.2183 -0.0600
    8MOL   C155 1569   0.776   7.738   6.317  0.3490  0.0035  0.0056
    8MOL   H156 1570   1.077   7.878   6.067 -2.0934 -0.0347  0.2968
    8MOL   H157 1571   1.135   7.726   6.146  0.2715  0.2350 -0.5149
    8MOL   H158 1572   0.991   7.912   6.316  2.4666  1.3290 -0.7347
    8MOL   H159 1573   0.913   7.662   6.158  2.5201 -0.0636  0.6980
    8MOL   H160 1574   0.690   7.754   6.252  0.6810  1.6964 -0.0190
    8MOL   H161 1575   0.795   7.810   6.397  1.7759 -0.1793 -0.1626
    8MOL   C162 1576   0.759   7.602   6.404 -0.0954  1.1419 -0.3731
    8MOL   C163 1577   0.741   7.471   6.327 -0.5322 -0.7606 -0.3842
    8MOL   C164 1578   0.847   7.395   6.293 -0.0473  0.3854  0.0688
    8MOL   C165 1579   0.843   7.263   6.220  0.1673 -0.1396 -0.3538
    8MOL   H166 1580   0.821   7.590   6.493 -2.9906 -1.8166  1.3551
    8MOL   H167 1581   0.660   7.623   6.443  0.5565 -0.1465  2.0287
    8MOL   H168 1582   0.638   7.444   6.312 -0.6827 -0.1503 -0.4595
    8MOL   H169 1583   0.945   7.433   6.318 -0.2910  1.0363  0.0492
    8MOL   H170 1584   0.885   7.279   6.120 -0.3988  0.4818 -0.4923
    8MOL   H171 1585   0.740   7.236   6.197 -0.2599  2.0827 -1.1163
    8MOL   C172 1586   0.931   7.153   6.296  0.2328 -0.1948 -0.5300
    8MOL   C173 1587   0.984   7.054   6.198 -0.5373 -0.9801 -0.1645
    8MOL   C174 1588   0.983   6.919   6.214  0.0390 -0.0926  0.1271
    8MOL   C175 1589   1.039   6.815   6.120 -0.6734  0.1184 -0.4477
    8MOL   H176 1590   1.023   7.193   6.338 -0.7059  0.8319  0.6059
    8MOL   H177 1591   0.884   7.102   6.380  0.5289 -1.2533 -1.0006
    8MOL   H178 1592   1.024   7.085   6.103 -0.1813 -0.6932  0.0814
    8MOL   H179 1593   0.944   6.888   6.309 -2.5742 -2.3952 -1.6021
    8MOL   H180 1594   1.122   6.769   6.173 -1.9023 -1.2927  0.2827
    8MOL   H181 1595   1.075   6.858   6.026 -0.2451 -1.1315 -0.8673
    8MOL   C182 1596   0.942   6.703   6.092  0.2745 -0.3113 -0.1060
    8MOL   C183 1597   0.885   6.642   6.218 -0.2771  0.1010  0.3165
    8MOL   C184 1598   0.898   6.510   6.239 -0.2286 -0.2488 -0.1452
    8MOL   C185 1599   0.843   6.434   6.361 -0.4534  0.7409 -0.5176
    8MOL   H186 1600   0.853   6.731   6.035 -1.2698 -3.5403  0.5984
    8MOL   H187 1601   0.992   6.623   6.039  0.2979 -0.8879  0.7712
    8MOL   H188 1602   0.822   6.700   6.283 -1.9421 -1.0425 -0.2503
    8MOL   H189 1603   0.958   6.451   6.172 -2.6147 -0.1136 -2.4561
    8MOL   H190 1604   0.801   6.505   6.432 -1.6999 -1.7767  1.3460
    8MOL   H191 1605   0.931   6.401   6.417 -1.5110 -0.1845  0.6296
    8MOL   C192 1606   0.740   6.326   6.323  0.4920  0.4927 -0.0009
    8MOL   C193 1607   0.809   6.203   6.265 -0.1106 -1.1681 -0.0344
    8MOL   C194 1608   0.756   6.146   6.152 -0.2763  0.3346 -0.2598
    8MOL   C195 1609   0.814   6.022   6.091 -0.1954  1.4559  0.4888
    8MOL   H196 1610   0.685   6.294   6.411  0.4939 -0.1513 -0.2354
    8MOL   H197 1611   0.661   6.373   6.265  0.0887  0.3508  0.4405
    8MOL   H198 1612   0.890   6.164   6.326  0.9182 -0.5431 -0.9912
    8MOL   H199 1613   0.680   6.201   6.099  0.0873  0.9305 -0.1729
    8MOL   H200 1614   0.890   5.968   6.147 -0.9477 -0.0653  0.0541
    8MOL   H201 1615   0.857   6.059   5.998  1.9516  0.1479  0.9293
    8MOL   H202 1616   0.735   5.951   6.065 -0.7862  1.1572  2.9567
    9MOL     C1 1617   7.934   5.312   5.023 -0.3432  0.1903 -0.3287
    9MOL     C2 1618   7.799   5.293   4.965 -0.7278  0.2878 -0.6684
    9MOL     C3 1619   7.725   5.182   4.980 -0.6559 -0.5538  0.4539
    9MOL     C4 1620   7.580   5.163   4.939  0.3115 -0.2778 -0.2928
    9MOL     H5 1621   7.949   5.381   5.106  0.8721 -1.3377  0.7504
    9MOL     H6 1622   0.017   5.354   4.942 -0.0705 -1.3468 -0.9370
    9MOL     H7 1623   7.760   5.391   4.946  1.8979  1.6209  0.5813
    9MOL     H8 1624   7.771   5.096   5.026  1.4678  1.2102  1.7199
    9MOL     H9 1625   7.539   5.255   4.898  0.9932  1.5483  2.9401
    9MOL    H10 1626   7.523   5.145   5.030  0.7593 -1.2391 -0.1999
    9MOL    H11 1627   0.002   5.216   5.047  1.7405  0.4587 -2.9463
    9MOL    C12 1628   7.568   5.046   4.850 -0.0550  0.9015  0.5437
    9MOL    C13 1629   7.418   5.023   4.810  0.1353  0.1941 -0.4022
    9MOL    C14 1630   7.372   4.902   4.787 -0.1416 -0.0283  0.4098
    9MOL    C15 1631   7.230   4.881   4.731  0.0437 -0.4056  0.0666
    9MOL    H16 1632   7.636   5.065   4.767 -0.6453  2.1613  0.3329
    9MOL    H17 1633   7.600   4.960   4.908  2.0314  2.1820  1.3495
    9MOL    H18 1634   7.348   5.106   4.804  0.0027  0.3197  2.2270
    9MOL    H19 1635   7.441   4.820   4.798 -1.1455 -0.7630  1.2620
    9MOL    H20 1636   7.227   4.853   4.626 -0.6821 -0.7438  0.1771
    9MOL    H21 1637   7.172   4.973   4.735  0.4309 -0.2169  1.9387
    9MOL    C22 1638   7.154   4.783   4.819 -0.5487 -0.2850 -0.1740
    9MOL    C23 1639   7.024   4.735   4.766 -0.0680  0.3896  0.3238
    9MOL    C24 1640   6.987   4.607   4.770  0.2236 -0.6299  0.4391
    9MOL    C25 1641   6.860   4.557   4.702  0.4193 -0.3632  0.0306
    9MOL    H26 1642   7.224   4.705   4.847 -1.4770 -0.8612  0.5738
    9MOL    H27 1643   7.139   4.824   4.919  0.8164  0.9646 -0.4595
    9MOL    H28 1644   6.961   4.811   4.723 -0.4840 -0.9408 -1.4742
    9MOL    H29 1645   7.050   4.535   4.820 -0.1179  0.3428  2.3624
    9MOL    H30 1646   6.804   4.641   4.661  1.1299 -0.1942 -0.6206
    9MOL    H31 1647   6.790   4.510   4.770 -1.7898  0.0035 -1.9238
    9MOL    C32 1648   6.884   4.471   4.576 -0.1133 -0.5562  0.5668
    9MOL    C33 1649   6.975   4.351   4.597  0.6709 -0.1735  0.2859
    9MOL    C34 1650   7.092   4.311   4.541  0.9228 -0.3287  0.1281
    9MOL    C35 1651   7.154   4.172   4.563  0.1487 -0.0799 -0.6752
    9MOL    H36 1652   6.785   4.446   4.537  0.8797 -1.7513 -1.2399
    9MOL    H37 1653   6.938   4.528   4.500 -1.3527 -1.0067 -0.6779
    9MOL    H38 1654   6.928   4.279   4.662 -0.5515  1.4846  1.2728
    9MOL    H39 1655   7.147   4.378   4.477  1.7636 -0.9797  0.1661
    9MOL    H40 1656   7.105   4.127   4.649 -1.3506 -0.4847 -1.7051
    9MOL    H41 1657   7.256   4.202   4.585 -0.3002  2.5584 -1.9271
    9MOL    C42 1658   7.154   4.083   4.444 -0.1968  0.4325  0.6157
    9MOL    C43 1659   7.190   3.938   4.478 -0.0604  0.1237  0.0822
    9MOL    C44 1660   7.314   3.886   4.476  0.6224 -0.6041  0.1471
    9MOL    C45 1661   7.351   3.747   4.520  1.3216 -0.3829 -0.2377
    9MOL    H46 1662   7.054   4.091   4.400 -0.5794  2.3382  1.7739
    9MOL    H47 1663   7.213   4.112   4.357 -1.6608  0.3619 -0.4230
    9MOL    H48 1664   7.114   3.876   4.522 -0.1836  1.2001  1.4495
    9MOL    H49 1665   7.392   3.953   4.442 -0.2164  0.3291  0.0477
    9MOL    H50 1666   7.343   3.686   4.429  0.4856 -0.9896  0.2226
    9MOL    H51 1667   7.262   3.712   4.573  1.3190  0.1710  0.1191
    9MOL    C52 1668   7.478   3.737   4.603 -0.9529 -0.7986  0.3865
    9MOL    C53 1669   7.502   3.601   4.657  0.4511  0.0010  0.2290
    9MOL    C54 1670   7.591   3.513   4.602 -0.0275 -0.6594 -0.7856
    9MOL    C55 1671   7.605   3.365   4.645 -0.1915 -0.0316 -0.1638
    9MOL    H56 1672   7.566   3.770   4.548 -0.4891 -1.7339  0.5646
    9MOL    H57 1673   7.466   3.806   4.687 -1.6891 -0.2370 -0.1707
    9MOL    H58 1674   7.443   3.561   4.739  0.0988 -0.8154 -0.4121
    9MOL    H59 1675   7.661   3.541   4.524  1.0681 -2.7484 -0.5983
    9MOL    H60 1676   7.525   3.326   4.709  2.1894 -2.3347  1.5378
    9MOL    H61 1677   7.699   3.368   4.700  0.2859  0.7035 -1.0028
    9MOL    C62 1678   7.617   3.278   4.520  0.1647  0.1838 -0.1844
    9MOL    C63 1679   7.639   3.134   4.540  0.1253 -0.7000  0.2231
    9MOL    C64 1680   7.646   3.067   4.654 -0.0538  0.2416 -0.8816
    9MOL    C65 1681   7.683   2.919   4.657 -0.3274  0.0410  0.3253
    9MOL    H66 1682   7.522   3.287   4.467 -0.8308 -0.9279  1.3420
    9MOL    H67 1683   7.690   3.315   4.449 -1.9687  1.0641 -1.9834
    9MOL    H68 1684   7.639   3.077   4.448  0.6324 -1.1784  0.5219
    9MOL    H69 1685   7.630   3.117   4.748 -0.0263 -0.8659 -0.2842
    9MOL    H70 1686   7.792   2.913   4.664 -0.3763  0.2576  1.3078
    9MOL    H71 1687   7.641   2.863   4.573 -1.2632  2.5598 -0.9402
    9MOL    C72 1688   7.624   2.855   4.778 -0.0847 -0.3674  0.6206
    9MOL    C73 1689   7.662   2.706   4.798 -1.1553  0.1166  0.4811
    9MOL    C74 1690   7.578   2.603   4.780 -0.1664 -0.5294  0.1881
    9MOL    C75 1691   7.606   2.448   4.791 -1.0347 -0.6151 -0.1163
    9MOL    H76 1692   7.648   2.911   4.867 -1.5775  0.2508  0.6393
    9MOL    H77 1693   7.516   2.858   4.762  0.0471 -0.8217 -0.4710
    9MOL    H78 1694   7.767   2.694   4.821 -1.0363  1.7001  0.8259
    9MOL    H79 1695   7.479   2.628   4.745 -0.4240 -3.7110 -1.6414
    9MOL    H80 1696   7.515   2.389   4.783 -0.4444 -1.7291  1.2077
    9MOL    H81 1697   7.646   2.422   4.889 -2.2927 -0.6013  0.4064
    9MOL    C82 1698   7.717   2.430   4.674  0.5486  0.2658  0.1037
    9MOL    C83 1699   7.747   2.288   4.643 -0.0005  0.5085 -0.6606
    9MOL    C84 1700   7.868   2.237   4.623 -0.2686  0.5840  0.6188
    9MOL    C85 1701   7.900   2.091   4.587 -0.7442  0.6878  0.1130
    9MOL    H86 1702   7.683   2.477   4.582 -2.0289 -2.1257 -0.2589
    9MOL    H87 1703   7.806   2.488   4.697  2.1078 -0.8331 -2.9403
    9MOL    H88 1704   7.658   2.228   4.629  1.7672 -2.4139  0.0147
    9MOL    H89 1705   7.953   2.302   4.637  0.3546 -0.1292  0.1569
    9MOL    H90 1706   7.947   2.038   4.670  0.4833  3.4551  1.2227
    9MOL    H91 1707   0.001   2.087   4.512 -0.2494  2.5659  0.5042
    9MOL    C92 1708   7.776   2.008   4.534 -0.3668 -0.4730  0.0479
    9MOL    C93 1709   7.737   2.028   4.385 -0.1141  0.4711  0.0829
    9MOL    C94 1710   7.603   2.058   4.354 -0.7055 -1.4065 -0.2688
    9MOL    C95 1711   7.567   2.082   4.210  0.8970 -0.3671  0.3083
    9MOL    H96 1712   7.814   1.906   4.540  0.2361 -0.2453  0.1780
    9MOL    H97 1713   7.687   2.008   4.596 -1.8530  0.3424 -2.0628
    9MOL    H98 1714   7.813   2.021   4.309  0.8266 -0.4290  1.0940
    9MOL    H99 1715   7.521   2.063   4.424  0.3121  0.5865  0.8088
    9MOL   H100 1716   7.654   2.051   4.151  1.0658 -0.1498  0.4412
    9MOL   H101 1717   7.546   2.188   4.199  1.6060 -0.2129  0.4279
    9MOL   C102 1718   7.441   2.000   4.170 -0.7978 -0.4266  0.8050
    9MOL   C103 1719   7.406   2.017   4.024  0.2392  0.3358 -0.1723
    9MOL   C104 1720   7.308   2.092   3.979 -0.0326  1.1397  0.3615
    9MOL   C105 1721   7.273   2.099   3.830 -0.8270 -0.2262  0.4851
    9MOL   H106 1722   7.444   1.892   4.185  0.3178 -0.5794 -0.4171
    9MOL   H107 1723   7.355   2.045   4.218 -1.9959 -1.2768 -0.4763
    9MOL   H108 1724   7.474   1.973   3.954  0.3076 -0.6363  0.5012
    9MOL   H109 1725   7.243   2.140   4.051 -1.7755 -1.5468  0.6631
    9MOL   H110 1726   7.181   2.044   3.809 -0.9030 -0.1058  0.5007
    9MOL   H111 1727   7.346   2.041   3.773 -0.6835 -0.5507  1.0027
    9MOL   C112 1728   7.272   2.241   3.776 -0.1994  0.8598 -0.5694
    9MOL   C113 1729   7.145   2.308   3.821  0.3477 -0.3777 -0.0404
    9MOL   C114 1730   7.055   2.361   3.737  0.1785  0.5085 -0.3733
    9MOL   C115 1731   6.913   2.412   3.778 -0.9256  0.1253 -0.0572
    9MOL   H116 1732   7.358   2.299   3.811  1.6809 -1.0592 -1.9269
    9MOL   H117 1733   7.277   2.230   3.668 -2.0512  1.4096 -0.7186
    9MOL   H118 1734   7.119   2.315   3.925 -4.0697  0.8143 -1.0803
    9MOL   H119 1735   7.082   2.363   3.633  1.3895 -0.8887 -0.1049
    9MOL   H120 1736   6.916   2.520   3.791  0.9148  0.1188 -0.2831
    9MOL   H121 1737   6.891   2.389   3.883 -0.0369 -1.0929 -0.1257
    9MOL   C122 1738   6.798   2.382   3.682  0.2619 -0.6630 -0.0343
    9MOL   C123 1739   6.662   2.424   3.731 -0.3822 -0.1430  1.0958
    9MOL   C124 1740   6.569   2.332   3.756  0.0550  0.0164 -0.1549
    9MOL   C125 1741   6.437   2.378   3.820  0.1052  0.1075  0.7142
    9MOL   H126 1742   6.809   2.429   3.584 -0.1639  1.7896  1.0600
    9MOL   H127 1743   6.792   2.275   3.661  1.4686 -0.6690 -0.4038
    9MOL   H128 1744   6.645   2.531   3.734 -0.5219 -0.0927 -0.7518
    9MOL   H129 1745   6.585   2.225   3.749 -0.9158 -0.2079  0.7618
    9MOL   H130 1746   6.363   2.315   3.772 -0.4837  0.4461  1.1668
    9MOL   H131 1747   6.425   2.482   3.789 -1.7021 -0.6964 -1.4591
    9MOL   C132 1748   6.443   2.352   3.973 -0.5352 -0.5536  0.0274
    9MOL   C133 1749   6.358   2.437   4.066 -0.0910 -0.9578 -0.5911
    9MOL   C134 1750   6.276   2.392   4.162 -0.7253 -0.9765  0.0555
    9MOL   C135 1751   6.195   2.475   4.260  0.6014 -1.0044 -0.2300
    9MOL   H136 1752   6.421   2.249   4.004 -1.8562 -0.7420 -1.4645
    9MOL   H137 1753   6.546   2.367   4.005 -0.5454  0.2430 -0.3080
    9MOL   H138 1754   6.376   2.542   4.047 -1.2745 -1.0574 -2.4502
    9MOL   H139 1755   6.261   2.285   4.170  0.9826 -1.2112  0.2151
    9MOL   H140 1756   6.093   2.460   4.223 -0.0956 -0.0881  1.2909
    9MOL   H141 1757   6.209   2.583   4.263  2.5252 -1.2915  2.8702
    9MOL   C142 1758   6.214   2.430   4.403 -0.4417 -0.0427  0.0925
    9MOL   C143 1759   6.085   2.439   4.486  0.4253  0.2064  0.4738
    9MOL   C144 1760   6.019   2.335   4.525  0.5658  0.4542 -0.2171
    9MOL   C145 1761   5.895   2.342   4.611  0.3138 -0.6927  0.3388
    9MOL   H146 1762   6.253   2.329   4.409  1.0124  0.4845 -0.2021
    9MOL   H147 1763   6.296   2.486   4.448  2.3560 -3.5316 -0.4940
    9MOL   H148 1764   6.069   2.535   4.533 -2.9485  0.1515 -0.4363
    9MOL   H149 1765   6.041   2.235   4.492 -1.1990 -0.7481  2.0873
    9MOL   H150 1766   5.887   2.439   4.659 -1.0843 -1.3115  1.4057
    9MOL   H151 1767   5.903   2.261   4.683 -3.1020 -1.8954 -0.5437
    9MOL   C152 1768   5.773   2.307   4.528 -0.1649 -0.5895 -0.2236
    9MOL   C153 1769   5.719   2.409   4.441 -0.1882  0.1303  0.2851
    9MOL   C154 1770   5.652   2.402   4.325 -0.1415  0.6713  0.8404
    9MOL   C155 1771   5.605   2.525   4.251 -0.3707  0.0868  0.0064
    9MOL   H156 1772   5.776   2.214   4.472  2.0371 -0.0254 -1.0716
    9MOL   H157 1773   5.696   2.290   4.603  1.3733 -0.7275  1.3555
    9MOL   H158 1774   5.744   2.511   4.469 -0.0030 -0.4330  2.2359
    9MOL   H159 1775   5.631   2.306   4.281  1.0436  0.1215  1.4662
    9MOL   H160 1776   5.609   2.608   4.321  1.0924 -1.6853  2.0648
    9MOL   H161 1777   5.500   2.509   4.227  0.0946 -1.4551 -1.1133
    9MOL   C162 1778   5.680   2.565   4.123  0.1257 -0.4780 -0.7927
    9MOL   C163 1779   5.817   2.626   4.153 -0.6162  0.1670  0.0007
    9MOL   C164 1780   5.834   2.755   4.178 -0.2853  0.5044 -0.5853
    9MOL   C165 1781   5.963   2.823   4.212  0.6388 -0.0977 -0.5481
    9MOL   H166 1782   5.685   2.488   4.046  0.8929 -0.5478 -0.6797
    9MOL   H167 1783   5.610   2.642   4.091 -2.1943 -1.4369  1.7336
    9MOL   H168 1784   5.904   2.561   4.160 -0.9698 -0.4716 -1.5102
    9MOL   H169 1785   5.745   2.816   4.187  0.1329  1.0403 -0.0490
    9MOL   H170 1786   6.030   2.741   4.238  0.6373  0.2654  0.6272
    9MOL   H171 1787   5.953   2.884   4.302  4.2221 -0.9988  0.5138
    9MOL   C172 1788   6.013   2.894   4.093  0.0196 -0.5059  0.3332
    9MOL   C173 1789   6.120   2.999   4.117  0.9451  0.5125 -0.0351
    9MOL   C174 1790   6.206   3.028   4.022 -0.4705  0.3146  1.0381
    9MOL   C175 1791   6.321   3.126   4.029 -0.3433  0.0648 -0.1490
    9MOL   H176 1792   6.052   2.818   4.025 -0.2130 -0.2471 -0.0964
    9MOL   H177 1793   5.932   2.947   4.043 -0.6631 -0.7829  1.1454
    9MOL   H178 1794   6.125   3.043   4.215 -1.1273  2.0005 -0.5698
    9MOL   H179 1795   6.187   2.987   3.924 -1.4960  0.2343  1.2626
    9MOL   H180 1796   6.408   3.067   4.056 -0.0604  1.1594  1.3799
    9MOL   H181 1797   6.303   3.192   4.114  2.5040 -1.3014  1.5731
    9MOL   C182 1798   6.330   3.220   3.903  0.5429 -0.0830 -0.5504
    9MOL   C183 1799   6.446   3.322   3.905 -0.3341 -0.1236 -0.1787
    9MOL   C184 1800   6.438   3.457   3.894 -0.3102  0.3128  0.1891
    9MOL   C185 1801   6.556   3.551   3.879  0.0108 -0.3061 -0.1662
    9MOL   H186 1802   6.331   3.171   3.805 -0.7680  0.1085 -0.6652
    9MOL   H187 1803   6.237   3.277   3.898  1.3094  1.0424 -4.6728
    9MOL   H188 1804   6.546   3.282   3.906 -0.5367 -0.6772 -1.1566
    9MOL   H189 1805   6.339   3.501   3.888 -0.3200  0.1777 -0.7789
    9MOL   H190 1806   6.538   3.584   3.776 -1.3765 -1.9131 -0.4620
    9MOL   H191 1807   6.646   3.489   3.876  1.4136  1.6174  1.4801
    9MOL   C192 1808   6.546   3.668   3.974  0.1554  0.2883 -0.4370
    9MOL   C193 1809   6.654   3.762   3.954 -0.3972  0.1009  0.7455
    9MOL   C194 1810   6.646   3.886   3.912 -0.5160 -0.8204  0.7156
    9MOL   C195 1811   6.764   3.981   3.896 -0.0466 -0.1605  0.0669
    9MOL   H196 1812   6.454   3.725   3.961  1.4398  2.4270 -0.3433
    9MOL   H197 1813   6.552   3.618   4.070  1.3927 -0.2790 -0.8020
    9MOL   H198 1814   6.754   3.721   3.955  0.7546  2.4518 -3.4718
    9MOL   H199 1815   6.552   3.922   3.873  0.0211  1.0610  1.1165
    9MOL   H200 1816   6.739   4.087   3.908  0.9494  0.3768 -2.1995
    9MOL   H201 1817   6.815   3.970   3.800 -2.7556 -1.2989 -1.2753
    9MOL   H202 1818   6.841   3.963   3.971  1.4596  0.4421 -1.2937
   10MOL     C1 1819   2.163   2.559   2.308 -0.1007  0.3113 -0.2825
   10MOL     C2 1820   2.193   2.708   2.329 -0.6463 -0.1642 -0.4171
   10MOL     C3 1821   2.296   2.770   2.268  0.1103 -0.2569 -0.4385
   10MOL     C4 1822   2.350   2.908   2.277 -0.2626  0.3578 -0.0672
   10MOL     H5 1823   2.057   2.549   2.330 -0.4928 -0.0497 -2.1822
   10MOL     H6 1824   2.218   2.503   2.383 -0.0580 -0.2670 -0.7422
   10MOL     H7 1825   2.129   2.760   2.398  0.7217  0.1925  0.6108
   10MOL     H8 1826   2.361   2.715   2.200  1.1357 -1.4038  1.4116
   10MOL     H9 1827   2.281   2.977   2.324  0.5233  1.0482  0.0723
   10MOL    H10 1828   2.370   2.945   2.177  0.2331  1.1580  0.3266
   10MOL    H11 1829   2.194   2.515   2.213  1.7805 -1.0333  0.9292
   10MOL    C12 1830   2.491   2.919   2.350 -0.7128 -0.3332  0.0577
   10MOL    C13 1831   2.545   3.061   2.356  0.9933  0.6016 -0.0255
   10MOL    C14 1832   2.586   3.125   2.468 -0.3666 -0.7973  0.3798
   10MOL    C15 1833   2.621   3.270   2.486  0.5796 -0.5012  0.3737
   10MOL    H16 1834   2.493   2.871   2.448 -1.1237 -0.2687  0.0991
   10MOL    H17 1835   2.563   2.860   2.294  0.0594  1.7661 -1.2312
   10MOL    H18 1836   2.556   3.107   2.260 -1.8249 -0.0294 -0.6930
   10MOL    H19 1837   2.590   3.075   2.563  2.0701  1.3526  1.4606
   10MOL    H20 1838   2.558   3.315   2.563 -0.1242  0.4695 -0.7457
   10MOL    H21 1839   2.583   3.329   2.402 -1.0354  0.9208  2.0548
   10MOL    C22 1840   2.767   3.308   2.488 -0.7970 -0.1515 -0.3515
   10MOL    C23 1841   2.781   3.460   2.486  0.3533  0.8341  0.2569
   10MOL    C24 1842   2.883   3.538   2.521  0.2043 -0.1011  0.7532
   10MOL    C25 1843   2.875   3.691   2.509  0.4658 -0.4621  0.0861
   10MOL    H26 1844   2.812   3.277   2.582 -3.5292  1.2695  1.5079
   10MOL    H27 1845   2.828   3.267   2.408  1.6373  0.1858  1.2738
   10MOL    H28 1846   2.685   3.497   2.454 -0.3196 -2.9343 -2.4790
   10MOL    H29 1847   2.977   3.489   2.544  0.8211  0.1820 -1.0241
   10MOL    H30 1848   2.852   3.722   2.610  2.4891 -1.0951  0.7614
   10MOL    H31 1849   2.793   3.715   2.442  0.9303 -0.4307 -0.4846
   10MOL    C32 1850   3.001   3.752   2.454 -0.2575 -0.2592 -0.4466
   10MOL    C33 1851   2.983   3.905   2.438 -0.1449 -0.4791 -0.3855
   10MOL    C34 1852   3.038   4.001   2.516 -0.3251  0.7743  0.5773
   10MOL    C35 1853   3.017   4.149   2.491  0.4291 -0.2683 -0.2965
   10MOL    H36 1854   3.084   3.731   2.521 -1.4014 -1.5959  0.5826
   10MOL    H37 1855   3.031   3.717   2.355 -0.2376  0.2256 -0.6129
   10MOL    H38 1856   2.916   3.935   2.358  0.4202  0.5915 -0.4676
   10MOL    H39 1857   3.103   3.962   2.594 -0.1959 -2.1267 -0.9220
   10MOL    H40 1858   2.959   4.164   2.400 -0.5204  1.2398  0.5404
   10MOL    H41 1859   3.105   4.206   2.462  0.5791  1.0617  2.5473
   10MOL    C42 1860   2.946   4.226   2.607 -0.2235  0.4709 -0.7549
   10MOL    C43 1861   2.960   4.374   2.599  0.0337 -0.0532  0.7138
   10MOL    C44 1862   2.864   4.467   2.584 -0.0212 -0.7847 -0.6795
   10MOL    C45 1863   2.882   4.617   2.589 -0.1625 -0.4757  0.1147
   10MOL    H46 1864   2.839   4.204   2.605 -0.5296  1.7293  0.7689
   10MOL    H47 1865   2.991   4.203   2.704 -0.4008  0.2473 -0.7264
   10MOL    H48 1866   3.060   4.414   2.602  0.8996 -2.2046  1.8150
   10MOL    H49 1867   2.761   4.436   2.578  0.4584 -2.6260  0.2124
   10MOL    H50 1868   2.989   4.638   2.581 -0.0872 -0.3116  1.4805
   10MOL    H51 1869   2.851   4.652   2.688  2.5316  2.4508  0.0016
   10MOL    C52 1870   2.800   4.690   2.481 -0.3992  0.0353 -0.2952
   10MOL    C53 1871   2.847   4.833   2.459  0.5182 -0.3565  0.2677
   10MOL    C54 1872   2.771   4.944   2.493  0.6402  0.5596 -0.1603
   10MOL    C55 1873   2.811   5.088   2.453  0.3124  0.2354 -0.0587
   10MOL    H56 1874   2.814   4.633   2.389  0.5729 -1.1842  0.5810
   10MOL    H57 1875   2.692   4.692   2.492 -0.3786  1.7010 -0.2166
   10MOL    H58 1876   2.934   4.846   2.396  0.1122 -1.2848 -0.4915
   10MOL    H59 1877   2.686   4.924   2.556  1.9958  2.0868  2.2053
   10MOL    H60 1878   2.915   5.087   2.422  0.2710 -1.2817 -0.1816
   10MOL    H61 1879   2.817   5.164   2.531  0.0821 -0.6966  0.8833
   10MOL    C62 1880   2.721   5.140   2.337  0.5811  0.0490 -0.0095
   10MOL    C63 1881   2.710   5.046   2.218  0.4437 -0.3487  0.0771
   10MOL    C64 1882   2.749   5.078   2.094  0.1531  0.1403  0.4267
   10MOL    C65 1883   2.771   4.977   1.991 -0.3132  0.7985  0.0193
   10MOL    H66 1884   2.617   5.129   2.368  0.8410  0.9305  1.2064
   10MOL    H67 1885   2.741   5.242   2.307  4.1361 -0.4736  0.4526
   10MOL    H68 1886   2.684   4.945   2.243  0.1142 -0.6835 -1.5280
   10MOL    H69 1887   2.782   5.180   2.082  0.8452 -0.1567 -0.1720
   10MOL    H70 1888   2.748   4.876   2.025 -1.1514  1.1336  0.4709
   10MOL    H71 1889   2.878   4.975   1.971 -0.1073 -0.6469  1.1595
   10MOL    C72 1890   2.688   4.994   1.862  1.1461 -0.9996 -0.0929
   10MOL    C73 1891   2.544   4.963   1.893  0.3063  0.1015  0.1098
   10MOL    C74 1892   2.447   5.050   1.868 -0.3769  0.3199 -0.3012
   10MOL    C75 1893   2.300   5.023   1.887 -0.1842  0.3217 -0.3304
   10MOL    H76 1894   2.693   5.090   1.812  1.5801 -0.3993  1.0951
   10MOL    H77 1895   2.722   4.924   1.785  2.1383  1.7396 -2.2009
   10MOL    H78 1896   2.510   4.865   1.921  1.2432 -0.0133  0.8860
   10MOL    H79 1897   2.483   5.148   1.842  0.7715  0.0334  0.1938
   10MOL    H80 1898   2.270   5.087   1.970  2.1348  1.4442 -0.3251
   10MOL    H81 1899   2.262   4.923   1.909 -1.7361  1.5854  3.1028
   10MOL    C82 1900   2.223   5.070   1.763  0.1429 -0.6906  0.1073
   10MOL    C83 1901   2.078   5.035   1.773  0.0974  0.2214  0.0333
   10MOL    C84 1902   2.003   4.956   1.697  1.0169  0.6315  0.2905
   10MOL    C85 1903   1.862   4.933   1.710 -0.2020 -0.8461  0.6422
   10MOL    H86 1904   2.232   5.178   1.748 -0.0049 -0.5480  1.0430
   10MOL    H87 1905   2.254   5.027   1.668 -1.4338 -0.1325 -0.6935
   10MOL    H88 1906   2.023   5.070   1.859 -0.7872  0.5012 -0.6365
   10MOL    H89 1907   2.049   4.901   1.616  1.5767 -0.4842  1.3482
   10MOL    H90 1908   1.814   4.955   1.614  1.7301  0.0773 -0.1436
   10MOL    H91 1909   1.823   5.000   1.787 -0.6690  0.2966 -0.5700
   10MOL    C92 1910   1.828   4.790   1.738  0.1382 -0.3297  0.6093
   10MOL    C93 1911   1.679   4.779   1.763 -0.8907 -0.1462  0.2728
   10MOL    C94 1912   1.591   4.720   1.679  0.5673 -0.0844 -0.1478
   10MOL    C95 1913   1.443   4.706   1.713 -0.2748 -0.5920  0.1235
   10MOL    H96 1914   1.850   4.725   1.653 -1.2266 -0.3004  0.2128
   10MOL    H97 1915   1.872   4.743   1.826  1.4723 -1.5453 -0.6839
   10MOL    H98 1916   1.646   4.823   1.856 -1.4020 -1.4628  0.7273
   10MOL    H99 1917   1.627   4.673   1.588  0.5684  1.8948 -1.2012
   10MOL   H100 1918   1.384   4.760   1.639 -1.1532 -0.8221  0.6513
   10MOL   H101 1919   1.431   4.771   1.800  0.0745  1.1415 -1.0812
   10MOL   C102 1920   1.391   4.565   1.736  0.7606  0.3355 -0.3186
   10MOL   C103 1921   1.234   4.562   1.747 -0.4117  0.0797  0.1002
   10MOL   C104 1922   1.154   4.460   1.722  0.1068  0.5259 -0.7536
   10MOL   C105 1923   1.000   4.465   1.735 -0.3898  0.2918  0.2050
   10MOL   H106 1924   1.424   4.487   1.666  2.6216  1.4462 -0.7093
   10MOL   H107 1925   1.441   4.539   1.829 -1.8004 -1.6234  0.5756
   10MOL   H108 1926   1.191   4.652   1.789 -0.8134  0.0762 -0.3000
   10MOL   H109 1927   1.208   4.369   1.697  0.6080  0.7951 -0.6703
   10MOL   H110 1928   0.971   4.546   1.802  1.7280  0.1901  1.2906
   10MOL   H111 1929   0.973   4.372   1.786  0.0300  1.6782  3.0937
   10MOL   C112 1930   0.932   4.482   1.599 -0.3250  0.8434 -0.5488
   10MOL   C113 1931   0.794   4.531   1.610 -0.0692  0.5895 -0.2698
   10MOL   C114 1932   0.695   4.477   1.538 -1.1104  0.1344  0.2731
   10MOL   C115 1933   0.548   4.527   1.544 -0.6925  1.0980  0.7623
   10MOL   H116 1934   0.987   4.560   1.546  0.4044  0.0204 -1.0193
   10MOL   H117 1935   0.956   4.395   1.538  2.7879  0.0160  1.7478
   10MOL   H118 1936   0.779   4.626   1.660 -1.1533 -1.0260  2.5504
   10MOL   H119 1937   0.717   4.387   1.482  0.3420  2.4880 -3.1336
   10MOL   H120 1938   0.525   4.568   1.642 -0.8726  5.3016 -0.9198
   10MOL   H121 1939   0.475   4.448   1.528  1.5307 -0.9781  0.5921
   10MOL   C122 1940   0.515   4.636   1.434 -0.4764  0.1808  0.3502
   10MOL   C123 1941   0.589   4.769   1.447 -0.3440  0.9543 -0.0411
   10MOL   C124 1942   0.537   4.894   1.429 -0.2009 -0.1348 -0.2116
   10MOL   C125 1943   0.612   5.024   1.447 -0.1629 -0.5945  0.0066
   10MOL   H126 1944   0.525   4.585   1.339  0.9227 -1.1041  1.1757
   10MOL   H127 1945   0.407   4.649   1.448 -0.7902 -2.8451  1.1532
   10MOL   H128 1946   0.695   4.754   1.464 -0.4661  0.1069 -0.0064
   10MOL   H129 1947   0.431   4.907   1.415  0.3068  1.9572 -2.3403
   10MOL   H130 1948   0.713   4.995   1.473 -0.4480 -0.8896  0.8039
   10MOL   H131 1949   0.580   5.072   1.539  0.0923  1.3744 -0.9224
   10MOL   C132 1950   0.610   5.119   1.320  0.2562 -0.1499 -0.5123
   10MOL   C133 1951   0.700   5.236   1.361  0.7695  0.0879  0.6451
   10MOL   C134 1952   0.650   5.347   1.424 -0.7954  0.5348  0.7273
   10MOL   C135 1953   0.749   5.453   1.473  0.6348  0.0203  0.5417
   10MOL   H136 1954   0.641   5.060   1.233  0.2506 -2.0453  0.7404
   10MOL   H137 1955   0.503   5.137   1.311  0.2577 -1.0980 -2.9714
   10MOL   H138 1956   0.806   5.221   1.348  0.7745 -0.9071  1.7327
   10MOL   H139 1957   0.545   5.344   1.446 -1.7169 -0.5575 -3.3195
   10MOL   H140 1958   0.848   5.424   1.437  1.2086  2.9673 -0.3811
   10MOL   H141 1959   0.750   5.440   1.581  0.8176 -0.1264  0.5233
   10MOL   C142 1960   0.705   5.594   1.430  0.0416  0.0696  0.5288
   10MOL   C143 1961   0.782   5.692   1.504  1.0927 -0.1068  0.0848
   10MOL   C144 1962   0.832   5.801   1.449 -0.3300 -0.2727 -0.1314
   10MOL   C145 1963   0.934   5.894   1.524 -0.1089 -0.3306 -0.4379
   10MOL   H146 1964   0.729   5.606   1.324 -0.1014 -1.1653  0.3432
   10MOL   H147 1965   0.602   5.616   1.458 -0.0591 -1.3903  1.3487
   10MOL   H148 1966   0.807   5.666   1.606 -2.6953 -0.1932  1.0754
   10MOL   H149 1967   0.811   5.832   1.348 -0.5460  2.5264  0.7096
   10MOL   H150 1968   0.907   5.891   1.630  0.3839 -0.1707 -0.3065
   10MOL   H151 1969   0.916   5.999   1.497  0.5396  0.7077  2.9330
   10MOL   C152 1970   1.077   5.841   1.528 -0.5687 -0.1105 -0.5237
   10MOL   C153 1971   1.167   5.935   1.606  0.3921 -0.0856  0.6606
   10MOL   C154 1972   1.218   5.915   1.731  0.3162 -0.1250  0.8691
   10MOL   C155 1973   1.299   6.001   1.812 -0.0016  0.4215 -0.7354
   10MOL   H156 1974   1.086   5.744   1.577 -2.0460  0.2440  0.4727
   10MOL   H157 1975   1.110   5.831   1.424 -0.5204 -0.4214 -0.4813
   10MOL   H158 1976   1.187   6.037   1.576 -1.5468  0.2935  0.6245
   10MOL   H159 1977   1.188   5.818   1.766 -0.8648 -0.0669  0.0435
   10MOL   H160 1978   1.299   6.103   1.772 -1.4760  1.1583  1.0914
   10MOL   H161 1979   1.399   5.958   1.801 -0.7090 -2.0022  1.6391
   10MOL   C162 1980   1.258   6.000   1.957 -0.5403  0.1773  0.2523
   10MOL   C163 1981   1.366   6.048   2.051  0.7734 -0.3118  0.6089
   10MOL   C164 1982   1.330   6.108   2.165 -0.3971 -0.5660  0.1807
   10MOL   C165 1983   1.419   6.138   2.286 -0.3948 -0.3223  0.4798
   10MOL   H166 1984   1.164   6.045   1.986 -0.5429 -1.1784  2.4550
   10MOL   H167 1985   1.257   5.892   1.973 -1.3353 -0.0364 -1.1733
   10MOL   H168 1986   1.467   6.019   2.028  0.0837 -1.1647 -1.4062
   10MOL   H169 1987   1.229   6.126   2.199 -0.1767  0.2470  0.4303
   10MOL   H170 1988   1.512   6.081   2.283 -1.8249 -2.6643 -1.3641
   10MOL   H171 1989   1.347   6.118   2.366  0.1025 -1.7150  0.5958
   10MOL   C172 1990   1.456   6.290   2.293  0.4386 -0.3852 -0.5636
   10MOL   C173 1991   1.534   6.316   2.416  0.0583 -0.5715  0.0961
   10MOL   C174 1992   1.641   6.388   2.415  0.8780 -0.5114  0.1907
   10MOL   C175 1993   1.726   6.415   2.535 -0.0705  0.6077 -0.1737
   10MOL   H176 1994   1.525   6.313   2.212 -0.0533 -0.7286 -1.0821
   10MOL   H177 1995   1.373   6.360   2.296 -0.6485 -1.6936  0.4234
   10MOL   H178 1996   1.484   6.279   2.504  0.1232 -2.5552 -0.6863
   10MOL   H179 1997   1.679   6.425   2.320  1.4044 -1.1617  0.1453
   10MOL   H180 1998   1.819   6.363   2.516 -0.6674 -0.3110 -0.6291
   10MOL   H181 1999   1.694   6.362   2.625  0.2142  0.5869 -0.0868
   10MOL   C182 2000   1.757   6.563   2.543  0.1569 -0.3495  0.0891
   10MOL   C183 2001   1.856   6.602   2.433 -0.3277 -0.1700 -1.3232
   10MOL   C184 2002   1.843   6.692   2.337 -0.3221 -0.5248  0.1331
   10MOL   C185 2003   1.942   6.729   2.231 -0.2813 -0.4849 -0.1710
   10MOL   H186 2004   1.673   6.632   2.539 -0.5461 -1.2642 -1.5448
   10MOL   H187 2005   1.809   6.578   2.638  3.2997  0.3088 -1.6631
   10MOL   H188 2006   1.947   6.543   2.443 -0.3661 -0.0277  0.0094
   10MOL   H189 2007   1.752   6.749   2.338 -0.3493 -0.4794 -2.0039
   10MOL   H190 2008   1.898   6.712   2.133  0.9334  2.7742 -1.3296
   10MOL   H191 2009   2.031   6.667   2.242 -0.0561  0.2314  2.4547
   10MOL   C192 2010   1.977   6.879   2.229  0.8166  0.4697 -0.6093
   10MOL   C193 2011   2.088   6.910   2.135  0.7011  0.8171  0.7059
   10MOL   C194 2012   2.208   6.950   2.170 -0.2402  0.3460 -0.0829
   10MOL   C195 2013   2.322   6.961   2.068 -0.7969  0.6529 -0.3042
   10MOL   H196 2014   1.889   6.942   2.218  0.6494  0.2917 -0.2992
   10MOL   H197 2015   2.004   6.889   2.334 -0.5465 -1.4416 -0.0507
   10MOL   H198 2016   2.069   6.880   2.034  1.1016  2.0941  0.2440
   10MOL   H199 2017   2.230   6.967   2.275 -0.3214 -0.0326 -0.0013
   10MOL   H200 2018   2.366   7.061   2.063  1.9645 -0.5299 -0.7866
   10MOL   H201 2019   2.262   6.948   1.979 -1.5935  1.5426  0.0949
   10MOL   H202 2020   2.395   6.881   2.083 -0.4713  1.2335  1.3137
   11MOL     C1 2021   5.071   3.907   5.024  0.1595  0.0342  1.3148
   11MOL     C2 2022   5.127   3.882   4.884 -0.2624 -0.4006  0.0276
   11MOL     C3 2023   5.074   3.797   4.797 -0.1435  0.3079  0.0171
   11MOL     C4 2024   5.122   3.764   4.658 -0.5065  0.2701 -0.0704
   11MOL     H5 2025   5.149   3.919   5.099  1.6386  1.6984 -0.4703
   11MOL     H6 2026   4.988   3.842   5.054 -1.5476  1.8334  0.5422
   11MOL     H7 2027   5.215   3.935   4.853 -0.3841  0.0893  0.5210
   11MOL     H8 2028   4.984   3.741   4.818 -0.2639  0.5294  0.0957
   11MOL     H9 2029   5.219   3.808   4.637 -1.4170  1.4296 -1.8642
   11MOL    H10 2030   5.047   3.805   4.591 -2.2030 -0.8862  1.0509
   11MOL    H11 2031   5.028   4.007   5.020  0.0676 -0.0694 -0.4488
   11MOL    C12 2032   5.144   3.617   4.630 -0.0843  0.2680 -0.0838
   11MOL    C13 2033   5.217   3.597   4.499  0.5271 -0.1575  0.5033
   11MOL    C14 2034   5.333   3.536   4.500  0.0899  0.0705 -0.3808
   11MOL    C15 2035   5.423   3.502   4.382  0.2081  0.1099 -0.4958
   11MOL    H16 2036   5.199   3.569   4.711 -1.5995 -0.5537  0.4808
   11MOL    H17 2037   5.049   3.564   4.632  0.4789 -0.7506  1.0055
   11MOL    H18 2038   5.182   3.637   4.405 -0.1255 -0.3503  0.6604
   11MOL    H19 2039   5.361   3.502   4.598 -1.3968 -1.3538 -0.4213
   11MOL    H20 2040   5.443   3.395   4.388 -1.3051 -0.1016  1.1722
   11MOL    H21 2041   5.519   3.551   4.397  0.6019 -0.9803  0.6500
   11MOL    C22 2042   5.367   3.533   4.244 -0.7494 -0.2474  1.0175
   11MOL    C23 2043   5.469   3.520   4.135  0.5323  0.1350 -0.1389
   11MOL    C24 2044   5.452   3.539   4.001 -0.2440  0.3248 -0.3705
   11MOL    C25 2045   5.553   3.523   3.896  0.2743 -0.7167 -0.7445
   11MOL    H26 2046   5.273   3.480   4.230  1.1126 -3.5252  0.6071
   11MOL    H27 2047   5.335   3.638   4.246  1.2224  0.4289 -1.0432
   11MOL    H28 2048   5.566   3.479   4.158  1.1019  0.8188 -1.2280
   11MOL    H29 2049   5.352   3.564   3.970 -1.6881 -2.5991  1.7852
   11MOL    H30 2050   5.536   3.435   3.834 -0.7038 -0.5646 -0.7032
   11MOL    H31 2051   5.650   3.515   3.945  0.0194  0.1794 -0.0719
   11MOL    C32 2052   5.555   3.635   3.792 -0.2611  0.0073  0.0998
   11MOL    C33 2053   5.665   3.633   3.689 -0.0311  0.3372  0.2511
   11MOL    C34 2054   5.677   3.729   3.593 -0.5810 -0.2816  0.6957
   11MOL    C35 2055   5.779   3.727   3.484 -0.3091  0.2796  0.0709
   11MOL    H36 2056   5.458   3.640   3.742 -0.2503 -1.9269 -0.1749
   11MOL    H37 2057   5.570   3.732   3.839 -0.5905  0.9780 -1.7557
   11MOL    H38 2058   5.731   3.548   3.687  1.7155  1.7125 -2.3898
   11MOL    H39 2059   5.606   3.810   3.594 -0.4325 -0.1085  4.0140
   11MOL    H40 2060   5.734   3.707   3.387  0.0352  2.0814 -0.4691
   11MOL    H41 2061   5.832   3.637   3.514  0.0109  0.6177  0.5229
   11MOL    C42 2062   5.857   3.857   3.472  0.4151  0.5400  0.3955
   11MOL    C43 2063   5.753   3.966   3.434  0.3105 -1.2551 -1.0393
   11MOL    C44 2064   5.735   4.074   3.516 -0.6906 -0.4259 -0.2178
   11MOL    C45 2065   5.630   4.181   3.498  0.1379  0.4729 -0.2661
   11MOL    H46 2066   5.910   3.893   3.560 -0.3216 -1.2928  1.6100
   11MOL    H47 2067   5.944   3.853   3.406  0.7961  0.1034  0.9262
   11MOL    H48 2068   5.677   3.955   3.359  0.4259  1.2285 -1.5620
   11MOL    H49 2069   5.800   4.090   3.601  0.0655  0.0608 -0.8806
   11MOL    H50 2070   5.573   4.172   3.406 -2.0638 -0.1717  1.1083
   11MOL    H51 2071   5.671   4.281   3.491  1.3477 -0.1332 -2.4296
   11MOL    C52 2072   5.532   4.174   3.616 -0.4750  0.1390  0.0214
   11MOL    C53 2073   5.407   4.250   3.583 -0.1489 -0.1463 -0.6259
   11MOL    C54 2074   5.342   4.343   3.658  0.0627 -0.2836 -0.3180
   11MOL    C55 2075   5.228   4.431   3.605 -0.2979 -0.1244  0.0808
   11MOL    H56 2076   5.508   4.068   3.626  0.5643 -0.1254 -0.1862
   11MOL    H57 2077   5.560   4.206   3.717 -0.7791 -1.2143  0.5527
   11MOL    H58 2078   5.367   4.227   3.485 -0.8188  0.6474 -0.5429
   11MOL    H59 2079   5.389   4.369   3.752  0.3170  0.4639 -0.6533
   11MOL    H60 2080   5.143   4.418   3.672  0.7989 -0.8411  1.3567
   11MOL    H61 2081   5.203   4.393   3.506 -1.3296 -0.2414  0.3757
   11MOL    C62 2082   5.288   4.576   3.589 -0.7489 -0.3972  0.3780
   11MOL    C63 2083   5.176   4.677   3.568  0.0201  0.0129  0.2487
   11MOL    C64 2084   5.167   4.789   3.642  0.2141  0.3490  0.1844
   11MOL    C65 2085   5.057   4.891   3.638  1.0906 -0.5332  0.5298
   11MOL    H66 2086   5.350   4.603   3.674 -0.1929 -2.7658  0.7601
   11MOL    H67 2087   5.355   4.583   3.504 -0.7541 -1.0306  0.3204
   11MOL    H68 2088   5.096   4.647   3.502 -1.4205  2.0768  0.9916
   11MOL    H69 2089   5.244   4.806   3.717 -0.8216  0.5522  1.2101
   11MOL    H70 2090   5.003   4.882   3.543  0.3503  1.1066  0.7798
   11MOL    H71 2091   5.103   4.987   3.659 -1.0391  0.7685 -0.5078
   11MOL    C72 2092   4.965   4.869   3.755 -0.3738  0.0168  0.4155
   11MOL    C73 2093   4.898   4.998   3.808 -0.5056 -0.5758 -0.3251
   11MOL    C74 2094   4.769   5.024   3.812 -0.3867  0.4289  0.5657
   11MOL    C75 2095   4.707   5.144   3.870  0.7163 -0.2577 -0.0363
   11MOL    H76 2096   4.887   4.799   3.724  0.1123  0.5896 -2.1508
   11MOL    H77 2097   5.010   4.827   3.846  3.0135  1.3274 -0.6091
   11MOL    H78 2098   4.971   5.059   3.859 -0.4522 -0.5664 -0.4110
   11MOL    H79 2099   4.698   4.951   3.776  1.6006 -0.9834 -0.5700
   11MOL    H80 2100   4.785   5.218   3.889  1.6635 -1.5417  1.1883
   11MOL    H81 2101   4.655   5.138   3.966 -0.0587 -1.5633 -0.5272
   11MOL    C82 2102   4.617   5.202   3.768  0.4347 -0.5721 -0.3364
   11MOL    C83 2103   4.554   5.342   3.809 -0.2296  0.4058 -0.2577
   11MOL    C84 2104   4.577   5.459   3.746  0.3107  0.5348  0.3426
   11MOL    C85 2105   4.500   5.595   3.773 -0.4517  0.4173 -0.0986
   11MOL    H86 2106   4.673   5.227   3.677 -1.4361  1.2982 -1.0096
   11MOL    H87 2107   4.538   5.132   3.740  1.4790 -0.9659 -2.4865
   11MOL    H88 2108   4.489   5.345   3.895 -0.2068  1.8397 -0.2696
   11MOL    H89 2109   4.647   5.453   3.664 -0.4775 -1.1819 -0.2303
   11MOL    H90 2110   4.565   5.672   3.814 -2.2492  2.0196 -0.1817
   11MOL    H91 2111   4.423   5.579   3.848 -1.2183  0.0689 -0.9555
   11MOL    C92 2112   4.435   5.650   3.646  0.5478 -0.2328  0.0634
   11MOL    C93 2113   4.381   5.795   3.656  0.0547  0.5905  0.0385
   11MOL    C94 2114   4.268   5.834   3.600  0.0107 -0.4276  0.1532
   11MOL    C95 2115   4.205   5.974   3.617  0.0652 -0.0452 -0.0517
   11MOL    H96 2116   4.515   5.653   3.572  0.6980 -1.8600  0.1239
   11MOL    H97 2117   4.358   5.586   3.602  2.0481 -1.2509 -1.1639
   11MOL    H98 2118   4.431   5.872   3.712 -0.0614  2.0561 -1.8222
   11MOL    H99 2119   4.202   5.768   3.546 -0.5438  1.0617 -1.0299
   11MOL   H100 2120   4.269   6.036   3.681 -1.0444  0.7645  0.2912
   11MOL   H101 2121   4.108   5.965   3.665 -0.8219  0.6410 -1.7021
   11MOL   C102 2122   4.188   6.045   3.487  0.8729  0.4272 -0.4209
   11MOL   C103 2123   4.120   6.178   3.494  0.2618 -0.4434 -0.6949
   11MOL   C104 2124   4.022   6.220   3.417  0.5749 -0.2115  0.2038
   11MOL   C105 2125   3.977   6.369   3.415 -0.0431 -0.6483  0.1301
   11MOL   H106 2126   4.287   6.054   3.443  1.0633 -1.7009 -0.4821
   11MOL   H107 2127   4.133   5.980   3.418 -0.0888 -0.2146  0.9266
   11MOL   H108 2128   4.168   6.251   3.558 -0.2796 -0.6787 -0.0124
   11MOL   H109 2129   3.980   6.147   3.350  1.0445 -3.4860  3.2756
   11MOL   H110 2130   4.001   6.409   3.316  1.0055  0.6042  0.8776
   11MOL   H111 2131   4.034   6.430   3.485 -0.2692 -0.6548  0.3184
   11MOL   C112 2132   3.827   6.395   3.462  0.8427  0.3069  0.6781
   11MOL   C113 2133   3.803   6.548   3.483  0.3447  0.8941 -0.2352
   11MOL   C114 2134   3.715   6.619   3.414  0.0329 -0.0367 -0.0720
   11MOL   C115 2135   3.714   6.778   3.414  0.2372  0.1196 -0.0242
   11MOL   H116 2136   3.755   6.355   3.391 -0.3910  0.4993  1.8041
   11MOL   H117 2137   3.806   6.348   3.558 -1.8102 -1.6967 -0.8144
   11MOL   H118 2138   3.877   6.602   3.542 -0.7516  1.9429  0.1874
   11MOL   H119 2139   3.652   6.559   3.350  0.1197  0.6887 -0.8448
   11MOL   H120 2140   3.751   6.814   3.318  0.4396 -1.7180 -0.6633
   11MOL   H121 2141   3.792   6.823   3.474  0.9697  1.9296 -2.2489
   11MOL   C122 2142   3.583   6.846   3.439 -0.1205  0.0576  0.1549
   11MOL   C123 2143   3.583   6.993   3.467  0.8906  0.6165 -0.0821
   11MOL   C124 2144   3.687   7.077   3.478  0.0089 -0.2542 -0.1547
   11MOL   C125 2145   3.680   7.230   3.508  0.6745  0.2127 -0.0481
   11MOL   H126 2146   3.512   6.829   3.359  1.0050 -3.0288 -0.2876
   11MOL   H127 2147   3.550   6.797   3.531  2.2830 -0.5086  0.7737
   11MOL   H128 2148   3.485   7.033   3.487 -0.0457 -1.8488  0.4875
   11MOL   H129 2149   3.788   7.051   3.450  0.1053  0.3636 -0.4029
   11MOL   H130 2150   3.731   7.236   3.604  0.3280 -1.0831  0.2279
   11MOL   H131 2151   3.577   7.265   3.516  1.1543  1.5646  0.2835
   11MOL   C132 2152   3.755   7.317   3.407  0.0313  0.0925  0.7667
   11MOL   C133 2153   3.676   7.332   3.278 -0.2813  1.0161 -0.1403
   11MOL   C134 2154   3.600   7.443   3.241 -1.0804  0.2808 -0.5611
   11MOL   C135 2155   3.518   7.439   3.111 -0.1632  0.4986 -0.4112
   11MOL   H136 2156   3.770   7.416   3.451  0.6848  1.0105 -1.4419
   11MOL   H137 2157   3.852   7.279   3.374 -0.1377  1.7701 -1.7922
   11MOL   H138 2158   3.677   7.239   3.223 -0.7835  0.4503  0.7967
   11MOL   H139 2159   3.610   7.529   3.306 -0.4703 -0.7599  0.7391
   11MOL   H140 2160   3.571   7.374   3.040 -0.1469 -1.1509  1.0838
   11MOL   H141 2161   3.516   7.545   3.086 -1.3000  0.5430 -0.1657
   11MOL   C142 2162   3.373   7.397   3.130  0.2325 -0.8256  0.6528
   11MOL   C143 2163   3.366   7.255   3.178  0.4720 -0.4657 -0.4601
   11MOL   C144 2164   3.325   7.153   3.099 -0.3168 -0.4539  0.1288
   11MOL   C145 2165   3.331   7.011   3.152 -0.4775 -0.8891  0.3145
   11MOL   H146 2166   3.328   7.462   3.204  0.6600  1.0200 -0.6692
   11MOL   H147 2167   3.323   7.411   3.035 -0.8781 -2.8422  0.9083
   11MOL   H148 2168   3.419   7.230   3.268 -0.3829 -4.4220 -0.9582
   11MOL   H149 2169   3.276   7.185   3.008  0.2881  2.5179  0.8011
   11MOL   H150 2170   3.226   6.984   3.149 -0.6064 -0.2705 -1.4212
   11MOL   H151 2171   3.367   7.015   3.255 -0.0595  0.1578  0.1330
   11MOL   C152 2172   3.429   6.917   3.079  0.8986 -0.3047  0.0042
   11MOL   C153 2173   3.364   6.843   2.969 -0.5834 -0.5013  0.6317
   11MOL   C154 2174   3.385   6.858   2.836  0.0144  0.1609 -0.8593
   11MOL   C155 2175   3.317   6.765   2.742 -0.5003  0.2773 -0.0882
   11MOL   H156 2176   3.510   6.978   3.037 -0.9306  0.7159 -2.2028
   11MOL   H157 2177   3.461   6.840   3.149  0.4389 -0.3987  0.1100
   11MOL   H158 2178   3.296   6.767   3.003  1.5926 -1.1054  3.9202
   11MOL   H159 2179   3.450   6.930   2.789 -3.0470  1.8574 -2.7101
   11MOL   H160 2180   3.226   6.819   2.715 -2.3952 -2.3381  0.8809
   11MOL   H161 2181   3.276   6.672   2.780 -2.4739  1.2237  0.1396
   11MOL   C162 2182   3.402   6.741   2.616 -0.0441  1.2795 -0.0787
   11MOL   C163 2183   3.488   6.622   2.635  0.1125 -0.3731 -0.2697
   11MOL   C164 2184   3.444   6.497   2.624  0.2898 -0.5334 -0.5635
   11MOL   C165 2185   3.528   6.377   2.652  0.5437  0.0146  0.1788
   11MOL   H166 2186   3.333   6.738   2.532  1.2373  2.7890 -1.2303
   11MOL   H167 2187   3.470   6.822   2.589  1.2569 -0.3085 -1.7584
   11MOL   H168 2188   3.587   6.646   2.670 -0.0667 -0.8608  0.5848
   11MOL   H169 2189   3.345   6.463   2.596  0.2522 -1.3656  0.4947
   11MOL   H170 2190   3.625   6.403   2.695  0.7382 -0.2556 -0.0930
   11MOL   H171 2191   3.538   6.330   2.555  0.6703  0.0248  0.1861
   11MOL   C172 2192   3.459   6.266   2.737 -0.1184 -0.3145  0.2825
   11MOL   C173 2193   3.555   6.162   2.786 -0.1791 -0.1174  0.6641
   11MOL   C174 2194   3.535   6.027   2.777  0.1149 -0.3771 -0.1891
   11MOL   C175 2195   3.618   5.928   2.853  0.0486 -0.8681 -0.3915
   11MOL   H176 2196   3.411   6.314   2.823  2.3179  0.5472  1.1960
   11MOL   H177 2197   3.378   6.225   2.676 -1.2513  3.4392 -0.9026
   11MOL   H178 2198   3.640   6.200   2.840 -0.7287  1.8363  0.1830
   11MOL   H179 2199   3.449   5.984   2.729 -0.2553 -1.5870  1.5228
   11MOL   H180 2200   3.581   5.914   2.954 -2.6015  0.5321 -1.1229
   11MOL   H181 2201   3.714   5.980   2.860 -0.0369 -0.8446  0.6478
   11MOL   C182 2202   3.634   5.796   2.784  0.2759  0.5533 -0.7600
   11MOL   C183 2203   3.557   5.692   2.857  0.0335  0.0160 -0.0854
   11MOL   C184 2204   3.615   5.583   2.920 -0.4256 -0.0177  0.1561
   11MOL   C185 2205   3.535   5.491   3.011  0.1933 -0.2224  0.1955
   11MOL   H186 2206   3.591   5.794   2.684 -0.2460 -2.1823 -0.5238
   11MOL   H187 2207   3.740   5.774   2.773 -0.2492 -3.3385  1.1407
   11MOL   H188 2208   3.453   5.717   2.871  0.0849 -0.4306  1.1521
   11MOL   H189 2209   3.718   5.553   2.909 -1.1830 -1.5204 -3.1940
   11MOL   H190 2210   3.434   5.531   3.017  0.3172  0.4409 -1.9278
   11MOL   H191 2211   3.577   5.488   3.112 -1.2844 -3.0669  0.7834
   11MOL   C192 2212   3.512   5.355   2.944 -0.5005 -0.4899  0.5055
   11MOL   C193 2213   3.402   5.286   3.024 -0.5405 -0.4941 -0.2004
   11MOL   C194 2214   3.420   5.174   3.094  0.1813  0.4892 -0.3944
   11MOL   C195 2215   3.302   5.098   3.165 -0.3343 -1.1620  0.3457
   11MOL   H196 2216   3.480   5.371   2.841 -0.1103  0.5839  0.5444
   11MOL   H197 2217   3.608   5.303   2.947  0.5046  1.3589  1.6380
   11MOL   H198 2218   3.303   5.326   3.014  0.2634  1.4648 -0.5961
   11MOL   H199 2219   3.519   5.133   3.099 -0.6701 -1.4878  0.6005
   11MOL   H200 2220   3.274   5.131   3.265 -1.1798 -0.5086 -0.1002
   11MOL   H201 2221   3.330   4.993   3.176 -0.4195 -1.3082 -0.7688
   11MOL   H202 2222   3.207   5.106   3.113 -0.9721 -1.4128  1.4508
   12MOL     C1 2223   7.607   4.423   6.684  0.0350 -0.0542  0.1940
   12MOL     C2 2224   7.472   4.355   6.723 -0.5397  0.0697 -0.0428
   12MOL     C3 2225   7.434   4.337   6.849  0.1659 -0.5106  0.5166
   12MOL     C4 2226   7.298   4.269   6.888  0.4074 -0.6286 -0.2307
   12MOL     H5 2227   7.585   4.523   6.648 -0.5912 -0.3862 -0.3586
   12MOL     H6 2228   7.651   4.378   6.595 -1.9708  1.1084 -1.4393
   12MOL     H7 2229   7.396   4.358   6.646 -0.9263  2.1906  0.3860
   12MOL     H8 2230   7.501   4.361   6.929  0.7109  0.5700 -0.2534
   12MOL     H9 2231   7.236   4.255   6.800 -0.8340 -0.1272  0.5459
   12MOL    H10 2232   7.242   4.340   6.948 -0.0537  0.3500 -1.7971
   12MOL    H11 2233   7.666   4.409   6.775 -1.0245  0.8328  1.0361
   12MOL    C12 2234   7.313   4.138   6.968 -0.3821  0.2683 -0.1631
   12MOL    C13 2235   7.377   4.031   6.886 -1.0938  0.4359  0.3960
   12MOL    C14 2236   7.334   3.904   6.876 -0.5189 -0.3357 -0.6004
   12MOL    C15 2237   7.408   3.802   6.789  0.3968  0.0032  1.5067
   12MOL    H16 2238   7.367   4.163   7.059 -2.5453  0.1550  1.1863
   12MOL    H17 2239   7.216   4.103   7.002  0.2326 -0.2623  1.0687
   12MOL    H18 2240   7.466   4.061   6.834 -0.0324  0.2646  2.0644
   12MOL    H19 2241   7.249   3.875   6.936  0.8610  0.8563  2.0455
   12MOL    H20 2242   7.489   3.853   6.738  0.4078 -1.2004  0.3067
   12MOL    H21 2243   7.338   3.771   6.711  1.0651 -0.4290  1.0779
   12MOL    C22 2244   7.471   3.694   6.863  0.6399  0.6195 -0.4477
   12MOL    C23 2245   7.523   3.585   6.770 -0.0729  0.2856 -0.7538
   12MOL    C24 2246   7.520   3.453   6.811  0.3352  0.9104  0.3992
   12MOL    C25 2247   7.565   3.338   6.726  0.2972 -0.2696  0.9088
   12MOL    H26 2248   7.556   3.741   6.914  2.9591 -0.4862 -3.1338
   12MOL    H27 2249   7.410   3.654   6.944 -1.5978  1.4420 -1.6894
   12MOL    H28 2250   7.559   3.623   6.675 -0.3634 -0.3089 -1.1050
   12MOL    H29 2251   7.490   3.419   6.909 -0.1611 -2.3315 -0.7842
   12MOL    H30 2252   7.611   3.385   6.639 -2.0541  1.2782  0.4620
   12MOL    H31 2253   7.471   3.300   6.687 -0.5692  1.5551  1.1791
   12MOL    C32 2254   7.646   3.232   6.804  0.3005  0.3982  0.1098
   12MOL    C33 2255   7.677   3.103   6.729  0.6988  0.0837  0.7765
   12MOL    C34 2256   7.803   3.066   6.687  0.7471  0.0739 -0.1551
   12MOL    C35 2257   7.848   2.937   6.635  0.3855  0.8879  0.7965
   12MOL    H36 2258   7.739   3.275   6.841  0.1552 -0.4776  1.5309
   12MOL    H37 2259   7.588   3.200   6.891 -0.3954  1.3382  0.0057
   12MOL    H38 2260   7.591   3.038   6.725  2.5968 -2.8366  4.0615
   12MOL    H39 2261   7.878   3.137   6.719 -1.4157  1.5107  1.8311
   12MOL    H40 2262   7.764   2.890   6.584  0.8804  1.5496 -0.6626
   12MOL    H41 2263   7.876   2.874   6.720  0.4217 -0.3174 -0.0797
   12MOL    C42 2264   7.954   2.960   6.527 -0.2964  0.5492 -0.9168
   12MOL    C43 2265   0.023   2.842   6.451 -0.1936 -0.1408  0.2582
   12MOL    C44 2266   0.030   2.814   6.316 -0.5492  0.0754  0.4626
   12MOL    C45 2267   0.087   2.686   6.244 -0.8750  1.0769 -0.1281
   12MOL    H46 2268   7.916   3.035   6.458 -1.4722 -0.2123 -1.1049
   12MOL    H47 2269   0.070   2.991   6.574  0.1318 -1.0326 -0.7075
   12MOL    H48 2270   0.046   2.761   6.518 -1.1571 -1.8312 -1.3847
   12MOL    H49 2271   7.960   2.885   6.250  1.5251  0.1555 -0.9551
   12MOL    H50 2272   0.160   2.630   6.302 -2.1379 -1.1957 -0.6645
   12MOL    H51 2273   0.121   2.714   6.144 -0.1327 -0.6309 -0.3718
   12MOL    C52 2274   7.955   2.578   6.230 -0.7150 -0.0390 -0.2010
   12MOL    C53 2275   0.028   2.461   6.146  0.0078 -0.0166 -0.2192
   12MOL    C54 2276   0.079   2.348   6.187 -0.2737 -0.1326  0.4720
   12MOL    C55 2277   0.132   2.242   6.088 -0.2128 -0.5144 -0.0160
   12MOL    H56 2278   7.936   2.540   6.331 -0.3274  1.3559  0.4136
   12MOL    H57 2279   7.862   2.616   6.188 -1.4816 -0.9084  0.6716
   12MOL    H58 2280   0.013   2.481   6.041 -0.3353  0.2563 -0.1225
   12MOL    H59 2281   0.088   2.330   6.293 -3.0948 -1.3922  0.5446
   12MOL    H60 2282   0.130   2.283   5.986 -3.2091  0.8478  0.5037
   12MOL    H61 2283   0.078   2.148   6.099 -0.3247 -0.4972 -0.3873
   12MOL    C62 2284   0.282   2.219   6.105 -0.2345  0.9388  0.2938
   12MOL    C63 2285   0.332   2.095   6.025  0.2530 -0.0460  0.1293
   12MOL    C64 2286   0.455   2.090   5.973 -0.0780 -0.0926  0.5970
   12MOL    C65 2287   0.509   1.966   5.908  0.2523  0.3065 -0.3619
   12MOL    H66 2288   0.339   2.309   6.078  0.8362  0.3681  0.6081
   12MOL    H67 2289   0.305   2.196   6.209 -1.0900  2.4033  0.8239
   12MOL    H68 2290   0.269   2.008   6.024  1.8534 -1.2493  0.9833
   12MOL    H69 2291   0.514   2.180   5.966 -0.3061  0.1163  1.2883
   12MOL    H70 2292   0.492   1.972   5.801  2.5026 -1.1584 -0.8207
   12MOL    H71 2293   0.444   1.887   5.945  1.5368 -1.8580 -2.6412
   12MOL    C72 2294   0.654   1.925   5.963  0.3366  0.0038 -0.1852
   12MOL    C73 2295   0.706   1.799   5.898 -0.1056 -0.6451 -0.9656
   12MOL    C74 2296   0.822   1.768   5.838 -0.2310  0.0850  0.3126
   12MOL    C75 2297   0.840   1.638   5.758  0.2831 -0.0067  0.0877
   12MOL    H76 2298   0.729   2.005   5.960  1.5741 -1.1077  0.5323
   12MOL    H77 2299   0.655   1.904   6.070 -0.7417 -3.2801 -0.7805
   12MOL    H78 2300   0.634   1.718   5.905 -0.6120  0.1227  4.1913
   12MOL    H79 2301   0.909   1.830   5.827  1.4709 -2.0940  1.0803
   12MOL    H80 2302   0.820   1.647   5.651 -0.9489  0.0465  0.3200
   12MOL    H81 2303   0.761   1.568   5.786 -0.3634  0.4336 -0.6379
   12MOL    C82 2304   0.975   1.569   5.784 -0.4529  0.7878 -0.6959
   12MOL    C83 2305   0.986   1.436   5.706 -0.0698  0.3080  0.2780
   12MOL    C84 2306   1.089   1.399   5.630  0.0002  0.3159  0.3618
   12MOL    C85 2307   1.102   1.267   5.549 -0.1568 -0.2431 -0.2996
   12MOL    H86 2308   1.062   1.634   5.779 -1.2057  1.7346 -1.7709
   12MOL    H87 2309   0.993   1.533   5.885  0.1484 -0.4760 -1.2341
   12MOL    H88 2310   0.900   1.371   5.713  0.1057  0.1060  0.5858
   12MOL    H89 2311   1.170   1.470   5.625 -0.6180  1.0612  0.8127
   12MOL    H90 2312   1.130   1.302   5.450  0.4581  0.1193 -0.0014
   12MOL    H91 2313   1.007   1.214   5.541 -1.1193  1.3847 -0.0101
   12MOL    C92 2314   1.209   1.181   5.609 -0.3434  0.1709 -0.1523
   12MOL    C93 2315   1.221   1.046   5.547 -0.6284 -0.0744  0.0828
   12MOL    C94 2316   1.317   1.025   5.456  0.2591 -0.3325  0.1022
   12MOL    C95 2317   1.333   0.897   5.373  0.3704 -0.2174  0.5368
   12MOL    H96 2318   1.306   1.232   5.612 -0.8792  1.1963  0.1550
   12MOL    H97 2319   1.169   1.157   5.707 -2.9833 -3.2101 -1.9711
   12MOL    H98 2320   1.149   0.968   5.568 -0.2162 -1.3915 -3.1385
   12MOL    H99 2321   1.385   1.105   5.434  1.9370 -1.7599  0.0365
   12MOL   H100 2322   1.322   0.930   5.269  0.5487 -2.6045 -0.2654
   12MOL   H101 2323   1.251   0.827   5.387  0.9039 -0.6489  1.4970
   12MOL   C102 2324   1.473   0.833   5.393 -0.0644 -0.5092 -0.2901
   12MOL   C103 2325   1.510   0.734   5.282 -0.8774  0.5907 -0.0052
   12MOL   C104 2326   1.619   0.733   5.204  0.1464 -0.4146 -0.2950
   12MOL   C105 2327   1.664   0.627   5.113 -0.2148  0.3023 -0.3298
   12MOL   H106 2328   1.542   0.917   5.387  1.1569 -1.1533  3.1811
   12MOL   H107 2329   1.472   0.791   5.494 -0.1992  0.9085  0.3045
   12MOL   H108 2330   1.449   0.645   5.288  3.7464 -2.7193  0.7956
   12MOL   H109 2331   1.684   0.819   5.207  1.7343 -1.5367 -1.7500
   12MOL   H110 2332   1.608   0.537   5.139  0.9155 -0.3716 -0.1338
   12MOL   H111 2333   1.770   0.608   5.135 -0.6644 -1.1272  0.6864
   12MOL   C112 2334   1.656   0.660   4.963  0.3815  0.6481 -0.0309
   12MOL   C113 2335   1.766   0.763   4.928 -0.5306  0.1891  0.5393
   12MOL   C114 2336   1.872   0.737   4.851  0.4578 -0.1436  0.0325
   12MOL   C115 2337   1.981   0.840   4.811  0.4395  0.3708 -0.2378
   12MOL   H116 2338   1.687   0.571   4.907 -2.7137 -0.0855 -0.6707
   12MOL   H117 2339   1.561   0.678   4.913 -0.5698 -2.6739  0.4777
   12MOL   H118 2340   1.772   0.863   4.968  1.4695  1.2964 -2.3433
   12MOL   H119 2341   1.878   0.638   4.806 -1.0763 -1.0114  1.6751
   12MOL   H120 2342   1.978   0.922   4.882  0.9141 -0.0989  0.3367
   12MOL   H121 2343   1.949   0.892   4.721 -2.9093  1.5286  1.5180
   12MOL   C122 2344   2.129   0.798   4.831 -0.2520  0.5573 -0.0246
   12MOL   C123 2345   2.226   0.909   4.783  0.7562  0.7892  0.3388
   12MOL   C124 2346   2.308   0.898   4.674  0.8051 -1.2517 -0.4759
   12MOL   C125 2347   2.409   1.001   4.633 -0.3736  0.2681  0.6303
   12MOL   H126 2348   2.158   0.782   4.935  1.0538 -0.7143 -0.5709
   12MOL   H127 2349   2.155   0.705   4.781  1.8565  2.1135 -1.9197
   12MOL   H128 2350   2.228   0.999   4.841  0.7887 -1.2329  3.5629
   12MOL   H129 2351   2.312   0.804   4.623  0.7164 -2.1805  1.1949
   12MOL   H130 2352   2.449   1.056   4.718 -0.9086  0.4151  0.7935
   12MOL   H131 2353   2.347   1.065   4.570  0.2308  1.4211  1.1930
   12MOL   C132 2354   2.520   0.947   4.549  0.2799 -0.7289  0.1606
   12MOL   C133 2355   2.597   1.058   4.490  0.3652 -0.6103  0.2960
   12MOL   C134 2356   2.631   1.076   4.362  0.3261  1.2478  0.2892
   12MOL   C135 2357   2.733   1.173   4.312  0.2612  0.3623 -0.3133
   12MOL   H136 2358   2.580   0.869   4.597  1.9874 -0.6173 -1.7154
   12MOL   H137 2359   2.469   0.900   4.465 -0.0366 -0.4229  0.1825
   12MOL   H138 2360   2.636   1.122   4.567 -0.5619  0.4294 -0.0932
   12MOL   H139 2361   2.612   1.001   4.287  1.8140  0.5860  0.5703
   12MOL   H140 2362   2.825   1.114   4.313 -1.1731 -1.9487 -0.9587
   12MOL   H141 2363   2.747   1.247   4.391 -1.5329  0.0256  0.3362
   12MOL   C142 2364   2.690   1.246   4.180 -0.2259  0.5288  0.3718
   12MOL   C143 2365   2.791   1.340   4.113  0.3760 -0.2398 -0.7341
   12MOL   C144 2366   2.811   1.361   3.984 -0.1230  0.4423  0.8278
   12MOL   C145 2367   2.922   1.440   3.920  0.0805  0.0281  0.6312
   12MOL   H146 2368   2.664   1.164   4.113 -1.3865  1.0164  0.2149
   12MOL   H147 2369   2.600   1.303   4.202 -0.4550  0.1279  0.4545
   12MOL   H148 2370   2.849   1.401   4.181 -0.3766  0.2710 -0.5458
   12MOL   H149 2371   2.736   1.309   3.926 -0.4259  0.5209  1.1530
   12MOL   H150 2372   3.001   1.380   3.873  1.0909  1.7725  0.0559
   12MOL   H151 2373   2.971   1.506   3.992 -0.9870  0.8870  0.5813
   12MOL   C152 2374   2.859   1.518   3.805 -0.0709 -0.3600  0.1263
   12MOL   C153 2375   2.957   1.607   3.729 -0.1724 -0.0300 -0.0868
   12MOL   C154 2376   2.950   1.745   3.723  0.5532 -0.7911 -0.4074
   12MOL   C155 2377   3.034   1.830   3.630  0.3969 -0.1253 -0.7883
   12MOL   H156 2378   2.805   1.448   3.742 -0.5714  0.2888 -0.1638
   12MOL   H157 2379   2.775   1.576   3.843  0.2576 -1.4576  2.6232
   12MOL   H158 2380   3.032   1.558   3.669 -0.2261  1.1147 -1.0982
   12MOL   H159 2381   2.874   1.782   3.790 -0.4714 -2.0213 -0.8760
   12MOL   H160 2382   2.955   1.887   3.582  0.8985 -0.3209 -1.8678
   12MOL   H161 2383   3.070   1.759   3.555  2.3816 -0.6667  0.6600
   12MOL   C162 2384   3.145   1.904   3.697 -0.7460  0.7081  0.3639
   12MOL   C163 2385   3.241   1.962   3.596 -0.5285  0.1641  0.8362
   12MOL   C164 2386   3.252   2.090   3.558 -0.3601  0.8214  0.3375
   12MOL   C165 2387   3.321   2.135   3.429  0.3682  0.1688  0.3270
   12MOL   H166 2388   3.106   1.989   3.753 -1.3965  1.3307 -1.0069
   12MOL   H167 2389   3.203   1.843   3.766 -1.1805 -0.3213 -0.1620
   12MOL   H168 2390   3.283   1.890   3.527 -1.0705  1.1342 -0.5273
   12MOL   H169 2391   3.199   2.163   3.618 -0.4228  1.0460  0.0087
   12MOL   H170 2392   3.406   2.068   3.413 -0.0818 -0.7642  1.7390
   12MOL   H171 2393   3.379   2.226   3.438 -0.9075  1.1134 -0.8027
   12MOL   C172 2394   3.225   2.154   3.311 -0.1303 -0.0760 -0.0576
   12MOL   C173 2395   3.166   2.028   3.247 -0.4083 -0.0257 -0.0316
   12MOL   C174 2396   3.125   2.008   3.121  0.3864  0.5517 -0.0634
   12MOL   C175 2397   3.055   1.877   3.087  0.3452  0.4856 -0.3581
   12MOL   H176 2398   3.149   2.221   3.350 -0.0502  0.3587 -0.6461
   12MOL   H177 2399   3.267   2.198   3.221 -0.1035  1.0242  0.4846
   12MOL   H178 2400   3.137   1.957   3.323 -0.2494  1.5085  1.4898
   12MOL   H179 2401   3.130   2.080   3.041  0.6846  0.9813  0.3423
   12MOL   H180 2402   2.996   1.887   2.996 -0.9974 -0.2300  0.4128
   12MOL   H181 2403   2.983   1.858   3.167 -1.4402  0.0397 -2.0260
   12MOL   C182 2404   3.154   1.757   3.077 -0.4348  0.3147  0.8669
   12MOL   C183 2405   3.088   1.624   3.048  0.1920  0.0338  0.4435
   12MOL   C184 2406   3.147   1.522   2.989 -0.1149  0.1547  0.3892
   12MOL   C185 2407   3.084   1.393   2.940  0.7816  0.1273 -0.3751
   12MOL   H186 2408   3.221   1.787   2.996 -0.1581 -2.0057  0.1920
   12MOL   H187 2409   3.210   1.754   3.171  4.0061 -1.1552 -1.6597
   12MOL   H188 2410   2.982   1.622   3.068 -0.2015 -2.6555 -1.5707
   12MOL   H189 2411   3.252   1.531   2.966 -0.0308 -1.2757  0.1800
   12MOL   H190 2412   3.096   1.397   2.832 -0.6590  0.3218 -0.5396
   12MOL   H191 2413   2.977   1.393   2.959  0.9103 -1.9901  0.5412
   12MOL   C192 2414   3.163   1.275   3.014 -0.5310 -0.4346  0.4596
   12MOL   C193 2415   3.099   1.143   3.015 -0.1486  0.4553 -0.2676
   12MOL   C194 2416   3.161   1.037   3.069 -0.1065  0.0093  0.3393
   12MOL   C195 2417   3.107   0.896   3.086  1.5259  0.3456 -0.4808
   12MOL   H196 2418   3.260   1.266   2.964  0.3565 -0.6071  2.1956
   12MOL   H197 2419   3.187   1.317   3.111  1.7079  2.2174 -1.1458
   12MOL   H198 2420   3.005   1.129   2.964 -0.4796 -1.3600  0.7912
   12MOL   H199 2421   3.262   1.044   3.109  0.6621 -0.1642 -1.5234
   12MOL   H200 2422   3.008   0.883   3.042  2.1962  0.7638 -2.1238
   12MOL   H201 2423   3.110   0.867   3.191 -0.2422  0.8482 -0.2623
   12MOL   H202 2424   3.145   0.811   3.030 -0.4067 -0.1879 -1.0536
   13MOL     C1 2425   7.190   2.494   1.380  0.4612  0.5768 -0.1141
   13MOL     C2 2426   7.287   2.614   1.410 -0.4996 -0.3808  0.4115
   13MOL     C3 2427   7.421   2.608   1.404  0.5358  0.2105 -1.1857
   13MOL     C4 2428   7.511   2.724   1.433 -0.1810  0.0760  0.5088
   13MOL     H5 2429   7.131   2.535   1.299 -0.2924  0.9945  0.6373
   13MOL     H6 2430   7.131   2.466   1.468 -0.5416  0.9864 -0.6523
   13MOL     H7 2431   7.258   2.711   1.449  0.2407 -0.3215  0.8243
   13MOL     H8 2432   7.471   2.518   1.374 -1.0036 -0.0742 -2.9968
   13MOL     H9 2433   7.558   2.703   1.529  0.3400  3.7429  1.1483
   13MOL    H10 2434   7.451   2.815   1.440 -1.1044 -0.5778  1.2504
   13MOL    H11 2435   7.252   2.417   1.334  0.4229  0.1876  0.4774
   13MOL    C12 2436   7.619   2.733   1.325  0.4805  0.5838 -0.4725
   13MOL    C13 2437   7.741   2.644   1.357  0.6724  0.1769  0.2001
   13MOL    C14 2438   7.769   2.531   1.290  0.6672  0.8508  0.0213
   13MOL    C15 2439   7.895   2.441   1.316  0.7309 -0.4038 -0.7557
   13MOL    H16 2440   7.584   2.714   1.223  2.5603 -0.4127 -1.0266
   13MOL    H17 2441   7.657   2.835   1.323  1.0314  0.3883 -0.2355
   13MOL    H18 2442   7.805   2.672   1.439 -0.6488  1.8301  0.7015
   13MOL    H19 2443   7.697   2.500   1.215  0.7679  0.8479 -0.0747
   13MOL    H20 2444   7.864   2.351   1.369 -0.0278 -0.3804 -1.1430
   13MOL    H21 2445   7.955   2.501   1.384  0.5105  0.2929 -1.1635
   13MOL    C22 2446   7.971   2.419   1.190 -0.4857  0.7363  0.1884
   13MOL    C23 2447   0.134   2.372   1.207 -0.8250 -0.1615  0.1889
   13MOL    C24 2448   0.198   2.291   1.122 -0.3434  0.0415  0.1977
   13MOL    C25 2449   0.342   2.253   1.149 -0.4956 -0.6742 -0.2934
   13MOL    H26 2450   7.918   2.350   1.124  0.6900 -0.1166  0.1103
   13MOL    H27 2451   7.974   2.515   1.139  2.5084 -0.6012 -2.3338
   13MOL    H28 2452   0.180   2.411   1.297  0.5146 -2.5214  0.5584
   13MOL    H29 2453   0.154   2.248   1.034  0.5797 -0.0718 -0.2119
   13MOL    H30 2454   0.351   2.155   1.196 -0.3224 -2.5615 -4.1317
   13MOL    H31 2455   0.395   2.322   1.214  0.0883 -0.5231 -0.9282
   13MOL    C32 2456   0.416   2.226   1.022  0.0514  0.2095  0.8575
   13MOL    C33 2457   0.367   2.119   0.933 -0.1134  0.3076  0.3502
   13MOL    C34 2458   0.440   2.010   0.908  0.0139 -0.4282 -0.0361
   13MOL    C35 2459   0.434   1.919   0.786 -0.0316  0.3048 -0.1431
   13MOL    H36 2460   0.420   2.325   0.978  0.1763 -0.2162 -0.1037
   13MOL    H37 2461   0.522   2.206   1.038  0.6212  2.2504 -0.1413
   13MOL    H38 2462   0.280   2.141   0.873  0.1815  0.9034  0.1414
   13MOL    H39 2463   0.520   1.982   0.975 -1.3328  0.2926  1.8997
   13MOL    H40 2464   0.361   1.965   0.719 -1.1449  0.0851  0.9011
   13MOL    H41 2465   0.412   1.813   0.799  0.7807 -0.1232 -2.0824
   13MOL    C42 2466   0.561   1.932   0.702 -1.0204  0.3179 -0.2952
   13MOL    C43 2467   0.692   1.932   0.780  0.1629 -0.1396  0.0685
   13MOL    C44 2468   0.747   1.813   0.822 -0.6572  0.3647  0.1467
   13MOL    C45 2469   0.882   1.802   0.889  0.0609  0.4748  0.2933
   13MOL    H46 2470   0.575   1.853   0.628  2.1283  2.8392 -2.5898
   13MOL    H47 2471   0.555   2.020   0.637 -0.0556  0.1825 -0.5750
   13MOL    H48 2472   0.736   2.030   0.790  0.2814 -0.3835  2.1502
   13MOL    H49 2473   0.702   1.721   0.789 -0.4018  0.4714 -0.4999
   13MOL    H50 2474   0.924   1.902   0.904  0.6899  0.1364  0.7955
   13MOL    H51 2475   0.947   1.766   0.809 -1.3761  0.8607 -1.0679
   13MOL    C52 2476   0.887   1.702   1.010 -0.0393  0.1589  0.4738
   13MOL    C53 2477   1.013   1.732   1.084 -0.3312  0.9029 -0.1866
   13MOL    C54 2478   1.101   1.641   1.121  0.7214  0.2373 -0.4459
   13MOL    C55 2479   1.242   1.651   1.190  0.2733  0.4114 -0.1153
   13MOL    H56 2480   0.797   1.716   1.070 -1.3329 -0.3451 -1.3184
   13MOL    H57 2481   0.886   1.598   0.979 -1.7232  0.4929 -0.6656
   13MOL    H58 2482   1.045   1.833   1.106  1.4144  0.8136 -2.2216
   13MOL    H59 2483   1.067   1.543   1.089 -0.9647  1.4450 -2.4926
   13MOL    H60 2484   1.272   1.752   1.218  1.7997  0.6105 -2.3416
   13MOL    H61 2485   1.313   1.614   1.117  1.2357 -1.7473  1.8713
   13MOL    C62 2486   1.244   1.549   1.311 -0.1422  0.3086  0.0349
   13MOL    C63 2487   1.161   1.601   1.426 -0.0152 -0.3691  0.4427
   13MOL    C64 2488   1.213   1.646   1.546 -0.2043  0.3063  0.3039
   13MOL    C65 2489   1.117   1.700   1.652 -0.1720 -0.2901 -0.0442
   13MOL    H66 2490   1.211   1.450   1.282  1.4977  0.3288 -1.9924
   13MOL    H67 2491   1.350   1.542   1.336  0.0754  0.2381 -0.8957
   13MOL    H68 2492   1.054   1.602   1.415  0.2205 -1.4953 -2.5345
   13MOL    H69 2493   1.319   1.649   1.565 -0.1548 -0.7845  0.2596
   13MOL    H70 2494   1.087   1.612   1.708 -0.1475  1.2503  2.4785
   13MOL    H71 2495   1.035   1.757   1.608 -0.0349  0.8023  1.0846
   13MOL    C72 2496   1.200   1.806   1.729 -0.3184 -0.5021 -0.2107
   13MOL    C73 2497   1.120   1.842   1.854 -0.0355 -0.4933  0.4176
   13MOL    C74 2498   1.046   1.953   1.860  0.5997 -0.2661 -0.5093
   13MOL    C75 2499   0.954   1.993   1.970 -0.3842  0.0048  0.3996
   13MOL    H76 2500   1.298   1.764   1.751 -0.6075 -0.5041  1.1401
   13MOL    H77 2501   1.218   1.896   1.671 -2.0416  0.3368  0.5208
   13MOL    H78 2502   1.120   1.766   1.931 -0.8942 -0.1909  0.7117
   13MOL    H79 2503   1.058   2.026   1.782  1.2855  1.4396  1.1707
   13MOL    H80 2504   0.965   1.918   2.048 -0.0959 -0.9956 -0.5938
   13MOL    H81 2505   0.856   2.002   1.925 -1.9493 -3.0488  3.0084
   13MOL    C82 2506   0.998   2.132   2.026 -0.8699 -0.7202 -0.2300
   13MOL    C83 2507   0.907   2.189   2.135 -0.3145 -0.2133  0.2118
   13MOL    C84 2508   0.931   2.189   2.266 -0.5948  0.6273 -0.2336
   13MOL    C85 2509   0.844   2.230   2.378  0.1669  0.1388  0.0631
   13MOL    H86 2510   1.104   2.130   2.049 -0.4812 -0.6935 -1.9769
   13MOL    H87 2511   1.005   2.201   1.943  2.0970  2.5708  2.6109
   13MOL    H88 2512   0.807   2.219   2.107 -0.5186  0.2778  1.4287
   13MOL    H89 2513   1.025   2.144   2.292 -1.0304 -0.5907 -0.6824
   13MOL    H90 2514   0.793   2.146   2.426  0.4803 -0.0622  0.0443
   13MOL    H91 2515   0.758   2.282   2.335  0.1359  0.2507  0.2580
   13MOL    C92 2516   0.902   2.336   2.468  0.2094 -0.8784 -0.0257
   13MOL    C93 2517   0.838   2.342   2.603  0.5059 -0.2246 -0.2147
   13MOL    C94 2518   0.818   2.456   2.672 -0.2413  0.3697  0.5227
   13MOL    C95 2519   0.747   2.450   2.811 -0.4768 -0.0657  0.5001
   13MOL    H96 2520   1.006   2.313   2.488  0.4025  0.2066  0.2576
   13MOL    H97 2521   0.892   2.434   2.421 -1.7202 -0.7285  0.6210
   13MOL    H98 2522   0.797   2.251   2.643 -1.1463  0.5129 -0.2136
   13MOL    H99 2523   0.856   2.555   2.650  1.6564 -0.6726 -1.0870
   13MOL   H100 2524   0.822   2.455   2.890 -1.7173 -0.4497  1.7273
   13MOL   H101 2525   0.707   2.348   2.821  0.3750 -0.5149 -0.6320
   13MOL   C102 2526   0.624   2.539   2.831 -0.1599  0.1866  0.5630
   13MOL   C103 2527   0.672   2.664   2.904 -0.0124  0.2486 -0.4912
   13MOL   C104 2528   0.620   2.786   2.913  0.1311 -0.7476  0.0225
   13MOL   C105 2529   0.684   2.908   2.976 -0.1247 -0.8394 -0.4999
   13MOL   H106 2530   0.585   2.572   2.734  0.2977 -1.3279 -0.1537
   13MOL   H107 2531   0.539   2.492   2.880  0.3262 -0.4290  0.8232
   13MOL   H108 2532   0.765   2.656   2.958 -0.1039  0.4758 -0.2992
   13MOL   H109 2533   0.528   2.811   2.863  0.4591 -1.0142 -0.7281
   13MOL   H110 2534   0.763   2.892   3.049 -1.1374 -0.7819  0.6293
   13MOL   H111 2535   0.609   2.950   3.043  2.3465  2.0941  0.5540
   13MOL   C112 2536   0.746   3.013   2.882  0.1183  0.2708 -0.0728
   13MOL   C113 2537   0.640   3.056   2.783 -0.4695  0.4600 -0.8364
   13MOL   C114 2538   0.655   3.065   2.650  0.2640 -0.2196  0.1205
   13MOL   C115 2539   0.534   3.084   2.559  0.6897  0.1942 -0.5308
   13MOL   H116 2540   0.769   3.104   2.938 -1.9252  0.7559  0.0357
   13MOL   H117 2541   0.841   2.987   2.836 -0.1322 -0.6972 -0.0483
   13MOL   H118 2542   0.544   3.078   2.827 -1.3363 -2.0657 -1.3712
   13MOL   H119 2543   0.743   3.028   2.599 -0.8467  0.1400 -2.1000
   13MOL   H120 2544   0.573   3.153   2.484  1.3801 -0.6375 -0.9433
   13MOL   H121 2545   0.451   3.125   2.617  1.0212 -0.0301  0.1047
   13MOL   C122 2546   0.488   2.952   2.505  0.6633 -0.5437  0.5072
   13MOL   C123 2547   0.591   2.882   2.413  0.0894  0.2392  0.3824
   13MOL   C124 2548   0.626   2.754   2.426 -0.3300 -0.2494 -0.0144
   13MOL   C125 2549   0.718   2.690   2.326  0.0229 -0.2889 -0.0941
   13MOL   H126 2550   0.463   2.891   2.591  1.0636 -1.4910 -0.0303
   13MOL   H127 2551   0.395   2.964   2.449  1.5241 -0.2516 -0.9005
   13MOL   H128 2552   0.613   2.930   2.319  0.8745  0.0460  0.4660
   13MOL   H129 2553   0.596   2.691   2.508  0.2010 -0.7569 -0.2035
   13MOL   H130 2554   0.811   2.655   2.371  0.5890 -0.9132 -1.7048
   13MOL   H131 2555   0.747   2.761   2.248 -1.4011  0.9901  0.5212
   13MOL   C132 2556   0.641   2.576   2.256  0.7004 -0.0661  0.3776
   13MOL   C133 2557   0.709   2.529   2.129  0.3219 -0.5782  0.4859
   13MOL   C134 2558   0.646   2.503   2.018 -0.3434 -0.1355  0.6662
   13MOL   C135 2559   0.721   2.462   1.885 -0.1358  0.1859  0.0159
   13MOL   H136 2560   0.621   2.489   2.318  0.7468  0.3604  0.9950
   13MOL   H137 2561   0.541   2.615   2.234  1.3593  1.4611  0.0132
   13MOL   H138 2562   0.815   2.508   2.138  0.0060 -1.9110  1.2140
   13MOL   H139 2563   0.542   2.531   2.015  0.3574  2.5380 -0.7591
   13MOL   H140 2564   0.681   2.363   1.864 -1.4740  0.9714 -1.2882
   13MOL   H141 2565   0.828   2.445   1.903 -0.1611  0.9305  0.8613
   13MOL   C142 2566   0.689   2.551   1.756  0.4725  0.0269  0.2397
   13MOL   C143 2567   0.553   2.519   1.705  0.5400 -0.1027 -0.0739
   13MOL   C144 2568   0.532   2.466   1.585  0.1865  0.2040  0.1904
   13MOL   C145 2569   0.396   2.430   1.526 -0.4181 -0.2643  0.1415
   13MOL   H146 2570   0.712   2.654   1.782  1.9940 -0.7241  2.0295
   13MOL   H147 2571   0.758   2.527   1.675 -0.6292  2.9616 -1.6421
   13MOL   H148 2572   0.467   2.543   1.765 -0.3645 -1.9325 -0.6045
   13MOL   H149 2573   0.614   2.431   1.524  1.8276  2.2851  1.1545
   13MOL   H150 2574   0.388   2.465   1.423 -1.0796 -2.5080 -0.6013
   13MOL   H151 2575   0.318   2.482   1.581 -0.1466 -0.5123  0.7605
   13MOL   C152 2576   0.384   2.278   1.516  0.0530  0.1524  0.1817
   13MOL   C153 2577   0.396   2.209   1.655  0.3838  1.1124  0.3014
   13MOL   C154 2578   0.450   2.090   1.695 -0.4249  0.4469  1.0042
   13MOL   C155 2579   0.449   2.056   1.838  1.0989  0.5442 -0.1743
   13MOL   H156 2580   0.283   2.267   1.475  0.2998 -1.8930  0.0868
   13MOL   H157 2581   0.459   2.246   1.444 -0.1671  0.6865 -0.2932
   13MOL   H158 2582   0.340   2.268   1.727  0.1404  0.9294  0.2634
   13MOL   H159 2583   0.488   2.019   1.623  1.2999  2.9849 -0.6728
   13MOL   H160 2584   0.428   2.144   1.899 -0.0268  0.5934 -0.6277
   13MOL   H161 2585   0.548   2.022   1.869 -1.9286 -5.4848  4.0102
   13MOL   C162 2586   0.342   1.950   1.870 -0.1691  0.2604  0.3489
   13MOL   C163 2587   0.339   1.912   2.015 -0.2856  0.1401 -0.0805
   13MOL   C164 2588   0.229   1.938   2.086 -0.4108 -0.1099 -0.0611
   13MOL   C165 2589   0.211   1.880   2.224  0.7351 -0.3408  0.6506
   13MOL   H166 2590   0.243   1.978   1.834 -0.1925 -0.5395 -0.2066
   13MOL   H167 2591   0.374   1.863   1.814 -0.6830  0.1426  0.2445
   13MOL   H168 2592   0.409   1.845   2.062 -0.4802  0.1919  0.2921
   13MOL   H169 2593   0.146   1.989   2.039  0.0037  1.9081  1.3026
   13MOL   H170 2594   0.304   1.831   2.255 -0.8064 -3.5109  0.4331
   13MOL   H171 2595   0.135   1.802   2.221 -0.0360  0.4191  0.5059
   13MOL   C172 2596   0.176   1.994   2.321  0.2818  0.2162  0.2665
   13MOL   C173 2597   0.185   1.971   2.467  0.0038  0.2496  0.2515
   13MOL   C174 2598   0.117   2.036   2.559 -0.7862 -0.0422 -0.4000
   13MOL   C175 2599   0.145   2.028   2.711  0.9310  0.1833  0.2160
   13MOL   H176 2600   0.248   2.075   2.307 -0.2415  0.8688  1.2967
   13MOL   H177 2601   0.079   2.020   2.280 -0.1143 -1.3955  0.1480
   13MOL   H178 2602   0.262   1.902   2.499  0.2858  1.5381  2.4327
   13MOL   H179 2603   0.051   2.114   2.524 -1.3263 -1.2991 -2.2819
   13MOL   H180 2604   0.197   2.122   2.735 -0.3187  1.2894 -1.3609
   13MOL   H181 2605   0.218   1.951   2.737 -1.5372 -1.9051  1.0815
   13MOL   C182 2606   0.013   2.012   2.793  0.0233  0.5226 -1.0540
   13MOL   C183 2607   7.914   1.883   2.764 -0.1962 -0.0762  0.0645
   13MOL   C184 2608   7.802   1.877   2.694 -0.0303  0.4988 -0.4157
   13MOL   C185 2609   7.735   1.749   2.654  0.3996  0.0099  0.1242
   13MOL   H186 2610   0.040   2.005   2.898  0.5890  0.0390 -1.2337
   13MOL   H187 2611   7.922   2.097   2.788 -1.8451 -0.8255  0.7170
   13MOL   H188 2612   7.970   1.791   2.775 -0.1108 -0.1097 -0.5916
   13MOL   H189 2613   7.749   1.964   2.659  1.1611  1.9150  1.2209
   13MOL   H190 2614   7.630   1.745   2.682  0.6144  2.8265  1.4870
   13MOL   H191 2615   7.790   1.673   2.710 -2.4005 -0.5583  2.1654
   13MOL   C192 2616   7.748   1.731   2.499  0.3919 -0.0439 -0.1937
   13MOL   C193 2617   7.688   1.599   2.459 -0.2353 -0.2105  0.2641
   13MOL   C194 2618   7.620   1.585   2.345 -0.0913 -0.4278 -0.6653
   13MOL   C195 2619   7.575   1.455   2.282  0.4226 -0.0014 -1.0908
   13MOL   H196 2620   7.696   1.811   2.447 -0.5884  0.8398  2.0714
   13MOL   H197 2621   7.853   1.730   2.471  0.3288 -1.4017 -0.3928
   13MOL   H198 2622   7.724   1.513   2.513  1.9063  0.4666 -0.0222
   13MOL   H199 2623   7.599   1.676   2.290 -1.0425  1.1668  2.1992
   13MOL   H200 2624   7.473   1.466   2.245  0.1272  1.4903  0.1508
   13MOL   H201 2625   7.587   1.371   2.351 -1.2555  1.8066  1.4679
   13MOL   H202 2626   7.636   1.438   2.193  2.1210 -0.5586  0.1597
   14MOL     C1 2627   2.792   2.521   6.135  0.4048 -0.0682  0.5990
   14MOL     C2 2628   2.904   2.580   6.222  1.0580 -0.5268 -0.1919
   14MOL     C3 2629   3.025   2.524   6.232  0.4707 -0.4787  0.1845
   14MOL     C4 2630   3.135   2.583   6.315  0.9008 -0.2929 -0.6157
   14MOL     H5 2631   2.744   2.607   6.089 -0.5942 -0.6766  0.4714
   14MOL     H6 2632   2.717   2.470   6.197  0.9650 -1.6412 -0.0028
   14MOL     H7 2633   2.885   2.667   6.282  2.2425 -0.3254 -0.1042
   14MOL     H8 2634   3.035   2.434   6.174 -1.5431 -0.2274 -0.6013
   14MOL     H9 2635   3.109   2.685   6.344 -0.7561 -1.6828  3.1725
   14MOL    H10 2636   3.223   2.585   6.251  0.8796 -0.8736 -0.6675
   14MOL    H11 2637   2.811   2.458   6.048 -1.1076 -0.1819  0.3252
   14MOL    C12 2638   3.161   2.507   6.446  0.3750 -0.1101  0.6283
   14MOL    C13 2639   3.265   2.569   6.540  0.0349 -0.1886 -0.5537
   14MOL    C14 2640   3.361   2.502   6.603  0.0722  0.3541  0.2068
   14MOL    C15 2641   3.451   2.563   6.704 -0.7908  0.2648  0.4341
   14MOL    H16 2642   3.068   2.501   6.502 -2.3616  1.3681 -3.5124
   14MOL    H17 2643   3.190   2.404   6.426  0.3656  0.2532 -1.3453
   14MOL    H18 2644   3.241   2.672   6.561 -2.5772 -1.2496  2.0180
   14MOL    H19 2645   3.377   2.398   6.578  1.4779  0.5650  0.1919
   14MOL    H20 2646   3.415   2.531   6.802 -0.0502  1.0368  0.9630
   14MOL    H21 2647   3.462   2.671   6.700 -3.0962  0.5243  0.8387
   14MOL    C22 2648   3.601   2.508   6.684 -0.3192  0.5107 -0.2674
   14MOL    C23 2649   3.682   2.557   6.804 -0.3116  0.0736 -1.0396
   14MOL    C24 2650   3.741   2.676   6.812  0.0549 -0.4960 -0.3746
   14MOL    C25 2651   3.808   2.723   6.934 -0.7671 -0.4497  0.8006
   14MOL    H26 2652   3.609   2.399   6.675  0.1358  0.3476  1.7499
   14MOL    H27 2653   3.648   2.542   6.592  1.9927 -1.5383  0.0760
   14MOL    H28 2654   3.681   2.491   6.889 -1.0311 -0.4961 -1.4892
   14MOL    H29 2655   3.741   2.739   6.724  0.7453 -1.3620 -0.9927
   14MOL    H30 2656   3.784   2.660   7.020  0.8475 -0.2962  1.3721
   14MOL    H31 2657   3.782   2.826   6.957  1.8494  0.2173  0.8973
   14MOL    C32 2658   3.962   2.724   6.911 -0.2165  0.3971  0.0864
   14MOL    C33 2659   4.059   2.751   7.027 -0.9328 -0.6205 -0.2467
   14MOL    C34 2660   4.148   2.850   7.036  0.4552 -0.0498 -0.0004
   14MOL    C35 2661   4.253   2.861   7.141 -0.5689 -0.5340 -0.3860
   14MOL    H36 2662   3.986   2.623   6.877 -2.7963 -1.0628  2.3510
   14MOL    H37 2663   3.971   2.804   6.838  0.1804  3.0665  2.9897
   14MOL    H38 2664   4.053   2.670   7.099 -1.0198 -1.3804 -1.0908
   14MOL    H39 2665   4.149   2.927   6.960 -2.6064 -0.4385 -0.5239
   14MOL    H40 2666   4.352   2.876   7.097 -0.0390  2.1905  1.6337
   14MOL    H41 2667   4.256   2.774   7.207 -1.2561 -1.1562 -1.1524
   14MOL    C42 2668   4.223   2.984   7.234  0.6401  0.2675 -0.2398
   14MOL    C43 2669   4.335   3.025   7.331 -0.0419 -0.5287 -0.1384
   14MOL    C44 2670   4.461   2.985   7.329 -0.5414 -0.7240 -0.0499
   14MOL    C45 2671   4.573   3.043   7.404 -0.1050 -0.5520 -0.0456
   14MOL    H46 2672   4.193   3.071   7.176 -2.0500 -0.4639 -0.0172
   14MOL    H47 2673   4.142   2.960   7.303 -0.7098  0.6535 -1.6466
   14MOL    H48 2674   4.293   3.098   7.397 -0.6602 -0.1140 -0.9823
   14MOL    H49 2675   4.492   2.909   7.258 -2.8477 -2.5299  0.8266
   14MOL    H50 2676   4.634   2.959   7.439  0.2768  0.4454  1.7231
   14MOL    H51 2677   4.535   3.097   7.491  1.4187  1.7965 -0.7878
   14MOL    C52 2678   4.663   3.140   7.327  0.3108  0.5435  0.1541
   14MOL    C53 2679   4.791   3.156   7.394 -0.3543  0.7071 -0.9230
   14MOL    C54 2680   4.818   3.265   7.467 -0.2765  0.3167 -0.3267
   14MOL    C55 2681   4.959   3.289   7.520  0.0133  0.6942 -0.1960
   14MOL    H56 2682   4.698   3.098   7.233 -1.2765  0.1519 -0.2723
   14MOL    H57 2683   4.612   3.236   7.312  1.4618  1.6215  2.7405
   14MOL    H58 2684   4.872   3.089   7.369  0.4063  1.0722  0.5608
   14MOL    H59 2685   4.751   3.340   7.506  1.1803  1.8228 -0.6369
   14MOL    H60 2686   5.028   3.225   7.465 -1.4226 -1.7576  0.7657
   14MOL    H61 2687   4.963   3.263   7.626 -1.0419  0.0326 -0.3100
   14MOL    C62 2688   4.999   3.434   7.502  0.0196  0.4312 -0.0863
   14MOL    C63 2689   5.119   3.472   7.594 -0.4489 -0.2718  0.4483
   14MOL    C64 2690   5.245   3.503   7.552 -0.0946 -0.0946 -0.4717
   14MOL    C65 2691   5.354   3.529   7.658 -0.5985  0.0890  0.0696
   14MOL    H66 2692   5.004   3.466   7.398  0.7151  0.5236 -0.0296
   14MOL    H67 2693   4.921   3.499   7.542  1.3605  3.1153 -1.6828
   14MOL    H68 2694   5.105   3.471   7.701 -1.1732  3.3050  0.4286
   14MOL    H69 2695   5.270   3.507   7.447 -0.2743 -3.4856 -0.6847
   14MOL    H70 2696   5.319   3.466   7.740 -0.4400 -0.9623 -0.6550
   14MOL    H71 2697   5.362   3.631   7.695  0.4570 -0.2889  0.8929
   14MOL    C72 2698   5.494   3.491   7.607 -0.1961 -0.4121  0.4321
   14MOL    C73 2699   5.595   3.483   7.723 -1.4073  0.4808  0.3602
   14MOL    C74 2700   5.630   3.372   7.791  0.7885  0.8189 -0.1705
   14MOL    C75 2701   5.717   3.368   7.908  0.2801  0.1485 -0.1509
   14MOL    H76 2702   5.482   3.395   7.558 -1.0080  0.6091 -1.4034
   14MOL    H77 2703   5.529   3.558   7.529 -0.7200 -0.3199  0.2763
   14MOL    H78 2704   5.622   3.582   7.759 -0.5033  0.1963  0.4769
   14MOL    H79 2705   5.593   3.280   7.748 -2.0309  2.3908 -1.2821
   14MOL    H80 2706   5.715   3.458   7.969  1.5806 -0.2497  0.5095
   14MOL    H81 2707   5.820   3.345   7.880  0.9344  2.7651 -0.0386
   14MOL    C82 2708   5.669   3.256   0.032  0.5066 -0.0399  0.7913
   14MOL    C83 2709   5.537   3.289   0.097 -0.3428 -0.0887  0.1173
   14MOL    C84 2710   5.426   3.217   0.098  0.0522 -0.3254 -0.0272
   14MOL    C85 2711   5.289   3.247   0.155  0.6893  0.2668  0.3945
   14MOL    H86 2712   5.661   3.159   7.959 -1.1952  0.7543 -0.5425
   14MOL    H87 2713   5.722   3.240   0.126 -0.9053  1.6291  1.8958
   14MOL    H88 2714   5.538   3.388   0.141  0.1563  1.0290 -2.2874
   14MOL    H89 2715   5.434   3.119   0.053  0.6807 -0.2710 -0.0418
   14MOL    H90 2716   5.307   3.328   0.226  3.1550  1.1486 -1.1593
   14MOL    H91 2717   5.253   3.156   0.202 -0.9139  1.3783  1.3836
   14MOL    C92 2718   5.183   3.287   0.050 -0.3327  0.1492  0.4793
   14MOL    C93 2719   5.094   3.168   0.014 -0.6106 -0.8161 -0.0506
   14MOL    C94 2720   5.061   3.133   7.867 -0.4300 -0.4489 -0.3550
   14MOL    C95 2721   4.981   3.008   7.825  0.3499 -0.3998  0.4060
   14MOL    H96 2722   5.124   3.367   0.095 -1.0854  0.4061 -0.9335
   14MOL    H97 2723   5.238   3.317   7.938 -0.1669 -0.4741  0.3651
   14MOL    H98 2724   5.063   3.104   0.096 -2.5372  0.8649  0.5776
   14MOL    H99 2725   5.101   3.189   7.783  0.9713 -1.2726 -0.2599
   14MOL   H100 2726   4.886   3.045   7.787 -0.0968 -1.9351 -0.0051
   14MOL   H101 2727   4.950   2.939   7.903 -0.8471 -0.9428 -0.5210
   14MOL   C102 2728   5.045   2.938   7.710 -0.7302 -0.0942  0.8153
   14MOL   C103 2729   4.956   2.820   7.667  0.3018  0.1481 -0.0029
   14MOL   C104 2730   4.877   2.815   7.561  0.1655 -0.2906  0.2534
   14MOL   C105 2731   4.799   2.694   7.513 -0.2797  0.7529 -0.3744
   14MOL   H106 2732   5.052   3.000   7.621  0.2711 -1.0842  0.1833
   14MOL   H107 2733   5.148   2.910   7.731  0.4304  2.2740 -1.5070
   14MOL   H108 2734   4.961   2.735   7.735  1.5535  0.5449  0.4046
   14MOL   H109 2735   4.873   2.907   7.506  1.1868  0.9162  2.1301
   14MOL   H110 2736   4.696   2.725   7.498  0.0171  1.6042 -0.6531
   14MOL   H111 2737   4.802   2.614   7.587 -0.5825  1.8389  0.8137
   14MOL   C112 2738   4.853   2.640   7.371  0.0259 -0.8869  0.1307
   14MOL   C113 2739   4.980   2.558   7.379  0.1799  0.2778  0.1644
   14MOL   C114 2740   5.080   2.580   7.299  0.2165 -0.3384  0.3661
   14MOL   C115 2741   5.210   2.508   7.302  0.0564 -0.1003  0.4471
   14MOL   H116 2742   4.777   2.576   7.326 -0.4577 -0.8382  0.8808
   14MOL   H117 2743   4.859   2.721   7.298  2.6521 -0.8393  0.3506
   14MOL   H118 2744   4.997   2.503   7.471  0.4552 -0.8614 -0.5633
   14MOL   H119 2745   5.066   2.657   7.225 -0.7224 -1.1908 -0.3542
   14MOL   H120 2746   5.227   2.486   7.197 -2.2933  0.9470 -0.1880
   14MOL   H121 2747   5.198   2.411   7.352 -0.2522 -0.8363 -1.0247
   14MOL   C122 2748   5.321   2.582   7.363  0.2370  0.7941  0.1191
   14MOL   C123 2749   5.344   2.720   7.297  0.5267 -0.0032  1.0379
   14MOL   C124 2750   5.331   2.830   7.371 -0.3435 -0.0114  0.1942
   14MOL   C125 2751   5.368   2.977   7.325  0.5148 -0.3175 -0.0630
   14MOL   H126 2752   5.296   2.603   7.468 -0.9620  3.2869 -0.6265
   14MOL   H127 2753   5.406   2.518   7.344 -0.0131  0.6885 -0.6457
   14MOL   H128 2754   5.379   2.726   7.195  1.0740  0.0516  1.2291
   14MOL   H129 2755   5.311   2.810   7.476  0.7566  1.0313  0.6236
   14MOL   H130 2756   5.447   2.964   7.250  0.7383 -2.0837  0.4566
   14MOL   H131 2757   5.422   3.019   7.410  0.8474  0.5429 -0.6814
   14MOL   C132 2758   5.249   3.065   7.278  0.7567  0.2578  0.0793
   14MOL   C133 2759   5.291   3.200   7.256 -0.2266 -0.6074  0.3450
   14MOL   C134 2760   5.241   3.287   7.166 -0.1259 -0.6523  0.6092
   14MOL   C135 2761   5.272   3.436   7.159 -0.2524 -0.6082  0.3952
   14MOL   H136 2762   5.209   3.022   7.186  0.6649  0.2557  0.1199
   14MOL   H137 2763   5.171   3.071   7.354  0.0941  2.5352 -0.7186
   14MOL   H138 2764   5.362   3.234   7.330 -1.8742 -1.3768  2.3492
   14MOL   H139 2765   5.158   3.245   7.111 -0.5155  1.5230 -0.5054
   14MOL   H140 2766   5.359   3.453   7.223 -0.7878  1.5818  0.5857
   14MOL   H141 2767   5.196   3.489   7.217  0.9156  1.4732  0.0740
   14MOL   C142 2768   5.312   3.492   7.021  0.5444 -0.5571  0.3617
   14MOL   C143 2769   5.347   3.638   7.032  0.1197 -0.0915 -1.1060
   14MOL   C144 2770   5.473   3.686   7.022  0.1339  0.5804 -0.3407
   14MOL   C145 2771   5.518   3.830   6.993 -0.6259 -0.4025 -0.0460
   14MOL   H146 2772   5.393   3.434   6.978 -0.2823 -0.3101 -1.6126
   14MOL   H147 2773   5.227   3.484   6.953  1.4228 -0.1454 -0.8086
   14MOL   H148 2774   5.264   3.707   7.039 -0.2899 -0.6287 -0.4660
   14MOL   H149 2775   5.552   3.612   7.024 -0.2511  0.1797  0.1069
   14MOL   H150 2776   5.572   3.869   7.080 -0.7714  0.9382 -0.5446
   14MOL   H151 2777   5.432   3.897   6.984 -1.9543 -1.8217  1.6279
   14MOL   C152 2778   5.599   3.842   6.858  0.2962 -0.4022  0.6295
   14MOL   C153 2779   5.738   3.787   6.880  0.9171  0.5283  0.1273
   14MOL   C154 2780   5.859   3.839   6.840  0.4174  0.7695  0.5080
   14MOL   C155 2781   5.992   3.780   6.872 -0.6492  0.3022  0.6318
   14MOL   H156 2782   5.557   3.793   6.770 -0.8041  0.0912  0.8738
   14MOL   H157 2783   5.592   3.949   6.837  0.5970  0.2798  3.8110
   14MOL   H158 2784   5.738   3.699   6.942  0.5600  0.4374  0.0014
   14MOL   H159 2785   5.853   3.926   6.777  0.1807  0.8847  0.6932
   14MOL   H160 2786   6.052   3.871   6.877 -2.3416  1.5140 -0.5900
   14MOL   H161 2787   6.042   3.732   6.788  0.3094  1.3954  0.5591
   14MOL   C162 2788   5.997   3.718   7.013 -0.4594  0.1019 -0.3308
   14MOL   C163 2789   6.127   3.686   7.068  0.5988  0.5829  0.2696
   14MOL   C164 2790   6.168   3.562   7.096 -0.3428  0.4230 -0.6079
   14MOL   C165 2791   6.302   3.526   7.136  0.5756  0.0334  0.1879
   14MOL   H166 2792   5.951   3.791   7.080 -0.9795  1.9319 -2.5977
   14MOL   H167 2793   5.939   3.628   6.997 -0.6445  0.5270 -2.2262
   14MOL   H168 2794   6.202   3.762   7.085  1.2091 -0.2233  1.2524
   14MOL   H169 2795   6.098   3.480   7.101 -0.5957  0.6613 -0.1078
   14MOL   H170 2796   6.311   3.546   7.243  1.9932 -2.2204  0.5201
   14MOL   H171 2797   6.364   3.592   7.074 -0.1583  0.8660  0.3434
   14MOL   C172 2798   6.338   3.377   7.105  0.3852 -0.2299  0.3463
   14MOL   C173 2799   6.269   3.278   7.190 -0.8058  0.1958  0.4580
   14MOL   C174 2800   6.198   3.168   7.143 -0.3157  0.6913  0.2146
   14MOL   C175 2801   6.134   3.069   7.236 -0.2057  0.6047 -0.3749
   14MOL   H176 2802   6.344   3.364   6.997 -3.6830 -2.1456  0.2655
   14MOL   H177 2803   6.440   3.370   7.142  0.6903  0.7039 -0.3213
   14MOL   H178 2804   6.279   3.292   7.296 -0.2989  0.8465  0.3268
   14MOL   H179 2805   6.182   3.158   7.037  0.5011  3.0551 -0.1746
   14MOL   H180 2806   6.042   3.031   7.192 -0.7108 -0.0750  1.2722
   14MOL   H181 2807   6.091   3.116   7.324 -0.9241  0.0184 -0.4043
   14MOL   C182 2808   6.236   2.956   7.271  0.5227  0.0116 -0.1209
   14MOL   C183 2809   6.198   2.871   7.394 -1.7086 -0.0379 -0.6090
   14MOL   C184 2810   6.229   2.736   7.398  0.5407 -0.2789  0.1315
   14MOL   C185 2811   6.196   2.649   7.519 -0.2947  0.0539 -0.5158
   14MOL   H186 2812   6.255   2.892   7.185 -0.8702 -1.2460  0.4838
   14MOL   H187 2813   6.330   2.997   7.307  0.7613 -0.7804  0.1724
   14MOL   H188 2814   6.167   2.923   7.483  1.3180  1.0063 -0.1123
   14MOL   H189 2815   6.265   2.685   7.310  0.7383 -0.2068  0.1711
   14MOL   H190 2816   6.132   2.702   7.590 -1.5189 -0.9473 -0.8597
   14MOL   H191 2817   6.286   2.635   7.579 -1.4347  2.4335  1.8389
   14MOL   C192 2818   6.126   2.521   7.485 -0.2927  0.0536  1.0477
   14MOL   C193 2819   6.022   2.540   7.373 -0.1904 -0.0192  0.1689
   14MOL   C194 2820   6.010   2.461   7.265  0.0419  0.3893 -0.7684
   14MOL   C195 2821   5.902   2.471   7.158  0.2058  0.5512  0.1786
   14MOL   H196 2822   6.198   2.449   7.446  0.6948  0.9556  1.1790
   14MOL   H197 2823   6.070   2.486   7.572  0.4920 -1.7327  0.8512
   14MOL   H198 2824   5.941   2.607   7.395 -1.3538 -0.8310 -1.5673
   14MOL   H199 2825   6.084   2.387   7.240 -0.2107  0.3006 -1.2423
   14MOL   H200 2826   5.849   2.377   7.142  0.4479  0.6972 -1.5632
   14MOL   H201 2827   5.946   2.495   7.061 -2.1650 -0.9194 -1.3084
   14MOL   H202 2828   5.818   2.537   7.179 -2.8076 -2.6343 -1.2726
   15MOL     C1 2829   1.559   2.670   3.234 -0.9175  0.0443 -0.4645
   15MOL     C2 2830   1.699   2.706   3.177 -0.3956  0.3506 -0.0852
   15MOL     C3 2831   1.794   2.791   3.226 -0.5696 -0.5417 -0.5344
   15MOL     C4 2832   1.923   2.826   3.154 -0.5807  0.6034  0.5297
   15MOL     H5 2833   1.554   2.566   3.266 -1.6148 -0.0871 -0.9878
   15MOL     H6 2834   1.475   2.687   3.167 -0.7065  1.5508 -0.3565
   15MOL     H7 2835   1.703   2.674   3.074 -0.2641  1.2664 -0.3734
   15MOL     H8 2836   1.783   2.840   3.322 -2.5904 -0.5601 -0.7503
   15MOL     H9 2837   1.914   2.934   3.149  1.5997  0.8061  0.7534
   15MOL    H10 2838   1.921   2.795   3.050 -1.9216  2.1345  0.0752
   15MOL    H11 2839   1.523   2.740   3.309  0.5599  2.1547 -1.6749
   15MOL    C12 2840   2.056   2.787   3.233  0.2175 -0.4664  0.0398
   15MOL    C13 2841   2.088   2.638   3.193  0.3311  0.1432 -0.0270
   15MOL    C14 2842   2.194   2.598   3.121  0.3708 -0.4213 -0.7913
   15MOL    C15 2843   2.224   2.449   3.102  0.6085  0.3863  0.1640
   15MOL    H16 2844   2.129   2.851   3.183  0.1251  1.0151  1.7653
   15MOL    H17 2845   2.041   2.807   3.339  1.1161  1.3318 -0.1669
   15MOL    H18 2846   2.034   2.565   3.251  1.7957 -0.0573  1.1112
   15MOL    H19 2847   2.250   2.667   3.060  1.4615  0.3945  1.0721
   15MOL    H20 2848   2.143   2.415   3.037  1.5743 -1.3607 -0.1612
   15MOL    H21 2849   2.215   2.399   3.198  0.3968  0.0304 -0.0362
   15MOL    C22 2850   2.364   2.423   3.048  0.3224 -0.3865  0.3385
   15MOL    C23 2851   2.386   2.275   3.028 -0.4218  0.3973 -0.3852
   15MOL    C24 2852   2.498   2.207   3.067  0.0216  0.7449  0.3576
   15MOL    C25 2853   2.511   2.056   3.054 -0.3285  0.4610 -0.6740
   15MOL    H26 2854   2.375   2.473   2.952  0.1377 -1.5182 -0.2955
   15MOL    H27 2855   2.440   2.467   3.111 -0.4517 -0.5647  1.4063
   15MOL    H28 2856   2.301   2.213   3.002 -0.1465 -1.5000  2.8821
   15MOL    H29 2857   2.585   2.255   3.109  3.4577 -3.1898 -1.8454
   15MOL    H30 2858   2.564   2.039   2.961 -0.2092  0.0819 -0.5374
   15MOL    H31 2859   2.415   2.006   3.052 -0.2523  0.2545  0.2921
   15MOL    C32 2860   2.602   1.991   3.164  0.3037 -0.8242 -0.0704
   15MOL    C33 2861   2.591   1.836   3.171 -0.9595  0.2992  0.4135
   15MOL    C34 2862   2.679   1.749   3.115 -0.0005  0.2841  0.6108
   15MOL    C35 2863   2.654   1.601   3.113  0.2422  0.4069  0.2767
   15MOL    H36 2864   2.703   2.028   3.150 -0.4414  1.7465  1.0879
   15MOL    H37 2865   2.566   2.025   3.261 -0.5940 -1.9338 -0.0047
   15MOL    H38 2866   2.500   1.792   3.208 -2.8741  1.3479 -2.9075
   15MOL    H39 2867   2.776   1.776   3.074  0.8570 -1.2149  1.6094
   15MOL    H40 2868   2.713   1.555   3.033  0.9036  0.3651  0.7876
   15MOL    H41 2869   2.547   1.591   3.095  0.5551 -0.6798 -1.1101
   15MOL    C42 2870   2.695   1.543   3.250  0.0426  0.2277 -0.3434
   15MOL    C43 2871   2.607   1.420   3.272 -0.0434 -0.2819  0.2975
   15MOL    C44 2872   2.515   1.417   3.371 -0.7913  0.7498 -0.0296
   15MOL    C45 2873   2.415   1.304   3.384  0.4480 -0.7991  0.5965
   15MOL    H46 2874   2.798   1.510   3.236  0.0988 -0.1588  0.9947
   15MOL    H47 2875   2.701   1.620   3.326 -1.5081  1.5571 -1.5201
   15MOL    H48 2876   2.615   1.346   3.193 -1.0881  0.1054 -0.1880
   15MOL    H49 2877   2.496   1.489   3.449 -4.4083  0.0319 -0.1401
   15MOL    H50 2878   2.421   1.253   3.288 -1.0331  0.2199 -0.0587
   15MOL    H51 2879   2.310   1.333   3.391  0.9095  1.7138 -1.9114
   15MOL    C52 2880   2.446   1.205   3.504 -0.6063 -0.0640 -0.6850
   15MOL    C53 2881   2.414   1.258   3.645 -0.7178  0.3575  0.1479
   15MOL    C54 2882   2.506   1.273   3.740 -0.0164  0.6057 -0.4528
   15MOL    C55 2883   2.457   1.313   3.876  0.4223 -0.8683 -0.0666
   15MOL    H56 2884   2.398   1.108   3.492 -1.5814  0.2331  0.7126
   15MOL    H57 2885   2.554   1.192   3.509 -0.3187  2.2306 -0.3251
   15MOL    H58 2886   2.308   1.265   3.665 -1.1711  0.3197 -2.1077
   15MOL    H59 2887   2.608   1.253   3.709 -0.5745 -1.3646 -1.0740
   15MOL    H60 2888   2.511   1.264   3.957 -1.0442 -2.6805 -0.1474
   15MOL    H61 2889   2.361   1.266   3.897  0.0839 -0.1184  0.0652
   15MOL    C62 2890   2.462   1.469   3.906  0.0942  1.1538 -0.0221
   15MOL    C63 2891   2.371   1.505   4.022 -0.2047  0.6124  0.8400
   15MOL    C64 2892   2.289   1.605   4.031 -0.3117 -0.8002 -0.4961
   15MOL    C65 2893   2.216   1.654   4.153  0.4503 -0.6547 -0.0433
   15MOL    H66 2894   2.566   1.477   3.935  1.0637 -0.5445 -2.8468
   15MOL    H67 2895   2.444   1.525   3.815  1.9456 -0.4373 -1.4029
   15MOL    H68 2896   2.387   1.450   4.113  1.7642 -0.2323  0.0099
   15MOL    H69 2897   2.280   1.669   3.945 -1.6982  1.2292  1.0984
   15MOL    H70 2898   2.222   1.579   4.232 -0.7905 -1.0399 -0.3089
   15MOL    H71 2899   2.111   1.653   4.124  0.4776 -1.3127 -0.1360
   15MOL    C72 2900   2.261   1.793   4.199  0.2837  0.5142  0.0763
   15MOL    C73 2901   2.180   1.844   4.309  0.6974  0.1804  0.1159
   15MOL    C74 2902   2.114   1.959   4.294  0.1807 -0.5425 -0.2256
   15MOL    C75 2903   2.033   2.033   4.401 -0.0629  0.0584  0.1776
   15MOL    H76 2904   2.365   1.791   4.232  0.5753  0.5206 -0.8263
   15MOL    H77 2905   2.249   1.846   4.105 -1.8778 -0.3834 -0.1923
   15MOL    H78 2906   2.184   1.793   4.404 -1.5503  1.3020  0.8323
   15MOL    H79 2907   2.121   2.006   4.197  0.0039 -1.4188 -0.6678
   15MOL    H80 2908   2.050   1.995   4.502  0.6333  0.3346  0.1641
   15MOL    H81 2909   1.925   2.027   4.389 -0.1160 -0.8619  1.0097
   15MOL    C82 2910   2.072   2.183   4.419  0.0610 -0.0324 -0.3173
   15MOL    C83 2911   2.019   2.230   4.549  0.1490 -1.2036  0.0810
   15MOL    C84 2912   2.095   2.286   4.647 -0.1695  0.5031 -0.0738
   15MOL    C85 2913   2.040   2.343   4.782  0.2429 -0.1024  0.5427
   15MOL    H86 2914   2.177   2.204   4.401  0.2236 -1.1689 -0.7040
   15MOL    H87 2915   2.015   2.221   4.333 -0.5754  0.7851  0.4509
   15MOL    H88 2916   1.911   2.225   4.557  0.1624  0.5574  1.8475
   15MOL    H89 2917   2.199   2.316   4.636 -0.6196  2.1136 -0.1649
   15MOL    H90 2918   2.054   2.269   4.860  2.1377  0.2079  0.5343
   15MOL    H91 2919   1.935   2.369   4.769 -0.2330 -1.0257  2.3375
   15MOL    C92 2920   2.110   2.470   4.824 -0.4655 -0.2084 -0.0945
   15MOL    C93 2921   2.066   2.507   4.963 -0.2315  0.1317 -0.1359
   15MOL    C94 2922   2.062   2.631   5.016  0.2310 -0.2315 -0.1512
   15MOL    C95 2923   2.023   2.655   5.159  0.0441 -0.0729 -0.5810
   15MOL    H96 2924   2.219   2.463   4.823 -0.4549  0.0892 -1.9548
   15MOL    H97 2925   2.090   2.557   4.762  1.3828 -0.3259 -0.8727
   15MOL    H98 2926   2.045   2.428   5.033 -0.2616 -0.8878 -1.2601
   15MOL    H99 2927   2.096   2.709   4.949  2.8272 -0.1035  1.2485
   15MOL   H100 2928   2.101   2.667   5.235  0.4439 -0.9908 -0.8423
   15MOL   H101 2929   1.972   2.564   5.190 -0.1152  0.1455 -0.1944
   15MOL   C102 2930   1.931   2.776   5.186 -0.1931  0.0362 -0.2610
   15MOL   C103 2931   1.845   2.782   5.317  0.0577 -0.0099  0.4123
   15MOL   C104 2932   1.709   2.768   5.310 -0.0931  0.0090  0.3421
   15MOL   C105 2933   1.617   2.749   5.423  0.3792  0.0738 -1.0904
   15MOL   H106 2934   1.992   2.867   5.178 -0.2405  0.2592  1.5970
   15MOL   H107 2935   1.869   2.786   5.097 -0.3249 -1.2270 -0.3074
   15MOL   H108 2936   1.900   2.780   5.410  1.0590 -0.9904 -0.1992
   15MOL   H109 2937   1.654   2.771   5.217 -1.0293 -1.5058  0.8422
   15MOL   H110 2938   1.674   2.747   5.516  2.1776  0.3299 -2.1694
   15MOL   H111 2939   1.576   2.649   5.439 -1.3214  1.0186  0.6873
   15MOL   C112 2940   1.493   2.840   5.415  0.5189 -0.2451  0.3452
   15MOL   C113 2941   1.531   2.966   5.486 -0.1058 -0.0175 -0.1225
   15MOL   C114 2942   1.491   3.085   5.447 -0.3987  0.0055  0.7300
   15MOL   C115 2943   1.525   3.220   5.508  0.1639 -0.0432  0.4927
   15MOL   H116 2944   1.438   2.861   5.323 -0.0406 -3.4969 -0.1139
   15MOL   H117 2945   1.415   2.792   5.474  2.0467 -2.4526  0.6188
   15MOL   H118 2946   1.591   2.949   5.574  1.8403 -0.7867 -1.5311
   15MOL   H119 2947   1.428   3.092   5.360  0.7318  1.8603  0.0303
   15MOL   H120 2948   1.598   3.200   5.587 -0.9106 -2.9149  0.7965
   15MOL   H121 2949   1.437   3.264   5.555 -0.3760  0.0228 -0.5722
   15MOL   C122 2950   1.585   3.314   5.404 -0.1853 -0.2253  0.0990
   15MOL   C123 2951   1.641   3.429   5.481  0.4846 -0.6122 -0.1373
   15MOL   C124 2952   1.770   3.464   5.480  0.3408  0.2351  0.0115
   15MOL   C125 2953   1.827   3.589   5.549 -0.3732  0.7284  0.0833
   15MOL   H126 2954   1.664   3.270   5.343 -1.3740  1.0015 -2.3708
   15MOL   H127 2955   1.505   3.344   5.337 -2.1659 -0.6200  2.2176
   15MOL   H128 2956   1.565   3.476   5.542 -0.3775  0.8683 -2.3005
   15MOL   H129 2957   1.832   3.412   5.408 -0.4376 -1.1652  0.3323
   15MOL   H130 2958   1.754   3.623   5.623 -2.3006 -0.9477 -0.9875
   15MOL   H131 2959   1.850   3.675   5.486  0.9544  0.0246 -0.4130
   15MOL   C132 2960   1.959   3.551   5.621 -0.4719 -0.4220 -0.0158
   15MOL   C133 2961   2.080   3.534   5.527  0.4385 -0.0158 -0.2033
   15MOL   C134 2962   2.203   3.549   5.567  1.0431  0.1856 -1.2632
   15MOL   C135 2963   2.324   3.545   5.475  0.5700  0.0938 -0.2076
   15MOL   H136 2964   1.973   3.637   5.686 -2.7657  0.5723 -0.8217
   15MOL   H137 2965   1.961   3.458   5.679 -2.0411  0.9440  2.2711
   15MOL   H138 2966   2.073   3.520   5.420 -0.8410  0.6283 -0.2102
   15MOL   H139 2967   2.204   3.576   5.672  0.0692  0.9784 -1.4566
   15MOL   H140 2968   2.295   3.517   5.373  1.1443 -2.2516  0.2478
   15MOL   H141 2969   2.394   3.463   5.490 -1.5176 -1.7292 -0.1489
   15MOL   C142 2970   2.393   3.682   5.474  0.3083 -0.3294  0.1712
   15MOL   C143 2971   2.513   3.676   5.379 -0.1354 -0.3331  0.6778
   15MOL   C144 2972   2.626   3.734   5.411 -0.4403 -0.1726 -0.9300
   15MOL   C145 2973   2.746   3.755   5.317  0.1457 -0.7257  0.0226
   15MOL   H146 2974   2.321   3.756   5.440  0.9161  0.3284  0.3047
   15MOL   H147 2975   2.419   3.708   5.576 -0.2315 -2.1035  0.7863
   15MOL   H148 2976   2.498   3.636   5.280  0.3239  1.0477  0.0475
   15MOL   H149 2977   2.626   3.777   5.510  0.9103  0.4777 -1.1972
   15MOL   H150 2978   2.764   3.863   5.320  1.6463 -0.9350 -1.0248
   15MOL   H151 2979   2.719   3.734   5.213 -0.1855 -1.8765  0.3376
   15MOL   C152 2980   2.870   3.683   5.362  0.0242  0.8134  0.0587
   15MOL   C153 2981   2.987   3.711   5.272  0.1636 -0.2722  0.6165
   15MOL   C154 2982   3.110   3.733   5.323  0.7802 -0.0959  0.4833
   15MOL   C155 2983   3.231   3.746   5.234 -0.9954 -0.4207  0.2261
   15MOL   H156 2984   2.890   3.707   5.467  3.4644  0.2146 -0.3982
   15MOL   H157 2985   2.852   3.577   5.345 -0.6760  0.9389  0.0246
   15MOL   H158 2986   2.980   3.704   5.164 -0.5845 -0.8477  0.6970
   15MOL   H159 2987   3.120   3.737   5.431 -0.3631 -0.8790  0.6199
   15MOL   H160 2988   3.281   3.835   5.272 -1.7749  0.3195 -0.4638
   15MOL   H161 2989   3.211   3.780   5.133 -0.9592  2.1787  1.0608
   15MOL   C162 2990   3.332   3.636   5.244  0.0514  0.1119  0.3933
   15MOL   C163 2991   3.271   3.501   5.210 -0.2650  0.3947  0.1822
   15MOL   C164 2992   3.313   3.415   5.115  0.1135 -0.0467 -0.1880
   15MOL   C165 2993   3.233   3.291   5.086  0.8001  0.0788 -0.4046
   15MOL   H166 2994   3.423   3.656   5.188 -0.7062 -0.0916 -0.9470
   15MOL   H167 2995   3.356   3.625   5.350 -0.1009  0.6180  0.4841
   15MOL   H168 2996   3.183   3.471   5.265 -0.5451 -0.9958 -0.9701
   15MOL   H169 2997   3.396   3.435   5.048  2.0220  1.1988  2.4240
   15MOL   H170 2998   3.218   3.232   5.177 -0.9271 -0.6534 -1.1418
   15MOL   H171 2999   3.301   3.236   5.022 -0.3185 -2.6210  0.6485
   15MOL   C172 3000   3.091   3.308   5.027  0.0777  0.1012  0.2375
   15MOL   C173 3001   3.096   3.405   4.911  0.0162 -0.3666  0.2925
   15MOL   C174 3002   3.003   3.505   4.887  0.0955  0.3146  0.1593
   15MOL   C175 3003   3.003   3.600   4.771  0.0516 -0.0566  0.3186
   15MOL   H176 3004   3.051   3.210   5.001  0.7150  0.0784 -0.6603
   15MOL   H177 3005   3.021   3.346   5.102  0.2404  0.0541  0.4145
   15MOL   H178 3006   3.171   3.402   4.832 -1.1247  1.1514 -0.8742
   15MOL   H179 3007   2.920   3.519   4.954 -1.4937 -0.7400 -1.5610
   15MOL   H180 3008   2.902   3.634   4.751 -1.2018 -2.1834  2.7259
   15MOL   H181 3009   3.033   3.552   4.678 -0.5303 -1.4561  0.8338
   15MOL   C182 3010   3.093   3.723   4.787 -0.3023  0.9047 -0.7008
   15MOL   C183 3011   3.087   3.802   4.660 -0.4528  0.3596 -0.7124
   15MOL   C184 3012   3.058   3.932   4.654 -0.0548 -0.6575  0.5465
   15MOL   C185 3013   3.051   4.019   4.535 -0.0058 -0.5567  0.0422
   15MOL   H186 3014   3.061   3.788   4.869  2.1351  1.3844 -0.0897
   15MOL   H187 3015   3.195   3.706   4.822 -0.5491  1.3452  0.2376
   15MOL   H188 3016   3.100   3.740   4.573 -0.8504 -0.3275 -0.2941
   15MOL   H189 3017   3.030   3.977   4.748  0.7743 -0.7695  0.8537
   15MOL   H190 3018   2.950   4.052   4.510  0.2062  0.2534  0.2338
   15MOL   H191 3019   3.077   3.962   4.446 -0.4129  0.2837 -0.6325
   15MOL   C192 3020   3.155   4.128   4.534 -0.2766 -0.1228 -0.0350
   15MOL   C193 3021   3.143   4.222   4.416 -0.3153 -0.4235 -0.3537
   15MOL   C194 3022   3.215   4.212   4.302 -0.5004  0.2190 -0.0994
   15MOL   C195 3023   3.208   4.319   4.185 -0.1075 -0.0934 -0.0435
   15MOL   H196 3024   3.119   4.189   4.617  0.3286 -2.2809  1.8873
   15MOL   H197 3025   3.258   4.092   4.545 -0.6028 -1.3264 -0.8372
   15MOL   H198 3026   3.073   4.304   4.419  1.1152  0.8686 -2.0737
   15MOL   H199 3027   3.278   4.124   4.295 -1.4062 -0.3275 -1.5618
   15MOL   H200 3028   3.296   4.383   4.192 -0.1965 -0.1667  2.0385
   15MOL   H201 3029   3.118   4.378   4.200  0.2092  1.1645 -2.7183
   15MOL   H202 3030   3.205   4.265   4.090 -0.2467  0.1452 -0.1761
   16MOL     C1 3031   0.021   1.358   1.793  1.1418  0.5570  0.9256
   16MOL     C2 3032   7.961   1.446   1.907  0.0918  0.2540  0.0037
   16MOL     C3 3033   7.948   1.576   1.907 -0.2698 -0.1751  0.9297
   16MOL     C4 3034   7.922   1.656   2.030 -0.8886 -0.0453  0.2001
   16MOL     H5 3035   0.101   1.290   1.820  1.6808  0.8377  0.0356
   16MOL     H6 3036   0.058   1.406   1.702 -2.7790  0.7511 -0.6738
   16MOL     H7 3037   7.933   1.386   1.993 -0.0266 -0.3057 -0.4255
   16MOL     H8 3038   7.959   1.636   1.818 -0.6121 -1.3015  0.1136
   16MOL     H9 3039   0.037   1.713   2.040 -0.5375 -0.5823  0.0743
   16MOL    H10 3040   7.910   1.588   2.115 -0.6235  0.5786  0.7375
   16MOL    H11 3041   7.909   1.300   1.766  2.0995 -0.0458 -0.9836
   16MOL    C12 3042   7.792   1.739   2.030 -0.3444  0.3556  0.0513
   16MOL    C13 3043   7.789   1.842   2.141 -0.6206 -0.6827  0.6972
   16MOL    C14 3044   7.760   1.974   2.125 -0.3556  0.8111 -0.3572
   16MOL    C15 3045   7.769   2.078   2.242  0.2778  0.1262  0.2854
   16MOL    H16 3046   7.772   1.797   1.940  0.5887 -1.0724 -1.0939
   16MOL    H17 3047   7.706   1.675   2.049  0.8566 -1.5416 -0.7868
   16MOL    H18 3048   7.812   1.808   2.241 -0.3018  1.9169  1.5259
   16MOL    H19 3049   7.728   2.022   2.034 -3.7167  1.7222  1.2247
   16MOL    H20 3050   7.822   2.027   2.322 -0.3759 -1.0275 -0.0005
   16MOL    H21 3051   7.672   2.108   2.282  0.9920  3.1308 -0.1048
   16MOL    C22 3052   7.844   2.204   2.199 -0.5512  0.8294  0.2961
   16MOL    C23 3053   7.820   2.311   2.308 -0.8468 -0.1971 -0.0712
   16MOL    C24 3054   7.924   2.350   2.386  0.4880 -0.2605 -0.1308
   16MOL    C25 3055   7.907   2.443   2.499  0.0315  0.2433 -0.2640
   16MOL    H26 3056   7.950   2.191   2.180 -0.9288  0.4807 -1.7821
   16MOL    H27 3057   7.794   2.241   2.109  1.3738  0.4752 -0.9455
   16MOL    H28 3058   7.719   2.348   2.319 -0.5642  1.1062 -1.6922
   16MOL    H29 3059   0.042   2.300   2.373  0.8057 -0.0453  1.2578
   16MOL    H30 3060   7.808   2.489   2.498  0.2879  0.7905 -0.9885
   16MOL    H31 3061   0.008   2.518   2.481  1.0770 -0.5861  0.7234
   16MOL    C32 3062   7.917   2.383   2.637  0.3640  0.0511  0.1340
   16MOL    C33 3063   7.934   2.494   2.740 -0.3635  0.0062 -0.5886
   16MOL    C34 3064   0.045   2.480   2.845  0.2722  0.5792 -0.5004
   16MOL    C35 3065   0.076   2.589   2.951 -0.2864 -0.1192  0.0564
   16MOL    H36 3066   7.825   2.328   2.659 -0.1043  0.6037 -0.4048
   16MOL    H37 3067   0.025   2.316   2.644 -0.8360 -1.4504  0.5251
   16MOL    H38 3068   7.880   2.587   2.727 -0.9944 -0.4717 -1.4574
   16MOL    H39 3069   0.104   2.390   2.840  1.9462  1.5369  1.0567
   16MOL    H40 3070   0.095   2.532   3.042 -1.1431  0.6344  0.7099
   16MOL    H41 3071   7.976   2.665   2.960 -0.5809 -0.0092 -2.9603
   16MOL    C42 3072   0.213   2.642   2.914 -0.2525  0.3273 -0.1838
   16MOL    C43 3073   0.251   2.759   3.008  0.8590 -0.1802 -1.0411
   16MOL    C44 3074   0.273   2.890   2.972  0.4289  0.3032  0.1189
   16MOL    C45 3075   0.317   2.992   3.073  0.4844  0.4259 -0.3260
   16MOL    H46 3076   0.284   2.562   2.929 -0.8412 -0.0648  0.5800
   16MOL    H47 3077   0.231   2.679   2.813  3.0272  1.6896  0.8553
   16MOL    H48 3078   0.278   2.728   3.108  3.7224  0.1326 -1.6776
   16MOL    H49 3079   0.252   2.929   2.874 -0.9588  0.4631  0.4609
   16MOL    H50 3080   0.413   3.020   3.029  2.2630 -2.9140  1.1780
   16MOL    H51 3081   0.332   2.954   3.174 -1.2146  0.2236 -0.1433
   16MOL    C52 3082   0.210   3.099   3.083  0.2469 -0.5583  0.3338
   16MOL    C53 3083   0.269   3.223   3.147 -0.1019  0.3285 -0.2203
   16MOL    C54 3084   0.231   3.282   3.265  1.3925  0.0799 -0.4944
   16MOL    C55 3085   0.301   3.401   3.328  0.2063 -0.1553 -0.5111
   16MOL    H56 3086   0.159   3.130   2.991  1.8792  1.3414  0.0365
   16MOL    H57 3087   0.128   3.059   3.141 -0.4410  0.8695  0.3580
   16MOL    H58 3088   0.358   3.258   3.098  0.5510  1.9141  1.9876
   16MOL    H59 3089   0.147   3.235   3.314 -0.1561  0.7090 -2.4624
   16MOL    H60 3090   0.397   3.415   3.280  0.6462 -0.8033  0.1721
   16MOL    H61 3091   0.319   3.372   3.431 -1.6935  0.0286 -0.1052
   16MOL    C62 3092   0.215   3.527   3.338 -1.1359  0.0061  0.2186
   16MOL    C63 3093   0.277   3.632   3.419  0.4460  0.2696 -1.4960
   16MOL    C64 3094   0.216   3.714   3.511  0.2642  0.6715  0.1092
   16MOL    C65 3095   0.292   3.810   3.602 -0.8321 -0.2156 -0.5274
   16MOL    H66 3096   0.202   3.585   3.247  1.0883  0.7195  0.3097
   16MOL    H67 3097   0.120   3.492   3.379 -0.9152  0.6882  1.3474
   16MOL    H68 3098   0.383   3.648   3.407  0.4884  0.6525 -0.6445
   16MOL    H69 3099   0.111   3.702   3.532  0.0536 -0.6271 -1.5355
   16MOL    H70 3100   0.397   3.797   3.575 -0.1624  2.3826  0.6788
   16MOL    H71 3101   0.274   3.772   3.703 -3.3926  1.4619 -0.3145
   16MOL    C72 3102   0.250   3.951   3.573 -0.1021  0.2231  0.6090
   16MOL    C73 3103   0.337   4.053   3.640 -0.1294  0.6931 -0.3819
   16MOL    C74 3104   0.405   4.153   3.576 -0.4666  0.3106 -0.8359
   16MOL    C75 3105   0.481   4.257   3.659 -0.1339  0.2049 -0.0998
   16MOL    H76 3106   0.244   3.973   3.467  0.3413 -0.8459  0.3636
   16MOL    H77 3107   0.151   3.957   3.618  0.0011 -1.3313  1.0599
   16MOL    H78 3108   0.354   4.051   3.746  0.5383  0.4211 -0.4881
   16MOL    H79 3109   0.413   4.170   3.469  2.8650 -0.7180 -0.8246
   16MOL    H80 3110   0.453   4.248   3.764 -0.7935  1.2479 -0.1856
   16MOL    H81 3111   0.448   4.357   3.632 -0.6805 -0.6615 -2.7761
   16MOL    C82 3112   0.630   4.249   3.640 -0.7257  0.1735 -1.0122
   16MOL    C83 3113   0.706   4.360   3.708  0.4197  0.7199  0.1627
   16MOL    C84 3114   0.810   4.424   3.656  0.6258 -0.3989 -0.0073
   16MOL    C85 3115   0.865   4.544   3.728 -0.9299 -0.5178 -0.6022
   16MOL    H86 3116   0.669   4.153   3.674  0.8736  0.3034 -2.4471
   16MOL    H87 3117   0.660   4.254   3.535  3.9252 -0.9904  0.1823
   16MOL    H88 3118   0.671   4.387   3.807  0.1683 -0.0850  0.2970
   16MOL    H89 3119   0.853   4.415   3.557 -0.3643  2.4532 -0.7348
   16MOL    H90 3120   0.972   4.548   3.706 -1.5399  2.5959 -3.4115
   16MOL    H91 3121   0.853   4.541   3.837 -1.6193  1.8942 -0.5748
   16MOL    C92 3122   0.791   4.670   3.681 -1.0306  0.5364  0.8414
   16MOL    C93 3123   0.855   4.796   3.725 -0.0365 -1.0783  0.1336
   16MOL    C94 3124   0.945   4.865   3.651 -0.3367 -0.6257 -0.1846
   16MOL    C95 3125   1.014   4.982   3.721  0.2923 -0.2561  0.4805
   16MOL    H96 3126   0.796   4.663   3.572 -0.3824 -1.0869  0.9639
   16MOL    H97 3127   0.690   4.670   3.722 -0.6244 -0.5460  1.8735
   16MOL    H98 3128   0.822   4.823   3.824  0.1880 -2.3682  0.5810
   16MOL    H99 3129   0.964   4.824   3.553 -0.3034  0.3126 -0.5694
   16MOL   H100 3130   0.942   5.020   3.794  1.0138  1.1216  0.4813
   16MOL   H101 3131   1.031   5.067   3.655 -0.0355 -0.4319  0.1641
   16MOL   C102 3132   1.142   4.936   3.788  0.4221  0.5301 -0.1349
   16MOL   C103 3133   1.242   4.888   3.687  0.0973 -0.3217 -0.8660
   16MOL   C104 3134   1.284   4.763   3.685 -0.4056 -0.6146  0.0794
   16MOL   C105 3135   1.403   4.729   3.596  0.1552 -0.1610  0.7333
   16MOL   H106 3136   1.177   5.024   3.841 -0.7047 -1.0741  3.4186
   16MOL   H107 3137   1.135   4.852   3.857  1.6333  1.2129  0.8312
   16MOL   H108 3138   1.290   4.959   3.621  1.7317  0.8727  1.5397
   16MOL   H109 3139   1.242   4.679   3.738 -0.2300 -2.2866 -2.3360
   16MOL   H110 3140   1.478   4.675   3.654  0.5632  0.0333  0.3909
   16MOL   H111 3141   1.454   4.819   3.561 -0.2124  0.2124  1.1442
   16MOL   C112 3142   1.366   4.642   3.472  0.1655  0.7355 -0.0326
   16MOL   C113 3143   1.481   4.609   3.378  0.0833 -0.1672 -0.2634
   16MOL   C114 3144   1.543   4.496   3.359 -0.5238  0.0131  0.1127
   16MOL   C115 3145   1.655   4.465   3.271  0.2426 -0.5132 -0.2084
   16MOL   H116 3146   1.321   4.552   3.514 -0.5847  1.1833  0.1381
   16MOL   H117 3147   1.295   4.692   3.406  0.0334 -0.1582 -0.5806
   16MOL   H118 3148   1.512   4.697   3.323  0.0451 -1.1843 -1.9308
   16MOL   H119 3149   1.501   4.417   3.420 -1.3879  0.8893  0.6689
   16MOL   H120 3150   1.731   4.429   3.340 -1.5413 -1.1563  1.4488
   16MOL   H121 3151   1.695   4.560   3.234  0.2992 -0.1223  0.8583
   16MOL   C122 3152   1.634   4.374   3.146 -0.3193  0.5114 -0.5144
   16MOL   C123 3153   1.763   4.354   3.073  0.1433  0.2770 -0.0653
   16MOL   C124 3154   1.788   4.396   2.947  0.7156  0.1546  1.0334
   16MOL   C125 3155   1.928   4.375   2.888  0.0657 -0.2781  0.0617
   16MOL   H126 3156   1.593   4.277   3.174 -1.4825  0.9197 -0.7660
   16MOL   H127 3157   1.564   4.414   3.072  1.7167  0.7021 -2.3961
   16MOL   H128 3158   1.840   4.316   3.138 -0.4122  1.9972  1.6450
   16MOL   H129 3159   1.716   4.439   2.879  0.5633  1.4191  1.9695
   16MOL   H130 3160   1.937   4.268   2.873 -2.5984 -0.2373 -2.3276
   16MOL   H131 3161   2.001   4.410   2.961 -0.8551 -0.0244  0.8767
   16MOL   C132 3162   1.939   4.435   2.746  0.7051 -0.0176  0.6987
   16MOL   C133 3163   2.082   4.435   2.696 -0.3067  0.2972 -0.4163
   16MOL   C134 3164   2.115   4.387   2.575  0.1072 -0.4467  0.7167
   16MOL   C135 3165   2.254   4.387   2.505 -0.2791 -0.7831 -0.0925
   16MOL   H136 3166   1.880   4.379   2.674 -2.0739  0.9967  2.1094
   16MOL   H137 3167   1.894   4.534   2.759  0.4820  0.2042 -1.5933
   16MOL   H138 3168   2.152   4.487   2.760  1.5213 -0.1964 -1.9900
   16MOL   H139 3169   2.035   4.340   2.520 -2.1772  1.9630  1.8968
   16MOL   H140 3170   2.248   4.293   2.450 -0.0939 -0.5260 -0.5483
   16MOL   H141 3171   2.325   4.371   2.586 -1.4514  0.8989  1.3096
   16MOL   C142 3172   2.279   4.518   2.428  0.4565  0.3548  0.1674
   16MOL   C143 3173   2.408   4.511   2.350 -0.9260  0.7097  0.7645
   16MOL   C144 3174   2.499   4.414   2.341 -0.9353  0.9702  0.8060
   16MOL   C145 3175   2.624   4.435   2.253 -0.3722 -0.4936  0.3126
   16MOL   H146 3176   2.193   4.547   2.369  0.8093 -1.1118 -1.0965
   16MOL   H147 3177   2.294   4.602   2.496 -0.5754 -0.1988  1.0876
   16MOL   H148 3178   2.423   4.604   2.296 -1.1467 -0.7034 -1.8371
   16MOL   H149 3179   2.473   4.317   2.383  1.6616 -0.5267 -0.8979
   16MOL   H150 3180   2.717   4.406   2.302 -1.3799  0.4527  2.9049
   16MOL   H151 3181   2.641   4.540   2.228  2.5419 -0.2907  2.8825
   16MOL   C152 3182   2.606   4.357   2.127 -0.1170  0.1503 -0.4572
   16MOL   C153 3183   2.606   4.206   2.139  0.3170  0.5813  0.4848
   16MOL   C154 3184   2.656   4.118   2.055 -0.3481  0.2622 -0.2497
   16MOL   C155 3185   2.639   3.965   2.068  0.1197  0.4640  0.1006
   16MOL   H156 3186   2.511   4.379   2.079 -0.0219 -0.6623 -1.0269
   16MOL   H157 3187   2.691   4.382   2.063  0.1803  0.4680  0.0518
   16MOL   H158 3188   2.555   4.177   2.230  1.7626  0.7995  1.3724
   16MOL   H159 3189   2.706   4.143   1.963  0.8656 -3.0766 -0.5667
   16MOL   H160 3190   2.596   3.929   1.975  0.3066  1.7863 -0.5056
   16MOL   H161 3191   2.569   3.940   2.148  1.0555  0.4657  0.9420
   16MOL   C162 3192   2.781   3.894   2.079  0.5126  0.1741 -0.0695
   16MOL   C163 3193   2.870   3.913   1.961 -0.6243 -0.9269 -0.0476
   16MOL   C164 3194   2.999   3.954   1.966  0.2326 -0.5745 -0.2709
   16MOL   C165 3195   3.101   3.952   1.848  0.3150 -0.1063 -0.4406
   16MOL   H166 3196   2.823   3.918   2.176 -0.2622 -2.7240  1.0342
   16MOL   H167 3197   2.763   3.787   2.088  1.4568  0.0505  0.3876
   16MOL   H168 3198   2.831   3.871   1.869  1.5198  0.6450 -1.7249
   16MOL   H169 3199   3.028   3.998   2.060 -0.9585  2.0384 -1.0803
   16MOL   H170 3200   3.137   4.054   1.831 -1.3978  0.3322 -1.5832
   16MOL   H171 3201   3.039   3.931   1.762 -2.1811  1.8633  0.7927
   16MOL   C172 3202   3.215   3.845   1.875  0.2002  0.2539 -0.0230
   16MOL   C173 3203   3.323   3.862   1.775 -0.0221  0.1391  0.0447
   16MOL   C174 3204   3.362   3.766   1.690  0.0257  0.3591  0.0316
   16MOL   C175 3205   3.484   3.793   1.610 -0.0928 -0.1958  0.0916
   16MOL   H176 3206   3.270   3.872   1.965  0.2366  0.8463 -0.2247
   16MOL   H177 3207   3.180   3.742   1.881  1.3106 -0.1717 -0.7688
   16MOL   H178 3208   3.379   3.955   1.779 -0.8289  0.6941 -1.4498
   16MOL   H179 3209   3.303   3.676   1.697  0.9687 -0.1725  1.3356
   16MOL   H180 3210   3.516   3.897   1.620 -0.3158 -0.2320  1.2466
   16MOL   H181 3211   3.441   3.786   1.510  1.5577  0.5455 -0.6798
   16MOL   C182 3212   3.591   3.684   1.634 -0.2575  0.8765  0.0187
   16MOL   C183 3213   3.721   3.702   1.544  0.2273  0.1838  0.0255
   16MOL   C184 3214   3.778   3.609   1.468 -0.2041  0.5016 -0.7893
   16MOL   C185 3215   3.904   3.628   1.392 -0.1346 -0.0371  0.1703
   16MOL   H186 3216   3.611   3.666   1.739  1.1240 -0.2345 -0.4139
   16MOL   H187 3217   3.557   3.586   1.601  2.8164  0.5310 -2.3904
   16MOL   H188 3218   3.780   3.791   1.559 -0.4580  0.5944  0.3048
   16MOL   H189 3219   3.726   3.514   1.459 -0.1312  0.3310  0.5412
   16MOL   H190 3220   3.973   3.550   1.424 -0.2987 -0.4222 -0.3982
   16MOL   H191 3221   3.958   3.716   1.427  0.5235 -1.0721  1.7988
   16MOL   C192 3222   3.878   3.617   1.243  0.4958  0.2988 -0.3000
   16MOL   C193 3223   3.995   3.596   1.153  0.5598  0.8855 -0.0728
   16MOL   C194 3224   4.044   3.691   1.072 -0.9264 -0.3672  0.4132
   16MOL   C195 3225   4.158   3.674   0.983 -0.9492 -0.2607 -0.0166
   16MOL   H196 3226   3.814   3.531   1.220 -0.4660  0.6555  0.9741
   16MOL   H197 3227   3.827   3.711   1.222 -1.6011 -0.4352  1.3344
   16MOL   H198 3228   4.034   3.496   1.155  0.3438  0.7975 -0.2340
   16MOL   H199 3229   4.002   3.791   1.069 -0.7365 -0.2509  1.2690
   16MOL   H200 3230   4.241   3.740   1.011 -2.3769  1.6774 -0.2840
   16MOL   H201 3231   4.129   3.722   0.889 -0.8041  0.8080  0.4703
   16MOL   H202 3232   4.177   3.567   0.974  0.2732 -0.0444 -0.1037
   17MOL     C1 3233   6.993   5.255   4.266 -0.3659 -0.0854 -0.0924
   17MOL     C2 3234   7.031   5.117   4.287 -0.3045  1.1704  0.8216
   17MOL     C3 3235   7.161   5.079   4.316  0.3200 -0.2797  0.7259
   17MOL     C4 3236   7.215   4.938   4.339 -0.3804  0.1535 -0.2246
   17MOL     H5 3237   6.958   5.275   4.165  2.2325  1.9200 -0.6364
   17MOL     H6 3238   7.081   5.318   4.279 -0.6664  1.0053 -3.0904
   17MOL     H7 3239   6.954   5.042   4.278 -0.5055  1.5318 -0.4522
   17MOL     H8 3240   7.228   5.165   4.315 -0.9796  0.7665 -2.4090
   17MOL     H9 3241   7.266   4.938   4.436  1.3207 -0.8521 -1.0995
   17MOL    H10 3242   7.309   4.919   4.287  0.7345  0.3873  1.6301
   17MOL    H11 3243   6.923   5.283   4.345  1.9939 -1.2488  2.5316
   17MOL    C12 3244   7.117   4.814   4.310  0.0314  0.3147 -0.0361
   17MOL    C13 3245   7.186   4.682   4.315  0.5892 -0.4064  0.0705
   17MOL    C14 3246   7.204   4.591   4.215  0.6657 -0.3081  0.9231
   17MOL    C15 3247   7.294   4.469   4.231 -0.1017  0.2727 -0.2942
   17MOL    H16 3248   7.052   4.800   4.396 -3.1943  2.3287 -2.0211
   17MOL    H17 3249   7.071   4.828   4.211  1.2057 -1.0898 -0.7913
   17MOL    H18 3250   7.231   4.658   4.410 -2.1677 -0.0595  1.5159
   17MOL    H19 3251   7.166   4.606   4.115  1.5045 -0.5334  0.5667
   17MOL    H20 3252   7.351   4.454   4.140 -0.1441 -1.0546 -0.1066
   17MOL    H21 3253   7.228   4.383   4.221 -0.4549  0.3827  1.0279
   17MOL    C22 3254   7.389   4.472   4.347 -0.0669 -0.5449 -0.0306
   17MOL    C23 3255   7.502   4.571   4.317  0.2794  0.1201 -0.3346
   17MOL    C24 3256   7.534   4.676   4.386 -0.0585  0.2925 -0.3909
   17MOL    C25 3257   7.635   4.773   4.343  0.0498 -0.0733 -0.3066
   17MOL    H26 3258   7.345   4.495   4.445  0.4380 -1.9582  0.5386
   17MOL    H27 3259   7.433   4.374   4.364  0.5487 -0.0112  1.6270
   17MOL    H28 3260   7.552   4.555   4.222 -0.2159 -0.9721 -0.4212
   17MOL    H29 3261   7.475   4.696   4.474 -1.0625  1.6612 -1.3570
   17MOL    H30 3262   7.572   4.859   4.319 -0.0394 -0.5002 -1.6538
   17MOL    H31 3263   7.680   4.747   4.247  0.4319  0.1042 -0.1779
   17MOL    C32 3264   7.744   4.794   4.458  0.4605  0.3476 -0.0223
   17MOL    C33 3265   7.858   4.881   4.417 -0.1578 -0.2439 -0.1581
   17MOL    C34 3266   0.007   4.839   4.413 -0.3172 -0.6926  0.3300
   17MOL    C35 3267   0.111   4.930   4.353 -0.1568 -0.6123  0.6402
   17MOL    H36 3268   7.693   4.834   4.545  1.1112 -0.0898  0.5573
   17MOL    H37 3269   7.790   4.697   4.475 -0.2231 -0.0932 -0.6325
   17MOL    H38 3270   7.830   4.983   4.393 -2.1856 -0.1881  2.2862
   17MOL    H39 3271   0.041   4.742   4.447 -0.3764 -0.2710  1.6280
   17MOL    H40 3272   0.072   5.026   4.319  0.2728 -0.1464  1.4417
   17MOL    H41 3273   0.139   4.880   4.261  1.7182 -0.4303  1.0975
   17MOL    C42 3274   0.231   4.953   4.443 -0.1053  0.7505  0.3970
   17MOL    C43 3275   0.312   4.825   4.442  0.4112 -0.1024  0.3070
   17MOL    C44 3276   0.438   4.828   4.403 -0.1251 -0.4788 -0.0233
   17MOL    C45 3277   0.525   4.702   4.384  0.3246 -0.1976  0.7852
   17MOL    H46 3278   0.282   5.042   4.405 -0.8382  0.7602 -0.5650
   17MOL    H47 3279   0.212   4.975   4.548 -0.4838  2.3689  0.0028
   17MOL    H48 3280   0.267   4.727   4.452 -0.6197  0.3841  0.5391
   17MOL    H49 3281   0.489   4.923   4.398  0.0076 -0.5320  0.2966
   17MOL    H50 3282   0.621   4.720   4.433  1.2534 -0.2920 -0.9756
   17MOL    H51 3283   0.547   4.694   4.278 -1.1041  2.5455  0.2220
   17MOL    C52 3284   0.456   4.576   4.440  0.6393  0.3919 -0.0248
   17MOL    C53 3285   0.530   4.447   4.416  0.4454 -0.0986 -0.0063
   17MOL    C54 3286   0.516   4.326   4.483  0.2723 -0.5469  0.4267
   17MOL    C55 3287   0.566   4.185   4.447 -0.2294 -0.2274 -0.6453
   17MOL    H56 3288   0.439   4.593   4.546 -0.6226  0.2695 -0.1883
   17MOL    H57 3289   0.359   4.557   4.393  1.0784  3.1267 -2.1332
   17MOL    H58 3290   0.585   4.431   4.324 -1.6872 -0.9060 -1.1776
   17MOL    H59 3291   0.454   4.328   4.571 -1.6051  1.0191 -0.8865
   17MOL    H60 3292   0.617   4.182   4.351 -0.3170 -0.5129 -0.6834
   17MOL    H61 3293   0.473   4.128   4.445  0.3011 -1.1180 -0.3918
   17MOL    C62 3294   0.658   4.124   4.551 -0.4673  0.3555  0.6968
   17MOL    C63 3295   0.706   3.982   4.519  0.4155 -0.3497 -0.2243
   17MOL    C64 3296   0.621   3.881   4.548 -0.0022  0.1690  0.1974
   17MOL    C65 3297   0.661   3.736   4.530  0.4487  0.3196 -0.5664
   17MOL    H66 3298   0.739   4.188   4.585  0.6931 -0.4460 -0.5115
   17MOL    H67 3299   0.600   4.113   4.642 -1.2813 -1.2348  0.0100
   17MOL    H68 3300   0.801   3.971   4.468 -0.4846 -0.0605 -2.0193
   17MOL    H69 3301   0.523   3.891   4.592 -0.2789 -0.8165 -0.1881
   17MOL    H70 3302   0.680   3.718   4.424 -0.3482 -0.2955 -0.6034
   17MOL    H71 3303   0.575   3.673   4.548  2.0501 -1.4199  1.1552
   17MOL    C72 3304   0.774   3.700   4.632 -0.6010  0.3462  0.5703
   17MOL    C73 3305   0.813   3.554   4.626  0.6468  0.0370  0.3301
   17MOL    C74 3306   0.879   3.499   4.528  0.7651 -0.3910 -0.1860
   17MOL    C75 3307   0.906   3.348   4.504 -0.0642 -0.3979 -0.1549
   17MOL    H76 3308   0.857   3.769   4.614  0.2924 -0.9791 -0.4806
   17MOL    H77 3309   0.730   3.723   4.728 -3.9030 -0.8992 -0.5986
   17MOL    H78 3310   0.766   3.486   4.696  2.2688 -0.0831  1.3297
   17MOL    H79 3311   0.916   3.568   4.454  1.8798 -0.2242  0.5166
   17MOL    H80 3312   0.855   3.293   4.583 -0.4673 -2.0290 -1.5421
   17MOL    H81 3313   1.011   3.324   4.525  0.0113 -0.8551 -1.0477
   17MOL    C82 3314   0.858   3.301   4.367  0.4453  0.1050 -0.0598
   17MOL    C83 3315   0.955   3.321   4.251  0.2641 -0.7248  0.1161
   17MOL    C84 3316   0.932   3.405   4.147 -0.7500  0.0924 -0.2028
   17MOL    C85 3317   1.022   3.424   4.027  0.1523  0.2302  0.3381
   17MOL    H86 3318   0.846   3.193   4.367  1.8381 -0.0631  0.5884
   17MOL    H87 3319   0.762   3.349   4.353  0.1398  0.2946  2.4717
   17MOL    H88 3320   1.038   3.252   4.258  0.1263 -0.8400  0.6546
   17MOL    H89 3321   0.839   3.456   4.124  0.5241  1.9386 -1.3943
   17MOL    H90 3322   1.012   3.528   3.998  0.2659  0.5812  1.5477
   17MOL    H91 3323   0.974   3.369   3.945  1.2150 -0.3389  0.0969
   17MOL    C92 3324   1.170   3.383   4.048 -0.2428  0.1127 -0.5244
   17MOL    C93 3325   1.256   3.411   3.926  0.3959  0.3314  0.3622
   17MOL    C94 3326   1.316   3.312   3.861  0.3184  0.0165  0.0625
   17MOL    C95 3327   1.396   3.339   3.738 -0.0453  0.5335 -0.2519
   17MOL    H96 3328   1.215   3.439   4.130 -0.7370 -2.2793  1.4408
   17MOL    H97 3329   1.171   3.279   4.080 -0.2841  0.4394  0.5656
   17MOL    H98 3330   1.259   3.514   3.892  0.0987  0.7705  1.6191
   17MOL    H99 3331   1.298   3.209   3.887 -0.7057 -0.6792 -3.2334
   17MOL   H100 3332   1.481   3.270   3.747 -1.0594 -0.7061 -0.0449
   17MOL   H101 3333   1.441   3.437   3.752 -0.5161  0.3910  2.4283
   17MOL   C102 3334   1.314   3.316   3.609 -0.5269  0.1238 -0.1118
   17MOL   C103 3335   1.399   3.335   3.482 -0.3405  0.5214 -0.5106
   17MOL   C104 3336   1.390   3.248   3.377 -0.4977 -0.8547 -0.3147
   17MOL   C105 3337   1.474   3.248   3.251  0.0341 -0.2556  0.7515
   17MOL   H106 3338   1.265   3.218   3.610  1.8344 -1.0937  1.7820
   17MOL   H107 3339   1.245   3.400   3.616  1.3813  1.7500 -0.5573
   17MOL   H108 3340   1.477   3.410   3.482  0.4333 -0.2640 -0.1714
   17MOL   H109 3341   1.304   3.183   3.378  1.8395 -4.0452 -0.8551
   17MOL   H110 3342   1.552   3.323   3.258 -1.2589  1.0637  1.2113
   17MOL   H111 3343   1.413   3.272   3.164 -0.5162  0.2456  1.2695
   17MOL   C112 3344   1.527   3.104   3.236  0.5035 -0.2731 -0.1549
   17MOL   C113 3345   1.618   3.084   3.112  0.2922  0.4178 -0.4184
   17MOL   C114 3346   1.642   3.179   3.017 -0.2103 -0.4552 -0.3756
   17MOL   C115 3347   1.722   3.161   2.888 -0.2136  0.0791  1.1294
   17MOL   H116 3348   1.596   3.090   3.319 -0.5780 -2.8769  0.3837
   17MOL   H117 3349   1.450   3.027   3.224 -1.4062  1.5766  0.0764
   17MOL   H118 3350   1.660   2.987   3.091 -1.7190 -0.5083 -0.2806
   17MOL   H119 3351   1.606   3.280   3.029 -0.7928 -0.3762 -2.5053
   17MOL   H120 3352   1.648   3.147   2.809 -0.3946  0.4591  1.2280
   17MOL   H121 3353   1.790   3.077   2.880  3.9919  3.3834  0.2544
   17MOL   C122 3354   1.815   3.280   2.854  0.2811  0.2004  0.2249
   17MOL   C123 3355   1.746   3.386   2.787  0.3343  0.1310  0.6246
   17MOL   C124 3356   1.769   3.425   2.658 -0.4641 -0.0063  0.5959
   17MOL   C125 3357   1.720   3.541   2.577 -0.5744 -0.2501 -0.9338
   17MOL   H126 3358   1.866   3.316   2.944  3.4305  1.0136 -1.8041
   17MOL   H127 3359   1.889   3.242   2.784 -2.4183  0.0606 -2.6749
   17MOL   H128 3360   1.677   3.437   2.853  0.1702  1.8698 -0.8618
   17MOL   H129 3361   1.848   3.369   2.609  1.3958  1.3996  1.8975
   17MOL   H130 3362   1.640   3.513   2.510 -1.9048 -0.9957  0.9137
   17MOL   H131 3363   1.801   3.573   2.511  1.3236  1.5137  2.1120
   17MOL   C132 3364   1.688   3.664   2.667  0.4937  0.5261 -0.3675
   17MOL   C133 3365   1.589   3.763   2.598  0.9541 -0.2784  0.1583
   17MOL   C134 3366   1.581   3.793   2.468 -0.6632 -0.1832  0.1054
   17MOL   C135 3367   1.477   3.893   2.410  0.5718 -0.9224 -0.2760
   17MOL   H136 3368   1.619   3.633   2.747 -1.2638 -0.2131 -2.1310
   17MOL   H137 3369   1.775   3.720   2.702 -0.0876 -0.4411  2.7942
   17MOL   H138 3370   1.525   3.813   2.670  1.3696  0.6133 -0.0894
   17MOL   H139 3371   1.651   3.747   2.400 -0.8632 -2.2278  1.2594
   17MOL   H140 3372   1.388   3.898   2.473  1.1846 -0.9384  0.5927
   17MOL   H141 3373   1.437   3.859   2.315  0.8490 -2.5214  0.1708
   17MOL   C142 3374   1.518   4.038   2.378  0.0765  0.2634  0.1633
   17MOL   C143 3375   1.537   4.117   2.506  0.4335  0.2090  0.9907
   17MOL   C144 3376   1.498   4.246   2.516  0.5243  0.8226  0.0049
   17MOL   C145 3377   1.500   4.327   2.637  0.2917 -0.0692 -0.5304
   17MOL   H146 3378   1.613   4.036   2.325 -0.7833 -0.2917 -1.3694
   17MOL   H147 3379   1.445   4.093   2.319 -0.4037  0.5115  0.9818
   17MOL   H148 3380   1.580   4.055   2.583  1.6137  0.0283  0.2044
   17MOL   H149 3381   1.468   4.289   2.422 -0.5316 -0.4709 -0.2658
   17MOL   H150 3382   1.559   4.415   2.608  0.1197  0.7083  1.4279
   17MOL   H151 3383   1.554   4.277   2.717 -0.1181  0.7628  0.2710
   17MOL   C152 3384   1.361   4.355   2.692  0.1882 -0.5013 -0.2876
   17MOL   C153 3385   1.365   4.422   2.832 -0.2055 -0.0342 -0.2161
   17MOL   C154 3386   1.358   4.554   2.850 -0.3190 -0.1041  0.7856
   17MOL   C155 3387   1.360   4.624   2.983 -0.6965  0.5141 -0.7064
   17MOL   H156 3388   1.309   4.428   2.629 -0.3821 -2.0188 -1.6182
   17MOL   H157 3389   1.295   4.268   2.689 -1.9597  1.1054 -1.4515
   17MOL   H158 3390   1.367   4.352   2.915  1.1456  0.4815  0.1985
   17MOL   H159 3391   1.347   4.624   2.769 -2.2603 -2.4607 -1.0402
   17MOL   H160 3392   1.336   4.552   3.061 -0.3505 -1.1875 -2.1394
   17MOL   H161 3393   1.274   4.691   2.980 -1.1883 -0.1427 -1.8504
   17MOL   C162 3394   1.487   4.705   3.007  0.1979 -0.7842  0.1273
   17MOL   C163 3395   1.512   4.801   2.897  0.1461 -0.6192  0.6247
   17MOL   C164 3396   1.572   4.775   2.783 -0.2871 -0.4657  0.6737
   17MOL   C165 3397   1.571   4.866   2.666 -0.6559  0.2894  0.5744
   17MOL   H166 3398   1.473   4.753   3.104 -1.0421  0.1106 -0.4832
   17MOL   H167 3399   1.577   4.646   3.028  0.4569 -0.0813  1.0204
   17MOL   H168 3400   1.460   4.894   2.910  0.3113 -0.5361  0.6885
   17MOL   H169 3401   1.611   4.675   2.771 -2.1437 -0.9125 -2.4073
   17MOL   H170 3402   1.515   4.822   2.583  0.4830  0.3928 -0.2673
   17MOL   H171 3403   1.673   4.864   2.625 -1.4366 -4.0198 -1.3778
   17MOL   C172 3404   1.549   5.018   2.685  0.6709  0.1455  0.7878
   17MOL   C173 3405   1.564   5.100   2.555  0.2694  0.0906 -0.3758
   17MOL   C174 3406   1.462   5.171   2.505  0.6718  0.1881 -0.1578
   17MOL   C175 3407   1.457   5.266   2.376 -0.5528  0.1409  0.4094
   17MOL   H176 3408   1.457   5.040   2.740  0.6896 -1.9108  1.6803
   17MOL   H177 3409   1.635   5.044   2.747 -0.0421  0.0240  1.8641
   17MOL   H178 3410   1.656   5.099   2.499  2.2697  3.4418  2.6380
   17MOL   H179 3411   1.370   5.170   2.561  1.4230  0.1872  1.1062
   17MOL   H180 3412   1.396   5.211   2.304 -0.1300 -1.1850  1.0524
   17MOL   H181 3413   1.559   5.278   2.339 -0.3752  1.7151  1.3722
   17MOL   C182 3414   1.406   5.399   2.412 -0.2595  0.3511  0.8294
   17MOL   C183 3415   1.254   5.398   2.442 -0.2100  0.0306 -0.4056
   17MOL   C184 3416   1.155   5.452   2.365 -0.4047  0.4543  0.7076
   17MOL   C185 3417   1.009   5.434   2.387  0.2854 -0.3171  0.0129
   17MOL   H186 3418   1.458   5.423   2.505  0.3712  0.6817  0.3893
   17MOL   H187 3419   1.410   5.475   2.335  1.2634 -0.8663 -0.3231
   17MOL   H188 3420   1.230   5.339   2.529 -3.1397 -0.3888 -1.4308
   17MOL   H189 3421   1.184   5.498   2.272  0.9235  0.4849  1.1361
   17MOL   H190 3422   0.957   5.524   2.355  1.6779  0.6182  0.3153
   17MOL   H191 3423   0.984   5.424   2.493 -1.0668  1.4599 -0.1215
   17MOL   C192 3424   0.961   5.298   2.334 -0.1365  0.8346 -0.1950
   17MOL   C193 3425   0.820   5.279   2.322  0.4031  0.7730 -0.5710
   17MOL   C194 3426   0.750   5.162   2.336 -0.7203 -0.3897  0.9363
   17MOL   C195 3427   0.602   5.138   2.323 -0.8193  0.3503  0.3266
   17MOL   H196 3428   0.995   5.287   2.230 -0.2778 -0.6819 -0.0968
   17MOL   H197 3429   0.999   5.214   2.391  3.5577  1.2081 -1.9627
   17MOL   H198 3430   0.761   5.369   2.309  2.1292  1.7066 -2.0796
   17MOL   H199 3431   0.806   5.075   2.367  1.1413  0.8917  1.2594
   17MOL   H200 3432   0.582   5.100   2.223 -0.3257 -0.6346  0.5968
   17MOL   H201 3433   0.556   5.236   2.334 -1.3369  0.0878  0.5048
   17MOL   H202 3434   0.550   5.067   2.387 -2.1410  0.5580 -0.5005
   18MOL     C1 3435   1.398   0.724   4.703 -0.2821  0.0861 -0.2017
   18MOL     C2 3436   1.391   0.569   4.698  0.0416  0.4364  0.2464
   18MOL     C3 3437   1.410   0.489   4.807  0.0026 -0.0149  0.4801
   18MOL     C4 3438   1.424   0.342   4.811  0.7227  0.3005 -0.1067
   18MOL     H5 3439   1.325   0.769   4.636  0.4081  1.9595  0.2839
   18MOL     H6 3440   1.490   0.762   4.658 -0.7524  3.0928  1.2506
   18MOL     H7 3441   1.396   0.529   4.598 -0.1534  1.5873 -0.2306
   18MOL     H8 3442   1.400   0.528   4.907 -1.3415 -3.0191  1.5798
   18MOL     H9 3443   1.355   0.291   4.878  1.6200  0.0165  0.6117
   18MOL    H10 3444   1.528   0.324   4.837  1.3954  3.9637  0.0342
   18MOL    H11 3445   1.389   0.776   4.798  1.7462 -0.4706  0.3293
   18MOL    C12 3446   1.406   0.280   4.679  0.1161 -0.4777  0.5050
   18MOL    C13 3447   1.375   0.136   4.689  0.2408  0.4056  0.7135
   18MOL    C14 3448   1.280   0.070   4.618  0.7909 -0.7304 -0.4663
   18MOL    C15 3449   1.234   7.911   4.648 -0.1009  0.6465 -0.3678
   18MOL    H16 3450   1.313   0.324   4.644  1.6703  2.8607  0.3022
   18MOL    H17 3451   1.493   0.290   4.614 -0.6169 -0.4456 -0.4872
   18MOL    H18 3452   1.431   0.091   4.770 -1.4556  2.1784  2.9200
   18MOL    H19 3453   1.226   0.125   4.542 -1.7723 -3.8772 -1.0351
   18MOL    H20 3454   1.284   7.867   4.734  0.7139 -0.6930 -1.5152
   18MOL    H21 3455   1.265   7.858   4.558 -2.3746  0.8602 -1.3227
   18MOL    C22 3456   1.083   7.919   4.677  0.5559 -0.3607 -0.1941
   18MOL    C23 3457   1.015   7.798   4.726  0.1446 -0.3579  0.0373
   18MOL    C24 3458   0.918   7.788   4.818 -0.6625  0.1549  0.8007
   18MOL    C25 3459   0.845   7.667   4.863 -0.4394 -0.0378  0.1191
   18MOL    H26 3460   1.052   0.024   4.742  0.2490  0.3622 -1.2340
   18MOL    H27 3461   1.036   7.933   4.580  0.0046 -1.7262 -0.1330
   18MOL    H28 3462   1.026   7.703   4.676 -1.3474 -1.5865  1.9937
   18MOL    H29 3463   0.882   7.884   4.852  2.5776  1.7519 -0.0295
   18MOL    H30 3464   0.848   7.651   4.970 -0.1944 -3.3843 -0.3523
   18MOL    H31 3465   0.895   7.578   4.825 -0.3759 -0.6527  1.6184
   18MOL    C32 3466   0.704   7.653   4.813  0.4384 -0.3472 -0.0292
   18MOL    C33 3467   0.702   7.665   4.663 -0.2048 -0.3277 -0.0849
   18MOL    C34 3468   0.740   7.565   4.579 -0.0903 -0.6242  0.3678
   18MOL    C35 3469   0.748   7.569   4.426  0.1287 -0.0469 -0.0010
   18MOL    H36 3470   0.662   7.562   4.855  1.6991 -1.4944 -1.1675
   18MOL    H37 3471   0.631   7.727   4.847 -0.1881 -0.9287 -0.1089
   18MOL    H38 3472   0.677   7.761   4.619  0.8064  0.2444  0.5907
   18MOL    H39 3473   0.767   7.472   4.627  1.3274 -0.9889 -1.0615
   18MOL    H40 3474   0.675   7.639   4.384 -0.4315 -0.5284  0.1546
   18MOL    H41 3475   0.714   7.474   4.386 -2.2365  1.1403 -0.9264
   18MOL    C42 3476   0.892   7.594   4.382 -0.3779 -0.6517  0.3055
   18MOL    C43 3477   0.902   7.623   4.237 -0.2110  0.1162 -0.2728
   18MOL    C44 3478   0.903   7.740   4.171 -0.1349  0.5754 -0.2732
   18MOL    C45 3479   0.909   7.755   4.019  0.5165  0.1233 -0.1592
   18MOL    H46 3480   0.927   7.681   4.437 -0.6522 -0.5805  0.3687
   18MOL    H47 3481   0.959   7.509   4.400 -2.1562 -2.2512 -0.4861
   18MOL    H48 3482   0.905   7.537   4.171  1.1519  0.7599 -1.0510
   18MOL    H49 3483   0.898   7.832   4.228  3.3477  0.1744  0.8138
   18MOL    H50 3484   0.807   7.771   3.982  1.0338  0.4493 -1.4889
   18MOL    H51 3485   0.921   7.652   3.986  0.5394  0.5510 -1.5338
   18MOL    C52 3486   1.002   7.867   3.959 -1.0838 -0.1650  0.7247
   18MOL    C53 3487   1.143   7.827   3.978 -0.1463  0.3569 -0.2949
   18MOL    C54 3488   1.248   7.844   3.901  0.3109 -0.6829 -0.2259
   18MOL    C55 3489   1.396   7.818   3.937  0.1366  0.4598  0.3031
   18MOL    H56 3490   0.994   7.863   3.851  1.4432  2.6920  0.3456
   18MOL    H57 3491   0.975   7.970   3.985  1.8345  0.5867  1.0028
   18MOL    H58 3492   1.163   7.779   4.073  2.0028 -0.8566 -1.3493
   18MOL    H59 3493   1.229   7.874   3.799  3.0228 -0.3723 -0.6712
   18MOL    H60 3494   1.407   7.722   3.988 -0.0398 -0.6521 -1.6998
   18MOL    H61 3495   1.420   7.886   4.019  1.4273  0.9215 -0.4558
   18MOL    C62 3496   1.485   7.817   3.818  0.1451 -0.2685  0.2696
   18MOL    C63 3497   1.633   7.799   3.856 -0.4735 -0.7625  0.2766
   18MOL    C64 3498   1.702   7.688   3.831 -0.0776  0.2746  0.1467
   18MOL    C65 3499   1.850   7.672   3.851  0.4001  0.4533  0.6279
   18MOL    H66 3500   1.466   7.737   3.747 -0.1102  1.5499 -1.7727
   18MOL    H67 3501   1.474   7.904   3.753  0.4457 -0.6669 -0.3129
   18MOL    H68 3502   1.679   7.888   3.894 -1.0523 -0.3526  0.0248
   18MOL    H69 3503   1.637   7.607   3.802  0.5675 -0.2805  0.2248
   18MOL    H70 3504   1.884   7.776   3.850  0.1447  0.5355  0.5149
   18MOL    H71 3505   1.899   7.608   3.778  2.3635  1.9260  0.5948
   18MOL    C72 3506   1.889   7.625   3.991  0.4087 -0.2018  0.3344
   18MOL    C73 3507   2.034   7.599   4.002  0.2219  0.1407  0.3973
   18MOL    C74 3508   2.116   7.635   4.099 -0.5875 -0.2063 -0.3941
   18MOL    C75 3509   2.265   7.623   4.100  0.2309  0.0031  1.1273
   18MOL    H76 3510   1.852   7.702   4.058  0.2595 -0.8308  0.9782
   18MOL    H77 3511   1.829   7.537   4.012 -2.0364  0.8214 -2.1391
   18MOL    H78 3512   2.075   7.549   3.916  3.7766 -0.7720  2.4922
   18MOL    H79 3513   2.081   7.686   4.188  1.2246  1.4016 -0.5823
   18MOL    H80 3514   2.313   7.718   4.079  0.7060 -0.0908  1.7480
   18MOL    H81 3515   2.294   7.574   4.007 -1.0547 -0.0903  0.7642
   18MOL    C82 3516   2.318   7.539   4.220 -0.2833  0.6712 -0.1030
   18MOL    C83 3517   2.464   7.499   4.194  0.2412  0.2867 -0.0391
   18MOL    C84 3518   2.507   7.383   4.148  0.2990 -0.8300 -0.4222
   18MOL    C85 3519   2.646   7.338   4.125  0.4972  0.0221  0.1337
   18MOL    H86 3520   2.310   7.592   4.315 -2.7120 -0.8165  0.5822
   18MOL    H87 3521   2.263   7.446   4.234 -1.7332  1.5222 -0.0194
   18MOL    H88 3522   2.547   7.566   4.210 -1.0340  1.6374  1.0979
   18MOL    H89 3523   2.429   7.313   4.118 -0.1923  0.7740 -2.9430
   18MOL    H90 3524   2.715   7.412   4.166 -1.4801  2.2489 -0.4502
   18MOL    H91 3525   2.647   7.331   4.016 -0.9813  3.7942 -0.2127
   18MOL    C92 3526   2.665   7.204   4.196 -0.0225  0.3528 -0.3486
   18MOL    C93 3527   2.800   7.141   4.162 -0.4367  0.1256 -0.0125
   18MOL    C94 3528   2.892   7.102   4.251  0.1934 -0.2684  0.0951
   18MOL    C95 3529   3.027   7.036   4.218 -0.9366 -0.0610 -0.5891
   18MOL    H96 3530   2.662   7.212   4.305 -1.3031  1.2601 -0.4506
   18MOL    H97 3531   2.590   7.129   4.172 -0.5084 -0.0598  2.2288
   18MOL    H98 3532   2.821   7.120   4.058  2.2664 -0.8700  0.7092
   18MOL    H99 3533   2.880   7.131   4.354  0.5644 -1.8219  0.5872
   18MOL   H100 3534   3.032   7.021   4.110 -1.3385 -1.4598 -0.4207
   18MOL   H101 3535   3.031   6.935   4.259  0.8206  0.5575  0.8493
   18MOL   C102 3536   3.148   7.125   4.270  0.4323  0.5893  0.3441
   18MOL   C103 3537   3.273   7.068   4.218 -0.3141 -0.2660 -0.0503
   18MOL   C104 3538   3.359   6.994   4.293 -1.1117  0.1965 -0.0285
   18MOL   C105 3539   3.497   6.950   4.249  1.3248  0.0441 -0.5691
   18MOL   H106 3540   3.137   7.232   4.251  1.1868  0.3027 -1.9167
   18MOL   H107 3541   3.146   7.114   4.378 -0.0087  0.4057  0.3193
   18MOL   H108 3542   3.303   7.086   4.116  1.0467  1.2916  0.6106
   18MOL   H109 3543   3.328   6.983   4.396 -0.9155  0.4553  0.0574
   18MOL   H110 3544   3.578   7.007   4.296  1.0005  2.6609 -2.9755
   18MOL   H111 3545   3.511   6.956   4.141 -1.4282  0.2516 -0.9389
   18MOL   C112 3546   3.530   6.801   4.283  0.6048  0.1510 -0.2082
   18MOL   C113 3547   3.434   6.699   4.216 -0.5038  0.0601  0.1547
   18MOL   C114 3548   3.470   6.570   4.182  0.0173  0.2086 -0.0132
   18MOL   C115 3549   3.390   6.465   4.123 -0.1917  0.3952  0.2266
   18MOL   H116 3550   3.638   6.786   4.273  0.5963 -0.5667  0.6824
   18MOL   H117 3551   3.512   6.800   4.391 -1.6473 -2.2028 -0.5854
   18MOL   H118 3552   3.334   6.731   4.193 -1.5428 -1.7028  2.0645
   18MOL   H119 3553   3.574   6.542   4.190 -0.7299 -2.8825 -0.6793
   18MOL   H120 3554   3.428   6.476   4.021 -0.7237 -0.2588 -0.0454
   18MOL   H121 3555   3.283   6.485   4.118 -0.5715 -1.6425 -0.4606
   18MOL   C122 3556   3.425   6.325   4.176  0.2020  0.4137  0.1472
   18MOL   C123 3557   3.418   6.304   4.327  0.0896  0.3878 -0.0244
   18MOL   C124 3558   3.327   6.235   4.397 -0.1177 -0.4041 -0.2767
   18MOL   C125 3559   3.334   6.219   4.552 -0.0942  0.8932 -0.0708
   18MOL   H126 3560   3.362   6.245   4.138  0.0942  0.0043  1.1623
   18MOL   H127 3561   3.527   6.298   4.148  0.9155  1.8688  1.2044
   18MOL   H128 3562   3.509   6.339   4.373  0.2372 -0.4535  0.3173
   18MOL   H129 3563   3.244   6.187   4.349 -0.2750  0.3791 -0.8025
   18MOL   H130 3564   3.431   6.263   4.573 -0.7179  0.9485  2.9550
   18MOL   H131 3565   3.351   6.118   4.588 -1.0075  0.0720 -1.8948
   18MOL   C132 3566   3.221   6.296   4.623  0.2404 -0.8843 -0.3953
   18MOL   C133 3567   3.109   6.209   4.653  0.5711  1.0441  0.6831
   18MOL   C134 3568   3.107   6.134   4.765 -0.7229  0.1640  0.3461
   18MOL   C135 3569   3.015   6.017   4.788 -0.5707 -0.4406  0.4306
   18MOL   H136 3570   3.252   6.351   4.711 -0.7884 -1.7370  0.5257
   18MOL   H137 3571   3.194   6.382   4.563 -0.0771  0.3247  1.4653
   18MOL   H138 3572   3.046   6.188   4.567  1.5803 -0.4259  0.2744
   18MOL   H139 3573   3.191   6.151   4.831 -0.0668  0.8401 -0.6436
   18MOL   H140 3574   3.042   5.935   4.722  0.9057  0.1076  0.3326
   18MOL   H141 3575   2.920   6.057   4.754 -1.2378 -3.0534 -0.8987
   18MOL   C142 3576   3.001   5.968   4.936  0.0970 -0.6992 -0.3788
   18MOL   C143 3577   2.904   5.857   4.957  0.1392 -0.4975 -0.6537
   18MOL   C144 3578   2.775   5.870   4.997 -0.3073  0.2957 -0.3757
   18MOL   C145 3579   2.666   5.756   5.003 -0.5613 -0.2572  0.0780
   18MOL   H146 3580   3.095   5.943   4.985  1.0668 -1.6104 -2.6795
   18MOL   H147 3581   2.952   6.053   4.985  1.8992 -0.0917  0.3975
   18MOL   H148 3582   2.941   5.762   4.922 -1.7612 -0.9426 -1.4679
   18MOL   H149 3583   2.737   5.965   5.032  0.2838  0.5175 -0.3405
   18MOL   H150 3584   2.582   5.798   4.948 -0.5056 -1.2211 -0.7552
   18MOL   H151 3585   2.635   5.738   5.106  1.2705  1.0375  0.8722
   18MOL   C152 3586   2.711   5.625   4.935 -0.2493  0.3382 -0.5072
   18MOL   C153 3587   2.594   5.527   4.935  0.0329 -0.3849 -0.3954
   18MOL   C154 3588   2.618   5.401   4.911 -0.0069  0.0481  0.2789
   18MOL   C155 3589   2.515   5.300   4.883 -0.3265  0.0097 -0.2718
   18MOL   H156 3590   2.752   5.639   4.836  2.6476 -0.6598  0.4997
   18MOL   H157 3591   2.796   5.577   4.984  0.4850 -1.2201 -3.2255
   18MOL   H158 3592   2.497   5.574   4.937  0.7036  1.0094  0.6039
   18MOL   H159 3593   2.719   5.366   4.901 -0.5637 -1.1184 -1.4224
   18MOL   H160 3594   2.555   5.217   4.826  2.5417  1.4315 -0.3982
   18MOL   H161 3595   2.446   5.348   4.814 -1.7650  0.4831  1.4551
   18MOL   C162 3596   2.433   5.257   5.009  0.3191 -0.1135  0.6991
   18MOL   C163 3597   2.507   5.161   5.093  0.5087  0.0745 -0.3812
   18MOL   C164 3598   2.518   5.164   5.229  0.0948 -0.3537 -0.5908
   18MOL   C165 3599   2.585   5.065   5.321  0.6178  0.1977 -0.0880
   18MOL   H166 3600   2.405   5.345   5.068  0.4814 -0.2841  1.0287
   18MOL   H167 3601   2.339   5.215   4.974 -0.5462  1.4180  1.1268
   18MOL   H168 3602   2.543   5.073   5.040  0.7091  0.1103 -0.3081
   18MOL   H169 3603   2.471   5.246   5.280 -0.4556 -0.4947 -0.8664
   18MOL   H170 3604   2.507   5.056   5.396  1.6524  0.7545  1.0719
   18MOL   H171 3605   2.670   5.113   5.370  1.6878 -0.9885 -0.7349
   18MOL   C172 3606   2.624   4.928   5.262 -0.5288  0.5898  0.1845
   18MOL   C173 3607   2.618   4.819   5.370 -0.0132  0.0247 -0.5845
   18MOL   C174 3608   2.708   4.723   5.385 -0.2899  0.1879  0.1833
   18MOL   C175 3609   2.715   4.616   5.487 -0.1758 -0.8050  0.3188
   18MOL   H176 3610   2.559   4.915   5.176 -0.9783  0.5048  0.5336
   18MOL   H177 3611   2.728   4.930   5.227 -0.4427  0.2564  0.4191
   18MOL   H178 3612   2.531   4.818   5.433  0.1837 -0.3322 -0.3107
   18MOL   H179 3613   2.798   4.741   5.329  0.3166  2.5158  1.8496
   18MOL   H180 3614   2.822   4.594   5.486 -0.3513 -1.5827 -0.8698
   18MOL   H181 3615   2.662   4.532   5.444 -0.6351 -0.0087 -0.6966
   18MOL   C182 3616   2.663   4.655   5.621  0.5350 -0.0991 -0.4034
   18MOL   C183 3617   2.706   4.560   5.738  0.0073  0.1463  0.1034
   18MOL   C184 3618   2.617   4.475   5.795 -0.4681 -0.3451  0.4747
   18MOL   C185 3619   2.648   4.357   5.883  0.4509  0.3131  0.1091
   18MOL   H186 3620   2.708   4.749   5.652  0.4959 -0.2008 -0.0353
   18MOL   H187 3621   2.556   4.673   5.615  0.2134 -2.4863 -3.0112
   18MOL   H188 3622   2.811   4.569   5.761 -0.3620  0.9144  1.5505
   18MOL   H189 3623   2.515   4.484   5.759 -0.4101 -2.2194 -0.2252
   18MOL   H190 3624   2.755   4.351   5.902  0.4317  1.3359  0.5760
   18MOL   H191 3625   2.612   4.268   5.832  1.0243  0.3146 -0.3020
   18MOL   C192 3626   2.575   4.356   6.017 -0.6778 -0.8190 -0.8110
   18MOL   C193 3627   2.613   4.234   6.100  0.1579 -0.1227 -0.1264
   18MOL   C194 3628   2.688   4.127   6.071 -0.1020  0.4412 -0.2153
   18MOL   C195 3629   2.702   4.020   6.177  0.0616 -0.0275  0.4294
   18MOL   H196 3630   2.596   4.453   6.062  1.3177 -1.2505 -0.8024
   18MOL   H197 3631   2.467   4.361   6.005 -0.6423 -2.5109 -2.0190
   18MOL   H198 3632   2.563   4.238   6.196 -1.3012  0.1206 -0.8765
   18MOL   H199 3633   2.740   4.115   5.977  1.0095  0.9513  0.3274
   18MOL   H200 3634   2.617   4.007   6.245  0.8675  2.1667  1.9163
   18MOL   H201 3635   2.777   4.045   6.252 -0.3327 -0.0580  0.8422
   18MOL   H202 3636   2.728   3.929   6.124 -0.1086 -1.4449  2.7014
   19MOL     C1 3637   5.142   3.129   4.471  0.2302 -0.5481  0.0661
   19MOL     C2 3638   5.159   3.149   4.326  0.3515 -0.0629 -0.1979
   19MOL     C3 3639   5.060   3.125   4.237 -0.0988 -0.6068 -0.2322
   19MOL     C4 3640   5.088   3.150   4.092  0.0620  0.3378 -0.4678
   19MOL     H5 3641   5.063   3.058   4.495  0.3107 -0.9964 -0.9686
   19MOL     H6 3642   5.106   3.222   4.515 -1.6353 -2.1525  2.0071
   19MOL     H7 3643   5.263   3.165   4.300  0.6658 -0.4056  0.8233
   19MOL     H8 3644   4.961   3.091   4.262  0.8223 -2.4328  0.9875
   19MOL     H9 3645   5.070   3.055   4.042  0.0661 -1.0170  2.0208
   19MOL    H10 3646   5.187   3.184   4.064  0.1607 -0.6664 -1.3663
   19MOL    H11 3647   5.235   3.101   4.520 -0.7642 -2.8332  0.6944
   19MOL    C12 3648   4.982   3.244   4.045 -0.5220  0.1120  1.1049
   19MOL    C13 3649   5.001   3.293   3.907  0.1506  0.2594  0.1295
   19MOL    C14 3650   5.027   3.422   3.889 -0.6048 -0.2001 -0.5908
   19MOL    C15 3651   5.045   3.476   3.751 -0.3474  0.3508 -0.0482
   19MOL    H16 3652   4.879   3.213   4.064 -0.6375 -0.9024 -1.0222
   19MOL    H17 3653   4.995   3.322   4.120  0.2218  1.5273 -0.4563
   19MOL    H18 3654   5.005   3.225   3.823  2.6006 -1.9382  1.9416
   19MOL    H19 3655   5.029   3.489   3.973  0.4358  0.3697 -1.0522
   19MOL    H20 3656   4.988   3.567   3.735 -0.7336 -0.1809 -1.7573
   19MOL    H21 3657   4.999   3.411   3.676  2.9925 -1.8471 -0.3187
   19MOL    C22 3658   5.194   3.524   3.727  0.4607 -0.5619 -0.5953
   19MOL    C23 3659   5.218   3.554   3.585  0.1105  0.1045 -0.3305
   19MOL    C24 3660   5.269   3.671   3.528  0.5004 -0.0587  0.4567
   19MOL    C25 3661   5.273   3.676   3.376 -1.0166 -0.1281  0.1903
   19MOL    H26 3662   5.202   3.618   3.782 -1.3305  0.7804 -2.5537
   19MOL    H27 3663   5.257   3.442   3.762  0.4364 -0.5981 -0.6361
   19MOL    H28 3664   5.181   3.478   3.517 -0.2854  0.5197 -0.5764
   19MOL    H29 3665   5.306   3.757   3.581  1.0084  1.1220 -1.7621
   19MOL    H30 3666   5.226   3.768   3.343 -1.2360 -1.1860 -2.5757
   19MOL    H31 3667   5.225   3.590   3.329  0.9523 -0.5123 -1.1942
   19MOL    C32 3668   5.423   3.685   3.340  0.8636 -0.5508 -0.6180
   19MOL    C33 3669   5.446   3.749   3.199 -0.2305  0.0414  0.1216
   19MOL    C34 3670   5.526   3.691   3.107  0.0293  0.3562  0.2679
   19MOL    C35 3671   5.553   3.755   2.973  0.5798  0.5652  0.0324
   19MOL    H36 3672   5.481   3.751   3.404  0.1876  0.9679 -1.5385
   19MOL    H37 3673   5.477   3.590   3.333  1.7900 -0.2926  2.3963
   19MOL    H38 3674   5.391   3.837   3.169 -2.4073 -0.8768  1.3626
   19MOL    H39 3675   5.584   3.601   3.121 -0.6495  0.1040  1.5098
   19MOL    H40 3676   5.508   3.855   2.971 -1.3721 -0.3328 -1.8717
   19MOL    H41 3677   5.494   3.704   2.897 -0.7813  0.8084  0.8983
   19MOL    C42 3678   5.705   3.762   2.939  0.0945  0.0503  0.4392
   19MOL    C43 3679   5.766   3.631   2.902  0.1048 -0.4049  0.4415
   19MOL    C44 3680   5.824   3.611   2.781 -0.2450 -0.8260 -0.7168
   19MOL    C45 3681   5.917   3.501   2.739  0.6074  0.0753  0.5677
   19MOL    H46 3682   5.705   3.825   2.850  3.1727 -1.7804 -0.9245
   19MOL    H47 3683   5.765   3.812   3.014 -0.8698 -0.7268  1.7630
   19MOL    H48 3684   5.780   3.557   2.980  0.8843  0.3744  1.0608
   19MOL    H49 3685   5.818   3.683   2.701 -0.8847 -1.4735 -1.2631
   19MOL    H50 3686   5.932   3.426   2.817 -0.0520  0.5207  1.1301
   19MOL    H51 3687   6.004   3.556   2.703  0.8504 -0.1556  0.7990
   19MOL    C52 3688   5.862   3.431   2.612 -0.1211 -0.6065  0.2829
   19MOL    C53 3689   5.961   3.378   2.507  0.3485 -0.1525 -0.2668
   19MOL    C54 3690   5.985   3.251   2.487 -0.3042  0.1561  0.0877
   19MOL    C55 3691   6.090   3.201   2.385  0.0533 -0.9859  0.7975
   19MOL    H56 3692   5.782   3.360   2.631 -1.6101  0.7890 -0.7033
   19MOL    H57 3693   5.806   3.505   2.556  2.9005  0.0984 -1.9714
   19MOL    H58 3694   6.018   3.447   2.446 -0.0302  2.0525  1.8006
   19MOL    H59 3695   5.924   3.173   2.528  1.6367 -0.3844  2.0930
   19MOL    H60 3696   6.158   3.283   2.365 -0.6340 -1.1508 -2.4022
   19MOL    H61 3697   6.036   3.193   2.291 -0.7451  1.0311  1.0723
   19MOL    C62 3698   6.170   3.079   2.436  0.5274 -0.2764 -0.0389
   19MOL    C63 3699   6.266   3.102   2.553 -0.0889  0.1761 -0.0459
   19MOL    C64 3700   6.246   3.063   2.683 -0.0161  0.3222  0.6054
   19MOL    C65 3701   6.356   3.077   2.796  1.0506 -0.3120 -0.0353
   19MOL    H66 3702   6.098   3.003   2.469  0.7473 -0.7169 -0.5725
   19MOL    H67 3703   6.229   3.039   2.354  0.3814 -1.5904  0.4852
   19MOL    H68 3704   6.364   3.140   2.529 -0.4663 -0.3937 -2.5875
   19MOL    H69 3705   6.156   3.006   2.703  1.1054  0.0818  5.3454
   19MOL    H70 3706   6.422   3.157   2.763  1.3370 -0.6511 -0.2843
   19MOL    H71 3707   6.420   2.989   2.801  0.9644 -0.3820 -0.1650
   19MOL    C72 3708   6.290   3.114   2.936 -0.3309 -0.0155 -0.0926
   19MOL    C73 3709   6.222   2.993   3.005 -0.3879 -0.6224  0.4073
   19MOL    C74 3710   6.087   2.990   3.023 -0.0589 -0.1333 -0.5569
   19MOL    C75 3711   6.006   2.884   3.100  0.3756  0.3774  0.5430
   19MOL    H76 3712   6.359   3.165   3.004 -0.9196  0.7753 -0.0763
   19MOL    H77 3713   6.207   3.181   2.915 -1.5071 -1.7037 -0.9022
   19MOL    H78 3714   6.280   2.917   3.054 -2.5931 -0.4010  3.5002
   19MOL    H79 3715   6.038   3.074   2.977 -2.2211 -0.7351  0.5971
   19MOL    H80 3716   6.069   2.815   3.156 -2.2428 -1.6050  1.1424
   19MOL    H81 3717   5.959   2.816   3.029 -0.5355  1.2245  0.3199
   19MOL    C82 3718   5.903   2.942   3.202 -0.8376  0.9998  0.6319
   19MOL    C83 3719   5.834   2.828   3.274 -0.1106  0.8263 -0.0776
   19MOL    C84 3720   5.800   2.840   3.407 -0.8368 -0.1061  0.6483
   19MOL    C85 3721   5.714   2.748   3.492  0.1468  0.0758  0.4013
   19MOL    H86 3722   5.959   3.004   3.271  0.2086  0.7549  0.0036
   19MOL    H87 3723   5.827   3.014   3.170  0.0778  1.5566 -0.2882
   19MOL    H88 3724   5.786   2.754   3.212  0.3752  1.5920 -1.3913
   19MOL    H89 3725   5.859   2.919   3.451  1.3173  0.3591 -2.8760
   19MOL    H90 3726   5.777   2.668   3.531  1.8541  0.3339 -1.7007
   19MOL    H91 3727   5.641   2.698   3.429 -0.8639  0.0566  1.5745
   19MOL    C92 3728   5.654   2.823   3.606  0.0696 -0.4389  0.6029
   19MOL    C93 3729   5.560   2.725   3.681 -0.3864 -0.0234  0.0224
   19MOL    C94 3730   5.594   2.660   3.794  0.7382 -0.5003  0.3723
   19MOL    C95 3731   5.503   2.558   3.853  0.6204  0.0825  0.6164
   19MOL    H96 3732   5.733   2.849   3.676  0.3233  1.1299 -0.2360
   19MOL    H97 3733   5.602   2.914   3.575  0.0588 -0.5939  0.1500
   19MOL    H98 3734   5.465   2.699   3.635 -1.2394  0.7524  1.3203
   19MOL    H99 3735   5.690   2.665   3.842  1.9804 -0.6976 -2.0386
   19MOL   H100 3736   5.411   2.579   3.801  1.3111  0.1759 -0.5787
   19MOL   H101 3737   5.475   2.570   3.958  1.5890 -0.9910  1.0225
   19MOL   C102 3738   5.553   2.416   3.815  0.1500 -0.1583 -0.3341
   19MOL   C103 3739   5.453   2.309   3.866  0.2711 -0.0418 -0.2246
   19MOL   C104 3740   5.416   2.290   3.989 -0.3345  1.4448  0.3864
   19MOL   C105 3741   5.327   2.177   4.019  0.4833 -0.1179 -0.3111
   19MOL   H106 3742   5.578   2.414   3.709  0.1904  0.1436 -0.3293
   19MOL   H107 3743   5.645   2.394   3.868 -1.3144  0.2254  2.4402
   19MOL   H108 3744   5.415   2.236   3.795 -2.6453  1.2462 -0.0591
   19MOL   H109 3745   5.458   2.354   4.065  0.2826  1.1783  0.2726
   19MOL   H110 3746   5.371   2.105   4.088 -2.8281 -1.9757 -0.0250
   19MOL   H111 3747   5.305   2.119   3.929  0.4552 -0.3319 -0.1661
   19MOL   C112 3748   5.206   2.224   4.108  0.0621 -0.4078 -0.1686
   19MOL   C113 3749   5.108   2.110   4.131  0.7032  0.6728 -0.0349
   19MOL   C114 3750   5.102   2.021   4.237 -0.2113  0.0617  0.2735
   19MOL   C115 3751   4.994   1.916   4.256 -0.0700 -0.6293 -0.0142
   19MOL   H116 3752   5.247   2.262   4.202  0.8540  2.4546 -1.6164
   19MOL   H117 3753   5.161   2.313   4.065 -0.9057 -1.4139 -1.2519
   19MOL   H118 3754   5.024   2.093   4.066  0.2302  1.6542  0.3082
   19MOL   H119 3755   5.183   2.019   4.308  0.2892 -0.6540 -0.3096
   19MOL   H120 3756   4.936   1.898   4.166 -1.4906 -1.0124  0.9703
   19MOL   H121 3757   4.918   1.947   4.327  0.4709  1.9903 -0.5337
   19MOL   C122 3758   5.063   1.790   4.307 -1.1738 -0.3288  0.2450
   19MOL   C123 3759   4.976   1.669   4.311 -0.0872  0.3875  0.8615
   19MOL   C124 3760   4.989   1.568   4.403 -0.1376 -0.2027  0.3700
   19MOL   C125 3761   4.908   1.439   4.398  0.1888 -0.0847  0.5494
   19MOL   H126 3762   5.131   1.755   4.229 -0.6994 -1.7769  1.2855
   19MOL   H127 3763   5.118   1.823   4.396 -0.5052 -0.3414 -0.1600
   19MOL   H128 3764   4.903   1.654   4.233  1.7772  0.7440 -1.0235
   19MOL   H129 3765   5.062   1.572   4.482 -0.0025 -3.5153  0.4504
   19MOL   H130 3766   4.972   1.353   4.378  0.3963 -0.1268  1.3883
   19MOL   H131 3767   4.839   1.448   4.314  0.3958 -3.2802 -0.0331
   19MOL   C132 3768   4.846   1.419   4.533 -0.0142 -0.5495 -0.2522
   19MOL   C133 3769   4.745   1.306   4.529 -0.3788 -0.6189 -0.6477
   19MOL   C134 3770   4.751   1.208   4.617  0.1274 -0.2364  0.2525
   19MOL   C135 3771   4.650   1.096   4.634  0.3846 -0.1840 -0.1650
   19MOL   H136 3772   4.919   1.397   4.611 -0.9796  1.1231  1.1738
   19MOL   H137 3773   4.804   1.516   4.562 -0.5198 -0.7219 -0.4063
   19MOL   H138 3774   4.668   1.297   4.453  0.5296 -0.0138 -1.6466
   19MOL   H139 3775   4.823   1.211   4.698  1.8288 -1.8762 -1.1540
   19MOL   H140 3776   4.594   1.090   4.541  1.2884  0.3493 -0.7480
   19MOL   H141 3777   4.580   1.110   4.716 -0.0615 -1.1793 -0.3596
   19MOL   C142 3778   4.704   0.961   4.652 -0.3731  0.8796  0.3506
   19MOL   C143 3779   4.594   0.852   4.668  0.1877 -0.2555  0.2013
   19MOL   C144 3780   4.586   0.751   4.582  0.2320 -0.1477  0.1861
   19MOL   C145 3781   4.480   0.646   4.578  0.3882  0.5695 -0.0270
   19MOL   H146 3782   4.788   0.947   4.584 -1.0361  0.1472 -0.3319
   19MOL   H147 3783   4.754   0.966   4.749  2.3535 -2.3152 -0.8144
   19MOL   H148 3784   4.527   0.853   4.752 -0.3817  0.8204 -0.2618
   19MOL   H149 3785   4.671   0.748   4.515 -0.1360 -1.2265 -0.2349
   19MOL   H150 3786   4.436   0.648   4.478 -0.6280 -1.8887  0.3482
   19MOL   H151 3787   4.396   0.671   4.643 -0.5736  0.6835 -1.3053
   19MOL   C152 3788   4.528   0.499   4.610  0.0083 -0.0942  0.7868
   19MOL   C153 3789   4.420   0.396   4.615  0.3655 -0.7440 -0.3228
   19MOL   C154 3790   4.381   0.325   4.723 -0.2986 -0.6376  0.5166
   19MOL   C155 3791   4.277   0.217   4.719  0.1290 -0.3855 -0.0573
   19MOL   H156 3792   4.615   0.465   4.553 -1.7414 -2.7521 -0.4055
   19MOL   H157 3793   4.570   0.504   4.711  2.1084  1.0008 -0.1118
   19MOL   H158 3794   4.375   0.364   4.523  1.6953 -1.3622 -0.7551
   19MOL   H159 3795   4.430   0.334   4.819  2.0282 -0.9994 -0.5920
   19MOL   H160 3796   4.216   0.224   4.628 -1.3575 -1.5228  0.8136
   19MOL   H161 3797   4.216   0.241   4.806 -0.1322  1.0745 -0.6431
   19MOL   C162 3798   4.340   0.085   4.754  0.3285 -0.3449  1.5153
   19MOL   C163 3799   4.439   0.037   4.647  0.3032  0.4203  0.0217
   19MOL   C164 3800   4.425   7.893   4.587 -0.1898 -0.4604  1.0001
   19MOL   C165 3801   4.523   7.854   4.478 -0.3010 -0.0341 -0.5638
   19MOL   H166 3802   4.386   0.096   4.852 -0.0761 -1.6153  1.8628
   19MOL   H167 3803   4.268   0.004   4.765 -1.0164  0.6002 -0.1149
   19MOL   H168 3804   4.524   0.101   4.630 -1.3737  3.2317  1.8126
   19MOL   H169 3805   4.345   7.821   4.595  0.7263 -1.7335 -0.7926
   19MOL   H170 3806   4.582   7.943   4.456 -1.3132  0.8164  0.1222
   19MOL   H171 3807   4.473   7.837   4.383  0.7757  0.9064 -1.3171
   19MOL   C172 3808   4.591   7.722   4.508  0.7069  0.2035 -0.2574
   19MOL   C173 3809   4.691   7.690   4.394 -0.2073  0.4259  0.2496
   19MOL   C174 3810   4.705   7.570   4.329 -0.4633  0.3192 -0.1518
   19MOL   C175 3811   4.806   7.544   4.219  0.5447 -0.0557  0.4270
   19MOL   H176 3812   4.633   7.741   4.606 -0.2840 -0.8235  0.3764
   19MOL   H177 3813   4.515   7.644   4.509  0.6197  0.2928  1.1967
   19MOL   H178 3814   4.764   7.764   4.366 -0.2224 -0.1957 -1.5501
   19MOL   H179 3815   4.645   7.482   4.345  1.2366 -1.1651 -1.6334
   19MOL   H180 3816   4.884   7.473   4.247 -1.0318 -1.6347  0.8955
   19MOL   H181 3817   4.862   7.637   4.206  1.4843 -0.7124 -0.2606
   19MOL   C182 3818   4.746   7.482   4.090  0.3096 -0.3412  0.2793
   19MOL   C183 3819   4.837   7.475   3.974  0.5533 -0.0814  0.1873
   19MOL   C184 3820   4.812   7.531   3.860 -0.6707 -0.0812  0.1987
   19MOL   C185 3821   4.920   7.513   3.753  0.1731  0.4096 -0.0094
   19MOL   H186 3822   4.707   7.382   4.112  0.9425 -0.8610 -0.9199
   19MOL   H187 3823   4.657   7.540   4.064  1.5386  2.1059  1.4041
   19MOL   H188 3824   4.928   7.418   3.982  0.1736 -0.5228  1.4510
   19MOL   H189 3825   4.718   7.577   3.835  1.6976  3.4772 -2.5858
   19MOL   H190 3826   4.871   7.477   3.663 -0.7469 -0.7532  0.9480
   19MOL   H191 3827   4.985   7.428   3.773 -3.0758 -1.6955  1.9055
   19MOL   C192 3828   4.990   7.650   3.726 -0.3492 -0.0298  0.3725
   19MOL   C193 3829   5.087   7.636   3.609 -0.1886  0.0954  0.3634
   19MOL   C194 3830   5.220   7.639   3.608  0.0197 -0.2755 -0.1791
   19MOL   C195 3831   5.303   7.621   3.484  1.0121 -0.1005  0.3749
   19MOL   H196 3832   4.915   7.722   3.695 -1.1296 -0.5005  1.1459
   19MOL   H197 3833   5.039   7.673   3.821 -1.9059  0.3080  1.1008
   19MOL   H198 3834   5.042   7.637   3.511 -0.1227  0.1473  0.3340
   19MOL   H199 3835   5.271   7.636   3.703  0.4227  0.8340 -0.3521
   19MOL   H200 3836   5.269   7.698   3.414 -3.6440 -2.8158 -0.5612
   19MOL   H201 3837   5.310   7.515   3.460  2.2390  0.3951 -1.5692
   19MOL   H202 3838   5.405   7.650   3.508  1.2178 -1.1815  0.8475
   20MOL     C1 3839   2.256   0.768   6.450 -0.4922 -0.1149  0.0447
   20MOL     C2 3840   2.259   0.898   6.520  0.1736  0.1929 -0.4878
   20MOL     C3 3841   2.154   0.938   6.594 -0.0985  0.4300 -0.6859
   20MOL     C4 3842   2.152   1.057   6.688  0.4452  0.4525  0.2613
   20MOL     H5 3843   2.354   0.722   6.462 -0.1369  0.5893 -0.1386
   20MOL     H6 3844   2.235   0.785   6.345  1.7960 -1.0353 -0.5996
   20MOL     H7 3845   2.349   0.958   6.511 -0.7935  1.6397 -0.6007
   20MOL     H8 3846   2.074   0.866   6.598  0.3728 -0.0403  0.4179
   20MOL     H9 3847   2.246   1.110   6.670  0.1667  0.4823 -1.2144
   20MOL    H10 3848   2.148   1.022   6.791 -0.6931 -0.7296 -0.1776
   20MOL    H11 3849   2.176   0.708   6.493 -0.6530 -0.1413 -0.2903
   20MOL    C12 3850   2.038   1.153   6.681  0.1509 -0.8565  0.0809
   20MOL    C13 3851   2.044   1.270   6.779 -0.0571 -0.0785  0.2444
   20MOL    C14 3852   2.021   1.398   6.742 -0.4345  0.1410 -0.1656
   20MOL    C15 3853   2.000   1.515   6.845 -0.2328 -0.1734 -0.4492
   20MOL    H16 3854   2.034   1.195   6.581  1.8840 -1.6271 -0.3351
   20MOL    H17 3855   1.945   1.097   6.685  1.2635 -2.6903  0.7814
   20MOL    H18 3856   2.055   1.245   6.884 -0.4591  0.0848  0.3286
   20MOL    H19 3857   2.010   1.426   6.638  0.9704  0.9055 -0.1231
   20MOL    H20 3858   2.074   1.589   6.814 -1.6739  1.4241 -0.1484
   20MOL    H21 3859   2.024   1.486   6.947 -3.4006  0.5234  0.5391
   20MOL    C22 3860   1.853   1.564   6.837  0.0561  0.2319 -0.2314
   20MOL    C23 3861   1.825   1.704   6.899  0.0410  0.8027 -0.1645
   20MOL    C24 3862   1.758   1.801   6.835 -0.2055 -1.4006 -0.2475
   20MOL    C25 3863   1.711   1.936   6.900 -0.4330  0.6938  0.3395
   20MOL    H26 3864   1.829   1.568   6.731  0.3261  0.6049 -0.2806
   20MOL    H27 3865   1.800   1.480   6.882  0.1493  0.6946  0.7531
   20MOL    H28 3866   1.838   1.717   7.005  2.7459 -1.1606 -0.2016
   20MOL    H29 3867   1.729   1.800   6.731 -0.6001  1.5210 -0.2109
   20MOL    H30 3868   1.761   2.019   6.851 -1.1987  1.9478  1.6416
   20MOL    H31 3869   1.748   1.950   7.002  1.9574 -0.1478 -0.3719
   20MOL    C32 3870   1.558   1.961   6.882  0.8742  0.6278 -0.3801
   20MOL    C33 3871   1.512   2.079   6.964 -0.1367 -0.1244  0.1085
   20MOL    C34 3872   1.404   2.153   6.936 -0.9439 -0.0414 -0.5956
   20MOL    C35 3873   1.330   2.256   7.027  0.4204  0.3804  0.2616
   20MOL    H36 3874   1.536   1.973   6.776 -0.8481  2.6177  0.1598
   20MOL    H37 3875   1.493   1.877   6.909  1.7261  0.5735  1.5751
   20MOL    H38 3876   1.544   2.083   7.066  0.0156  0.0765  0.0534
   20MOL    H39 3877   1.369   2.151   6.834 -1.6468 -0.0265 -0.3609
   20MOL    H40 3878   1.401   2.283   7.105  0.3954 -0.1730  0.4768
   20MOL    H41 3879   1.243   2.193   7.045  2.7556 -2.6722  1.1882
   20MOL    C42 3880   1.269   2.372   6.948  0.2114  0.1285  0.2059
   20MOL    C43 3881   1.157   2.453   7.017  0.9973 -0.7622 -0.8256
   20MOL    C44 3882   1.168   2.586   7.044  0.1594 -0.2106 -0.2787
   20MOL    C45 3883   1.059   2.673   7.108 -0.1834  0.1280  0.0887
   20MOL    H46 3884   1.348   2.428   6.897 -0.9866  0.9945 -0.7532
   20MOL    H47 3885   1.206   2.325   6.873 -0.3106  1.1887 -0.0332
   20MOL    H48 3886   1.069   2.394   7.040  0.7375 -0.4992 -1.1282
   20MOL    H49 3887   1.261   2.637   7.024 -1.4307  2.1388 -1.8311
   20MOL    H50 3888   0.972   2.607   7.116 -0.2965  0.1593 -0.8962
   20MOL    H51 3889   1.034   2.755   7.040  0.7576 -2.0130 -2.9202
   20MOL    C52 3890   1.103   2.737   7.235 -0.0650 -0.5217 -0.0607
   20MOL    C53 3891   0.985   2.822   7.284 -0.5352 -0.2468  0.2347
   20MOL    C54 3892   0.927   2.809   7.406 -0.0071 -0.6686 -0.0570
   20MOL    C55 3893   0.822   2.903   7.457  0.5958 -0.6383  0.1952
   20MOL    H56 3894   1.130   2.654   7.300  2.5521 -0.2933 -0.7855
   20MOL    H57 3895   1.192   2.799   7.221 -0.3257  0.1126  1.0263
   20MOL    H58 3896   0.935   2.894   7.221  0.5541  1.1785  0.9787
   20MOL    H59 3897   0.959   2.731   7.473 -1.4456  1.4095  3.1922
   20MOL    H60 3898   0.792   2.986   7.394 -0.0698 -0.8968  0.1693
   20MOL    H61 3899   0.868   2.949   7.545  0.6848 -1.5249  0.6236
   20MOL    C62 3900   0.689   2.829   7.483 -0.1342  0.3996  0.1140
   20MOL    C63 3901   0.578   2.915   7.532  0.1736  1.0912 -0.3874
   20MOL    C64 3902   0.509   2.894   7.646 -0.2695  0.4058  0.0349
   20MOL    C65 3903   0.393   2.976   7.696  0.5796 -0.0392 -1.0247
   20MOL    H66 3904   0.654   2.778   7.393 -0.0406 -2.8546  1.8369
   20MOL    H67 3905   0.703   2.747   7.553 -0.6949 -2.2963 -2.8194
   20MOL    H68 3906   0.536   2.992   7.469 -1.6427 -0.1141 -0.6858
   20MOL    H69 3907   0.542   2.818   7.715 -2.3427 -2.1969 -1.7022
   20MOL    H70 3908   0.354   3.053   7.630 -0.4964 -0.4217 -0.8472
   20MOL    H71 3909   0.418   3.029   7.788  0.8282  2.6084 -2.5767
   20MOL    C72 3910   0.277   2.878   7.734 -0.4632  0.0526  0.9430
   20MOL    C73 3911   0.184   2.956   7.819  0.2066 -0.4186 -0.2899
   20MOL    C74 3912   0.130   2.919   7.934 -0.6954 -0.3200  0.1889
   20MOL    C75 3913   0.029   3.008   0.028 -0.3054 -0.1013 -0.2245
   20MOL    H76 3914   0.231   2.837   7.644  1.2997  1.9779 -0.9033
   20MOL    H77 3915   0.306   2.791   7.793 -3.7575 -1.8467 -0.0979
   20MOL    H78 3916   0.147   3.045   7.771  0.9545  0.2329  0.3280
   20MOL    H79 3917   0.150   2.821   7.972  0.2532 -1.1063 -2.2529
   20MOL    H80 3918   7.916   2.947   0.041  1.4433 -3.0871 -1.5999
   20MOL    H81 3919   0.001   3.093   7.943  0.2874  1.8045  2.0496
   20MOL    C82 3920   0.080   3.051   0.164 -0.5054 -0.8142  0.0103
   20MOL    C83 3921   0.115   3.194   0.155  0.1486 -0.2999  0.7771
   20MOL    C84 3922   0.220   3.252   0.204 -0.0733 -0.6827 -0.1517
   20MOL    C85 3923   0.272   3.398   0.178 -0.2923 -0.1189 -0.1809
   20MOL    H86 3924   0.008   3.036   0.244 -0.5963 -1.8037 -0.2401
   20MOL    H87 3925   0.168   2.992   0.190  0.6682  0.5079 -0.8546
   20MOL    H88 3926   0.054   3.259   0.094 -0.6139 -2.4755 -0.8573
   20MOL    H89 3927   0.293   3.197   0.261 -0.6186 -0.5778  0.6531
   20MOL    H90 3928   0.267   3.472   0.258  1.1733  0.3317 -0.4776
   20MOL    H91 3929   0.210   3.437   0.097 -0.6350 -0.3315 -0.0217
   20MOL    C92 3930   0.413   3.406   0.128 -0.1875 -0.8647  0.3990
   20MOL    C93 3931   0.469   3.550   0.111  0.0422  0.5940 -0.6201
   20MOL    C94 3932   0.514   3.596   7.975 -0.6580 -1.0497  0.1843
   20MOL    C95 3933   0.541   3.742   7.951 -0.0839  0.0084 -0.6855
   20MOL    H96 3934   0.475   3.343   0.193  0.4370 -0.2614  0.3936
   20MOL    H97 3935   0.420   3.356   0.031  0.2110  0.5456 -0.3128
   20MOL    H98 3936   0.439   3.628   0.180 -1.6336 -0.6974  0.1644
   20MOL    H99 3937   0.548   3.527   7.899  1.5421  0.8530 -0.6120
   20MOL   H100 3938   0.540   3.794   0.070 -0.9620 -0.2645 -0.5436
   20MOL   H101 3939   0.461   3.778   7.886  2.3295  1.7810 -2.7920
   20MOL   C102 3940   0.665   3.759   7.868 -0.2380 -0.4079  0.0973
   20MOL   C103 3941   0.667   3.895   7.807 -0.2333 -0.3972  0.6472
   20MOL   C104 3942   0.772   3.980   7.807 -0.0358  0.4764 -0.4929
   20MOL   C105 3943   0.783   4.119   7.745  0.7393 -0.7844 -0.8366
   20MOL   H106 3944   0.759   3.757   7.923 -0.0584  0.5381 -0.1543
   20MOL   H107 3945   0.667   3.698   7.777 -1.0290  0.9009 -0.8252
   20MOL   H108 3946   0.577   3.926   7.758  0.2639  0.6402  0.3789
   20MOL   H109 3947   0.867   3.941   7.842 -0.9106 -1.0816  0.2041
   20MOL   H110 3948   0.691   4.164   7.708 -0.3890 -2.2250  0.1457
   20MOL   H111 3949   0.849   4.113   7.658 -0.0644  2.7210 -1.7531
   20MOL   C112 3950   0.839   4.221   7.850 -0.0831 -0.4179  0.0540
   20MOL   C113 3951   0.816   4.370   7.796  0.0458 -0.6793 -0.3016
   20MOL   C114 3952   0.731   4.455   7.845  0.0761  0.2084  0.5010
   20MOL   C115 3953   0.733   4.596   7.788 -0.0121  0.4721  0.7103
   20MOL   H116 3954   0.784   4.210   7.944 -0.3989 -0.4947 -0.1356
   20MOL   H117 3955   0.946   4.220   7.867 -0.3177 -0.5986  1.6155
   20MOL   H118 3956   0.879   4.408   7.716  0.2843  2.1180  1.1503
   20MOL   H119 3957   0.673   4.418   7.929  0.1746  0.7098  0.7958
   20MOL   H120 3958   0.832   4.611   7.746 -0.4029  0.3752 -0.2629
   20MOL   H121 3959   0.728   4.665   7.872 -1.5165  1.6005 -0.2760
   20MOL   C122 3960   0.617   4.611   7.687  0.1784  0.3746  0.4114
   20MOL   C123 3961   0.640   4.701   7.569  0.0977  0.3135  0.1130
   20MOL   C124 3962   0.582   4.819   7.558 -0.0654 -0.2652  0.3722
   20MOL   C125 3963   0.584   4.893   7.426  0.3414 -0.1857  0.1552
   20MOL   H126 3964   0.594   4.512   7.649 -1.9289 -0.2446  3.1565
   20MOL   H127 3965   0.526   4.629   7.744  0.4144  0.2601  0.8289
   20MOL   H128 3966   0.699   4.656   7.491 -2.1774 -1.5768 -0.5756
   20MOL   H129 3967   0.527   4.859   7.643 -0.7095  0.3840 -0.3447
   20MOL   H130 3968   0.667   4.873   7.358  2.2895  0.7481  2.1545
   20MOL   H131 3969   0.595   4.997   7.459  0.5580 -0.5790  1.3599
   20MOL   C132 3970   0.448   4.876   7.356 -0.1031  1.2490 -0.0000
   20MOL   C133 3971   0.433   4.956   7.232 -0.9712 -0.0337 -1.3894
   20MOL   C134 3972   0.325   5.025   7.191 -0.6756 -0.0034  0.2539
   20MOL   C135 3973   0.304   5.078   7.052  0.0085 -0.2848  0.7333
   20MOL   H136 3974   0.446   4.770   7.330  2.6878  0.7357  1.6515
   20MOL   H137 3975   0.360   4.893   7.419 -1.3751 -2.4367 -0.5932
   20MOL   H138 3976   0.515   4.937   7.163  2.2978 -0.2436  2.3755
   20MOL   H139 3977   0.247   5.039   7.265 -2.4013 -1.8846 -1.1603
   20MOL   H140 3978   0.392   5.047   6.997 -0.7212 -1.5119  0.2287
   20MOL   H141 3979   0.303   5.187   7.061  2.8289 -0.0912 -0.9615
   20MOL   C142 3980   0.160   5.035   7.006  0.0095 -0.1063 -0.2062
   20MOL   C143 3981   0.142   5.071   6.861  0.4672 -0.2971 -1.1108
   20MOL   C144 3982   0.057   5.171   6.824 -0.0630  0.1814  0.2080
   20MOL   C145 3983   0.042   5.209   6.678 -0.1237  0.0181 -0.1727
   20MOL   H146 3984   0.158   4.927   7.016  0.0217 -0.0270  0.7468
   20MOL   H147 3985   0.083   5.089   7.061  0.2090  1.1546 -1.1313
   20MOL   H148 3986   0.201   5.024   6.783  3.7638 -0.2585  1.2216
   20MOL   H149 3987   7.973   5.218   6.900 -0.5936  0.7418 -0.5523
   20MOL   H150 3988   7.920   5.183   6.642 -0.0480 -1.5233  0.6853
   20MOL   H151 3989   0.110   5.148   6.619 -0.8721 -1.4975  0.4924
   20MOL   C152 3990   0.057   5.353   6.639  0.0674  0.2911  0.2570
   20MOL   C153 3991   0.180   5.422   6.693 -0.4739 -0.0542 -0.0647
   20MOL   C154 3992   0.179   5.544   6.751 -0.1696 -0.5704 -0.8141
   20MOL   C155 3993   0.305   5.611   6.803 -0.9766  0.1591 -0.2917
   20MOL   H156 3994   0.070   5.363   6.531 -3.0866  0.6975 -0.1442
   20MOL   H157 3995   7.945   5.411   6.666  0.4989  1.4970 -0.8468
   20MOL   H158 3996   0.266   5.357   6.688 -0.5826 -0.0559 -2.3359
   20MOL   H159 3997   0.085   5.596   6.762 -0.1704  0.0512 -3.4518
   20MOL   H160 3998   0.391   5.550   6.776 -0.7487  0.9829 -1.4668
   20MOL   H161 3999   0.311   5.620   6.911  1.1876  0.6874 -0.4293
   20MOL   C162 4000   0.328   5.751   6.738  0.3689  0.6194 -0.1289
   20MOL   C163 4001   0.455   5.804   6.788 -0.5912 -0.0675 -0.3238
   20MOL   C164 4002   0.468   5.924   6.851  1.0147  0.0208 -0.4930
   20MOL   C165 4003   0.603   5.982   6.897 -0.6715  0.4850 -0.2785
   20MOL   H166 4004   0.335   5.739   6.630 -1.0737 -1.3739 -0.0183
   20MOL   H167 4005   0.251   5.824   6.759 -1.3941 -1.8716  2.4032
   20MOL   H168 4006   0.538   5.744   6.752 -2.1890 -0.6377 -3.2051
   20MOL   H169 4007   0.380   5.982   6.872  1.2368  0.1745  0.0431
   20MOL   H170 4008   0.631   6.077   6.851  0.6369  0.2794  0.0865
   20MOL   H171 4009   0.680   5.915   6.859 -1.0575  0.3628 -0.8671
   20MOL   C172 4010   0.625   5.979   7.052  0.5663  0.0257  0.8427
   20MOL   C173 4011   0.655   5.841   7.117 -0.0893 -0.0449  0.7728
   20MOL   C174 4012   0.781   5.786   7.128  0.0930 -0.3597  0.6001
   20MOL   C175 4013   0.809   5.645   7.182  0.1563 -1.1150 -1.1244
   20MOL   H176 4014   0.710   6.046   7.067 -0.8373  2.2745 -0.8181
   20MOL   H177 4015   0.537   6.029   7.093  0.3930  0.2082  0.2505
   20MOL   H178 4016   0.561   5.791   7.136  0.1465 -0.7712  0.0867
   20MOL   H179 4017   0.867   5.847   7.105 -2.3379  2.7782 -0.4801
   20MOL   H180 4018   0.895   5.599   7.133  0.9682 -1.9576  1.0352
   20MOL   H181 4019   0.722   5.582   7.169 -1.1400 -0.2079  2.3913
   20MOL   C182 4020   0.845   5.657   7.325 -0.0273  0.2138  0.1457
   20MOL   C183 4021   0.874   5.522   7.387  0.0698 -0.4167 -0.1764
   20MOL   C184 4022   0.800   5.466   7.482 -0.3378 -0.1743 -0.3574
   20MOL   C185 4023   0.819   5.333   7.548 -0.4641 -0.1810  0.1827
   20MOL   H186 4024   0.936   5.715   7.338  0.2545 -0.3390  0.6157
   20MOL   H187 4025   0.771   5.703   7.391 -0.4948  1.4891 -1.2342
   20MOL   H188 4026   0.943   5.462   7.329 -1.3153 -2.1981 -0.0197
   20MOL   H189 4027   0.723   5.519   7.537  0.9198  0.6101  0.6639
   20MOL   H190 4028   0.910   5.293   7.503 -0.4453 -1.2004  1.1129
   20MOL   H191 4029   0.741   5.265   7.514  1.6932 -2.2692 -0.8248
   20MOL   C192 4030   0.821   5.325   7.705  0.0030  0.0676  0.1963
   20MOL   C193 4031   0.862   5.185   7.734 -1.0399 -0.1662  0.0250
   20MOL   C194 4032   0.781   5.100   7.804 -0.6706 -0.3821  0.7146
   20MOL   C195 4033   0.816   4.954   7.823  0.5745 -0.0452  0.0798
   20MOL   H196 4034   0.890   5.399   7.745 -0.7321 -0.3462  2.2980
   20MOL   H197 4035   0.725   5.349   7.750 -0.0932 -2.2027  1.2661
   20MOL   H198 4036   0.957   5.153   7.695 -1.1095  1.7385 -1.8129
   20MOL   H199 4037   0.686   5.130   7.845 -1.2892  0.8639 -1.4870
   20MOL   H200 4038   0.839   4.933   7.928  1.4128 -1.7148 -0.4099
   20MOL   H201 4039   0.913   4.923   7.783  1.0811  1.3088  0.2449
   20MOL   H202 4040   0.741   4.882   7.791  0.1827 -0.2159  1.3654
   21MOL     C1 4041   5.736   6.569   6.794  0.1826  0.6023 -0.1331
   21MOL     C2 4042   5.670   6.509   6.916 -0.1201  0.3970  0.1926
   21MOL     C3 4043   5.719   6.455   7.030  0.4031  0.3906  0.7781
   21MOL     C4 4044   5.629   6.384   7.131 -0.5911  0.1614 -0.4698
   21MOL     H5 4045   5.678   6.653   6.754 -0.8892 -0.6005 -1.1565
   21MOL     H6 4046   5.715   6.484   6.729  0.6105  2.4308 -2.7541
   21MOL     H7 4047   5.565   6.497   6.892 -0.6974  0.6829  2.4530
   21MOL     H8 4048   5.825   6.461   7.052  0.1621  0.3779  1.9710
   21MOL     H9 4049   5.544   6.445   7.161  1.4925  2.2354  1.3875
   21MOL    H10 4050   5.691   6.382   7.221 -0.8477  0.0551 -0.2953
   21MOL    H11 4051   5.843   6.587   6.804  0.5424 -2.0379  1.1744
   21MOL    C12 4052   5.577   6.247   7.098  0.2138 -0.2707 -0.2192
   21MOL    C13 4053   5.487   6.203   7.219 -0.0112  0.1190 -0.4097
   21MOL    C14 4054   5.357   6.176   7.200 -0.1567 -0.5447  0.2770
   21MOL    C15 4055   5.263   6.122   7.308 -0.0076 -0.4712  0.1231
   21MOL    H16 4056   5.520   6.246   7.006 -0.5321 -1.7399  0.2415
   21MOL    H17 4057   5.663   6.180   7.098 -0.3200 -0.9873  1.0239
   21MOL    H18 4058   5.544   6.178   7.307  0.1089 -2.6194 -1.2070
   21MOL    H19 4059   5.320   6.185   7.099 -0.3072  0.7028  0.4393
   21MOL    H20 4060   5.196   6.207   7.319  1.0609  0.4902 -0.7365
   21MOL    H21 4061   5.323   6.123   7.398  0.1600 -2.2892  0.0453
   21MOL    C22 4062   5.202   5.986   7.266 -0.2430  0.0835  0.5175
   21MOL    C23 4063   5.075   5.945   7.345 -0.0275 -0.3999  0.7704
   21MOL    C24 4064   5.049   5.984   7.472  0.5546 -0.8635  0.0041
   21MOL    C25 4065   4.925   5.958   7.552 -0.1524  0.6161  0.7391
   21MOL    H26 4066   5.168   5.997   7.163  2.2357  1.3036 -0.1934
   21MOL    H27 4067   5.279   5.911   7.252  0.0759  0.7799 -1.6506
   21MOL    H28 4068   5.001   5.882   7.298  0.5699 -1.2499  0.9578
   21MOL    H29 4069   5.125   6.047   7.517  0.0282 -0.0971 -0.1681
   21MOL    H30 4070   4.868   5.891   7.489  1.8001  0.0112 -0.4381
   21MOL    H31 4071   4.864   6.049   7.556 -0.4754  0.5546 -2.0084
   21MOL    C32 4072   4.947   5.888   7.691  0.2500 -0.0936 -0.0238
   21MOL    C33 4073   4.823   5.809   7.731  1.0208 -0.4471  0.0370
   21MOL    C34 4074   4.705   5.874   7.749 -0.1310  0.4465  0.2406
   21MOL    C35 4075   4.568   5.812   7.762  0.3991  0.0428  1.2508
   21MOL    H36 4076   5.029   5.819   7.675  0.0531 -0.2681 -0.2869
   21MOL    H37 4077   4.985   5.963   7.760  0.2230  0.9148 -1.0875
   21MOL    H38 4078   4.822   5.704   7.754  1.9185 -0.3472  0.5705
   21MOL    H39 4079   4.696   5.981   7.736 -0.8915  0.3913  0.3104
   21MOL    H40 4080   4.508   5.848   7.846 -0.8557 -0.2584  0.4904
   21MOL    H41 4081   4.581   5.706   7.784 -1.0035 -0.5047 -0.4862
   21MOL    C42 4082   4.482   5.829   7.635  0.3783  0.0710  0.4889
   21MOL    C43 4083   4.342   5.783   7.662 -0.4543  0.1747  0.6938
   21MOL    C44 4084   4.271   5.714   7.571  0.1358  0.3769 -0.1916
   21MOL    C45 4085   4.119   5.690   7.583 -0.0054  0.4112  0.2844
   21MOL    H46 4086   4.471   5.926   7.586  0.8620  0.0597  0.3517
   21MOL    H47 4087   4.517   5.768   7.553  1.0156  2.4579 -1.0758
   21MOL    H48 4088   4.283   5.825   7.742 -0.8179 -1.3554  1.2433
   21MOL    H49 4089   4.311   5.676   7.478 -1.3739 -2.1970  0.1596
   21MOL    H50 4090   4.066   5.758   7.650 -2.3893 -0.9533 -0.1635
   21MOL    H51 4091   4.111   5.589   7.623 -1.2142  1.3455  2.4807
   21MOL    C52 4092   4.051   5.698   7.447  0.2400  0.2687  0.1425
   21MOL    C53 4093   4.074   5.831   7.383 -0.4120  0.2183  0.1444
   21MOL    C54 4094   4.006   5.947   7.411  0.2143  0.2270  0.3145
   21MOL    C55 4095   4.021   6.071   7.324 -0.3114 -0.1998 -0.5164
   21MOL    H56 4096   4.074   5.610   7.387  2.9673  0.9610  0.1125
   21MOL    H57 4097   3.944   5.689   7.467 -0.1279 -1.9110 -2.5329
   21MOL    H58 4098   4.151   5.824   7.308  1.4119 -1.1554  2.0844
   21MOL    H59 4099   3.925   5.949   7.483  0.0021  0.0429  0.0841
   21MOL    H60 4100   3.935   6.080   7.257  0.5825 -1.1369 -1.8215
   21MOL    H61 4101   4.107   6.060   7.257  0.0880  1.7937 -0.3724
   21MOL    C62 4102   4.048   6.198   7.403  0.0695  0.8838  0.6874
   21MOL    C63 4103   4.177   6.188   7.473  0.0986  0.3348  0.0345
   21MOL    C64 4104   4.273   6.275   7.447 -0.0420  0.1438 -0.1437
   21MOL    C65 4105   4.412   6.267   7.504 -0.4078 -0.8922 -0.3556
   21MOL    H66 4106   4.057   6.282   7.335  1.2487 -0.0514 -0.3333
   21MOL    H67 4107   3.963   6.233   7.462  0.4056  0.8940  1.1634
   21MOL    H68 4108   4.179   6.112   7.550  1.3651  0.1018 -0.2121
   21MOL    H69 4109   4.265   6.361   7.382 -2.6081  0.7124  0.8815
   21MOL    H70 4110   4.478   6.351   7.482  0.3303 -0.7157  2.3633
   21MOL    H71 4111   4.469   6.183   7.464 -0.9787 -1.2669 -0.3943
   21MOL    C72 4112   4.422   6.243   7.661 -0.1089 -0.2633 -0.1516
   21MOL    C73 4113   4.565   6.248   7.702  0.2151 -0.3066 -0.4577
   21MOL    C74 4114   4.622   6.334   7.787  0.1766 -0.8832 -0.1712
   21MOL    C75 4115   4.765   6.323   7.828 -1.0053 -0.3748  0.0189
   21MOL    H76 4116   4.364   6.315   7.719  2.0617  1.8426 -0.5446
   21MOL    H77 4117   4.391   6.143   7.693  0.9410 -0.3755  0.5255
   21MOL    H78 4118   4.630   6.175   7.657  1.0232 -0.5188  1.0399
   21MOL    H79 4119   4.565   6.409   7.841  2.6494  0.6945  0.3393
   21MOL    H80 4120   4.802   6.227   7.793 -0.8212  0.9554 -3.6049
   21MOL    H81 4121   4.771   6.330   7.937 -0.6673  0.0828 -0.0287
   21MOL    C82 4122   4.854   6.419   7.752  0.6336  0.2375 -0.8557
   21MOL    C83 4123   4.995   6.405   7.796 -0.2040 -0.4322  0.7224
   21MOL    C84 4124   5.053   6.499   7.872  0.2246  0.0078 -0.1003
   21MOL    C85 4125   5.195   6.498   7.918  0.1048  0.3623  0.1517
   21MOL    H86 4126   4.844   6.403   7.644 -0.7112 -0.7983 -0.5888
   21MOL    H87 4127   4.812   6.519   7.763  1.9974  0.9172 -1.6093
   21MOL    H88 4128   5.050   6.321   7.756  0.4009  1.5358 -2.7515
   21MOL    H89 4129   4.989   6.581   7.901  0.9132  0.0108  1.4891
   21MOL    H90 4130   5.199   6.483   0.049  1.2563  1.6489  0.2982
   21MOL    H91 4131   5.240   6.595   7.900 -0.0147  0.9720  2.8613
   21MOL    C92 4132   5.288   6.406   7.844  0.3532  0.0180  0.3441
   21MOL    C93 4133   5.314   6.441   7.700 -0.5396 -0.1894  0.9952
   21MOL    C94 4134   5.439   6.454   7.645 -0.2704  0.1128  0.3268
   21MOL    C95 4135   5.466   6.456   7.498 -0.1394 -0.0029 -0.5176
   21MOL    H96 4136   5.387   6.398   7.887  0.2577  0.3130  0.6287
   21MOL    H97 4137   5.246   6.306   7.855 -0.6373  0.6579  2.6878
   21MOL    H98 4138   5.227   6.444   7.636 -0.5971 -1.3066  1.0113
   21MOL    H99 4139   5.524   6.444   7.711 -2.1655  4.5706  3.6693
   21MOL   H100 4140   5.370   6.429   7.454 -1.3735  1.5958  1.1048
   21MOL   H101 4141   5.539   6.379   7.474  1.5648  1.0576  1.1341
   21MOL   C102 4142   5.511   6.603   7.471  0.3723  0.1313  0.0635
   21MOL   C103 4143   5.644   6.645   7.534  0.4251  0.4196  0.0165
   21MOL   C104 4144   5.754   6.673   7.461  0.0626  0.7980  0.4387
   21MOL   C105 4145   5.880   6.710   7.522  0.6798 -0.3294  0.5878
   21MOL   H106 4146   5.513   6.627   7.364 -0.9109 -0.2271 -0.0553
   21MOL   H107 4147   5.440   6.678   7.507 -0.7121 -0.8431 -0.0100
   21MOL   H108 4148   5.641   6.651   7.642  1.2830  1.0338  0.0080
   21MOL   H109 4149   5.757   6.659   7.354  0.7331  1.3854  0.3810
   21MOL   H110 4150   5.942   6.622   7.538 -0.0390 -0.4779  2.7620
   21MOL   H111 4151   5.872   6.745   7.625  1.0434  3.4940 -0.6096
   21MOL   C112 4152   5.958   6.811   7.442 -1.3317 -0.1438  0.0127
   21MOL   C113 4153   6.087   6.851   7.507  0.7511  0.5157  0.3759
   21MOL   C114 4154   6.137   6.969   7.532  0.0395  0.3792 -0.0996
   21MOL   C115 4155   6.268   7.004   7.594  0.3135  0.1922  0.7472
   21MOL   H116 4156   5.983   6.773   7.343  0.3088  0.3194  0.2381
   21MOL   H117 4157   5.892   6.895   7.420 -0.3029  1.4192  2.6466
   21MOL   H118 4158   6.149   6.765   7.527 -0.3247 -0.9450 -2.3574
   21MOL   H119 4159   6.077   7.055   7.507  0.5438  0.4039 -1.2331
   21MOL   H120 4160   6.327   6.912   7.593  0.2384  0.1187 -2.7167
   21MOL   H121 4161   6.247   7.047   7.691 -0.7685  0.9414  0.1946
   21MOL   C122 4162   6.333   7.109   7.505  0.6444  0.1827  0.6623
   21MOL   C123 4163   6.471   7.139   7.547  0.2373  1.0451 -0.0628
   21MOL   C124 4164   6.523   7.261   7.571 -0.3538  0.4619 -0.0794
   21MOL   C125 4165   6.666   7.295   7.617 -0.4617 -0.2033 -0.2907
   21MOL   H126 4166   6.338   7.078   7.401  1.6506  0.2270  0.6963
   21MOL   H127 4167   6.276   7.202   7.512 -0.6654 -0.1200 -4.2837
   21MOL   H128 4168   6.534   7.053   7.565  0.0938  1.4511  2.5935
   21MOL   H129 4169   6.463   7.350   7.558 -1.5536 -0.2457  0.4961
   21MOL   H130 4170   6.723   7.203   7.609  0.7832  0.5947 -0.8123
   21MOL   H131 4171   6.651   7.324   7.721  1.7071  1.0249 -0.2689
   21MOL   C132 4172   6.726   7.404   7.531 -0.0005 -0.2701 -0.2818
   21MOL   C133 4173   6.673   7.544   7.564  0.2076  0.5070 -0.1989
   21MOL   C134 4174   6.758   7.633   7.611  0.7078  0.0366  0.3917
   21MOL   C135 4175   6.714   7.778   7.627 -1.0425  0.2655  0.8288
   21MOL   H136 4176   6.832   7.413   7.552 -0.1930  1.5712 -0.0284
   21MOL   H137 4177   6.707   7.382   7.426 -1.0085 -0.3937 -0.0781
   21MOL   H138 4178   6.575   7.580   7.535  0.3227  0.9617 -0.0390
   21MOL   H139 4179   6.859   7.611   7.644  0.6679  0.6167  0.9076
   21MOL   H140 4180   6.690   7.798   7.732 -2.4659  1.7457  0.2396
   21MOL   H141 4181   6.618   7.795   7.579 -0.4877  0.1887 -0.3119
   21MOL   C142 4182   6.819   7.882   7.588  0.3783  0.5246 -0.6453
   21MOL   C143 4183   6.762   0.046   7.601 -0.4154  0.3301  0.5591
   21MOL   C144 4184   6.763   0.137   7.498 -0.7224  0.4651 -0.5071
   21MOL   C145 4185   6.704   0.279   7.515  0.5567  0.0291  0.1026
   21MOL   H146 4186   6.907   7.873   7.652  0.7799 -2.3297 -1.5266
   21MOL   H147 4187   6.855   7.872   7.486  3.6163  1.3582  0.3442
   21MOL   H148 4188   6.727   0.083   7.697  1.0770  0.2970  1.1334
   21MOL   H149 4189   6.803   0.114   7.400  1.4166  0.0743  0.4394
   21MOL   H150 4190   6.714   0.302   7.622 -1.2493  0.8816  0.1091
   21MOL   H151 4191   6.596   0.290   7.506  0.7643  1.1768 -1.1940
   21MOL   C152 4192   6.786   0.386   7.439 -0.7252  0.0399 -0.2347
   21MOL   C153 4193   6.756   0.526   7.492 -0.9521  0.2245 -0.3480
   21MOL   C154 4194   6.706   0.623   7.408  0.0457  0.9928  0.0899
   21MOL   C155 4195   6.682   0.767   7.442 -0.6252 -0.2084 -0.3378
   21MOL   H156 4196   6.890   0.356   7.446 -0.7995 -0.0790  0.3987
   21MOL   H157 4197   6.754   0.392   7.335 -1.0154  0.0841 -0.1445
   21MOL   H158 4198   6.794   0.551   7.590 -1.7861 -1.4438  0.4257
   21MOL   H159 4199   6.681   0.594   7.307  0.1654  1.7029 -0.1441
   21MOL   H160 4200   6.723   0.794   7.539  0.7490 -3.0179 -0.1032
   21MOL   H161 4201   6.575   0.783   7.451 -0.7849 -0.6987 -1.3014
   21MOL   C162 4202   6.707   0.872   7.333 -0.0692  0.2102 -0.1815
   21MOL   C163 4203   6.850   0.919   7.332 -0.3933 -0.3543  0.8120
   21MOL   C164 4204   6.916   0.924   7.222  0.5402  0.0570  0.2489
   21MOL   C165 4205   7.054   0.977   7.202 -0.1017 -0.3636  0.2458
   21MOL   H166 4206   6.688   0.838   7.231  0.1492  2.9712 -1.1853
   21MOL   H167 4207   6.640   0.957   7.346  0.3154  0.3546  0.9549
   21MOL   H168 4208   6.896   0.956   7.422  2.2331 -0.0357 -0.6156
   21MOL   H169 4209   6.871   0.892   7.129  0.0956  1.2726  0.0439
   21MOL   H170 4210   7.061   1.054   7.125  1.7734 -0.0671  0.6949
   21MOL   H171 4211   7.115   0.901   7.153 -0.0921  0.1415 -0.5379
   21MOL   C172 4212   7.125   1.038   7.319  0.5642 -0.4715  0.4015
   21MOL   C173 4213   7.269   1.093   7.296  0.4212 -0.9916 -0.3504
   21MOL   C174 4214   7.363   1.100   7.395  0.1532 -0.1033 -0.9501
   21MOL   C175 4215   7.505   1.141   7.385 -0.0889  0.9496 -0.2591
   21MOL   H176 4216   7.068   1.121   7.361  1.0319 -0.7292  1.5732
   21MOL   H177 4217   7.133   0.968   7.402 -3.2159 -1.5593 -0.0583
   21MOL   H178 4218   7.291   1.124   7.194 -1.3028  0.7251 -0.2285
   21MOL   H179 4219   7.323   1.066   7.490 -1.6673  1.4741 -1.1267
   21MOL   H180 4220   7.517   1.163   7.279  2.1076 -0.4217 -0.3381
   21MOL   H181 4221   7.584   1.069   7.409  0.1465  1.3170  0.0854
   21MOL   C182 4222   7.524   1.271   7.467  0.2122  0.2255 -0.8237
   21MOL   C183 4223   7.671   1.328   7.467 -0.2721  0.2152 -0.2014
   21MOL   C184 4224   7.741   1.380   7.571  0.3079 -0.3080 -0.0674
   21MOL   C185 4225   7.889   1.421   7.560  0.1126  0.4977  0.5781
   21MOL   H186 4226   7.449   1.345   7.440 -3.1805 -3.1300 -1.0066
   21MOL   H187 4227   7.505   1.251   7.572  1.7185 -0.9920 -0.7633
   21MOL   H188 4228   7.723   1.317   7.373 -1.0954  0.2177 -0.6667
   21MOL   H189 4229   7.696   1.394   7.668 -2.9044  0.0496 -1.5429
   21MOL   H190 4230   7.900   1.504   7.629  0.6141  1.5286 -0.7308
   21MOL   H191 4231   7.910   1.449   7.457 -2.3387 -2.2735 -0.7704
   21MOL   C192 4232   0.004   1.314   7.591  0.7331 -0.3747 -0.5531
   21MOL   C193 4233   0.141   1.339   7.532 -0.0267  0.4755 -0.6720
   21MOL   C194 4234   0.246   1.327   7.612 -0.0469  0.0805  0.2829
   21MOL   C195 4235   0.391   1.345   7.577  0.6048 -0.8349  1.3200
   21MOL   H196 4236   7.977   1.301   7.699 -1.8195 -0.7618 -0.6724
   21MOL   H197 4237   7.958   1.221   7.539 -1.3166 -1.1369  1.6428
   21MOL   H198 4238   0.155   1.375   7.431 -2.2458  0.8824 -0.8499
   21MOL   H199 4239   0.237   1.288   7.713 -1.6151 -0.7680 -0.1833
   21MOL   H200 4240   0.397   1.346   7.468  1.1126  0.2732  1.3579
   21MOL   H201 4241   0.449   1.259   7.612 -0.9061 -1.5995  1.9852
   21MOL   H202 4242   0.443   1.431   7.618  0.7951  0.2286 -1.0792
   22MOL     C1 4243   2.912   5.087   7.400 -0.6291 -0.1153  0.2856
   22MOL     C2 4244   2.844   5.028   7.519 -0.0641  0.2229 -0.4500
   22MOL     C3 4245   2.902   4.925   7.587  0.2023 -0.3027 -0.1843
   22MOL     C4 4246   2.845   4.852   7.707  0.9949 -0.5487 -0.5153
   22MOL     H5 4247   2.964   5.176   7.434 -1.2739  0.4015 -0.0721
   22MOL     H6 4248   2.846   5.136   7.329  0.5967  0.6344 -0.3562
   22MOL     H7 4249   2.750   5.069   7.553 -0.4039 -1.4532  0.6492
   22MOL     H8 4250   2.996   4.891   7.548  0.1672  0.5188 -0.9998
   22MOL     H9 4251   2.738   4.842   7.690  0.5460  1.0960  1.2122
   22MOL    H10 4252   2.875   4.903   7.798 -0.3782 -0.4507 -0.1044
   22MOL    H11 4253   2.972   5.015   7.342 -1.4759 -1.0973  0.6157
   22MOL    C12 4254   2.912   4.718   7.722  0.2847 -0.2032  0.2776
   22MOL    C13 4255   2.889   4.664   7.859  0.6170  0.3437  0.4201
   22MOL    C14 4256   2.821   4.547   7.893 -0.0512 -0.0259 -0.1773
   22MOL    C15 4257   2.802   4.496   0.062 -0.4591 -0.0294 -0.6427
   22MOL    H16 4258   2.879   4.644   7.648 -0.2305  0.2909  0.0141
   22MOL    H17 4259   3.020   4.733   7.710  0.1496  1.3169  0.8950
   22MOL    H18 4260   2.919   4.735   7.934 -1.9034  0.6411  1.1877
   22MOL    H19 4261   2.787   4.480   7.815  0.0787  1.2452 -1.3381
   22MOL    H20 4262   2.840   4.578   0.123  2.7593  0.8644 -3.6740
   22MOL    H21 4263   2.845   4.399   0.084 -0.5960  0.1933  0.6241
   22MOL    C22 4264   2.655   4.462   0.099  0.4542  0.0653 -0.4152
   22MOL    C23 4265   2.645   4.430   0.241 -0.2934 -0.4264  0.7542
   22MOL    C24 4266   2.561   4.333   0.287 -0.6944 -0.2995 -0.1683
   22MOL    C25 4267   2.540   4.303   0.437  0.1983 -0.9903 -0.4402
   22MOL    H26 4268   2.611   4.561   0.085 -1.8060 -1.0201 -1.1434
   22MOL    H27 4269   2.596   4.397   0.035  0.7513  0.3001 -0.9307
   22MOL    H28 4270   2.706   4.482   0.314  0.5626 -0.4739  0.0741
   22MOL    H29 4271   2.498   4.281   0.217 -2.4624  0.6662  0.6700
   22MOL    H30 4272   2.434   4.316   0.455  0.5399 -0.0892  1.0015
   22MOL    H31 4273   2.600   4.376   0.492  1.6244 -1.6361 -1.0889
   22MOL    C32 4274   2.598   4.182   0.493 -0.2775  0.3669  0.2881
   22MOL    C33 4275   2.555   4.064   0.419  0.2944 -0.6214  0.4448
   22MOL    C34 4276   2.484   3.956   0.477 -0.2887  0.1592  0.1271
   22MOL    C35 4277   2.399   3.855   0.403 -0.6381  0.1184  0.4548
   22MOL    H36 4278   2.707   4.188   0.495 -0.1730 -0.2650 -1.8503
   22MOL    H37 4279   2.572   4.165   0.597  1.2987 -0.6266  0.5458
   22MOL    H38 4280   2.568   4.061   0.312  0.9272 -1.9504  0.5456
   22MOL    H39 4281   2.474   3.958   0.584 -2.9919  0.2694 -0.1016
   22MOL    H40 4282   2.294   3.876   0.420  0.0941  1.0022  4.2225
   22MOL    H41 4283   2.413   3.756   0.445 -2.0892  0.1041  0.9408
   22MOL    C42 4284   2.426   3.832   0.253 -0.3043 -0.3220  0.1721
   22MOL    C43 4285   2.408   3.684   0.221 -0.2243 -0.2106  1.6381
   22MOL    C44 4286   2.507   3.607   0.180  0.3340  0.7814  0.3416
   22MOL    C45 4287   2.488   3.465   0.137  0.0096  0.0378 -0.9884
   22MOL    H46 4288   2.378   3.916   0.203 -1.1949 -1.2433 -0.5347
   22MOL    H47 4289   2.529   3.860   0.231 -1.0068  1.7993 -0.4821
   22MOL    H48 4290   2.309   3.647   0.201  0.3207 -0.5392 -0.5186
   22MOL    H49 4291   2.607   3.645   0.196  0.2964  0.3538  1.7099
   22MOL    H50 4292   2.551   3.458   0.048 -1.5238  1.5087 -2.2247
   22MOL    H51 4293   2.384   3.448   0.109  0.2735 -1.4523 -1.1097
   22MOL    C52 4294   2.534   3.366   0.243  0.5472  0.3567 -0.0423
   22MOL    C53 4295   2.685   3.382   0.264  0.1401 -0.2737 -0.0782
   22MOL    C54 4296   2.776   3.289   0.242  0.2287  0.0646  1.1728
   22MOL    C55 4297   2.925   3.295   0.265  0.0732 -0.0434 -0.0594
   22MOL    H56 4298   2.495   3.398   0.339  0.4353  0.3135 -0.0738
   22MOL    H57 4299   2.511   3.261   0.224  1.1208  0.5986 -2.1915
   22MOL    H58 4300   2.710   3.480   0.301  0.1075 -0.1542 -0.3699
   22MOL    H59 4301   2.729   3.200   0.205  1.9179 -1.3912  2.4241
   22MOL    H60 4302   2.944   3.232   0.352 -2.1560  0.3800  0.7652
   22MOL    H61 4303   2.946   3.400   0.283 -0.6576  0.4387 -1.8289
   22MOL    C62 4304   3.015   3.233   0.155  0.8104 -0.0796 -0.3061
   22MOL    C63 4305   2.956   3.099   0.096 -0.7269  0.0845  0.0283
   22MOL    C64 4306   2.896   3.072   7.955 -1.2835  0.1002  0.0836
   22MOL    C65 4307   2.854   2.934   7.910  0.0406  0.2350 -0.0213
   22MOL    H66 4308   3.041   3.311   0.083 -3.1790 -0.0231 -1.8464
   22MOL    H67 4309   3.113   3.199   0.188  0.7425 -0.0909 -0.1181
   22MOL    H68 4310   2.974   3.016   0.163 -1.0106 -0.0539 -0.0665
   22MOL    H69 4311   2.890   3.157   7.889  0.6323  1.3211  1.4200
   22MOL    H70 4312   2.842   2.874   0.024  2.8444 -1.1994 -0.5228
   22MOL    H71 4313   2.937   2.887   7.857 -1.2620 -0.3967 -1.5576
   22MOL    C72 4314   2.715   2.923   7.847 -0.3273  0.3464 -0.7412
   22MOL    C73 4315   2.716   3.026   7.730 -0.6827 -0.3422 -0.1989
   22MOL    C74 4316   2.623   3.120   7.728 -0.3374 -0.3615  0.2884
   22MOL    C75 4317   2.618   3.239   7.630 -0.0212  0.6188  0.2272
   22MOL    H76 4318   2.692   2.820   7.822 -3.2739  0.4939  1.1935
   22MOL    H77 4319   2.638   2.964   7.911  0.4874  0.4074  0.2155
   22MOL    H78 4320   2.800   3.015   7.663  0.8118  0.6973  1.4624
   22MOL    H79 4321   2.543   3.121   7.800 -1.6635 -1.3906 -1.1454
   22MOL    H80 4322   2.549   3.230   7.545 -1.6800 -2.6194  1.8269
   22MOL    H81 4323   2.715   3.252   7.582  0.9818 -0.8880  1.7807
   22MOL    C82 4324   2.591   3.370   7.702 -0.3597 -0.1066 -0.9587
   22MOL    C83 4325   2.713   3.424   7.781  0.4869  0.1890  0.8386
   22MOL    C84 4326   2.799   3.518   7.741  0.4029  0.8467  0.2056
   22MOL    C85 4327   2.925   3.555   7.820 -0.4114  0.4979 -0.5680
   22MOL    H86 4328   2.547   3.439   7.630 -1.1029  0.7667  0.3066
   22MOL    H87 4329   2.511   3.367   7.776 -0.0557  0.2718 -0.6137
   22MOL    H88 4330   2.739   3.377   7.874  0.5371 -0.9110  0.2703
   22MOL    H89 4331   2.797   3.563   7.643 -3.0689  2.7693  1.0494
   22MOL    H90 4332   2.935   3.506   7.916  2.2667 -1.1721 -1.6433
   22MOL    H91 4333   2.939   3.663   7.829  0.5374  0.3545 -0.3015
   22MOL    C92 4334   3.047   3.511   7.738  0.2896 -0.0737  0.1530
   22MOL    C93 4335   3.069   3.363   7.709 -0.1090 -0.6873  0.1384
   22MOL    C94 4336   3.160   3.283   7.766 -0.1160  0.2583 -0.6250
   22MOL    C95 4337   3.182   3.143   7.764 -0.3901 -0.1360  0.0934
   22MOL    H96 4338   3.029   3.557   7.640 -0.7777  2.4596  1.5029
   22MOL    H97 4339   3.130   3.563   7.785  0.1697 -0.1437  0.4441
   22MOL    H98 4340   2.998   3.315   7.642 -0.8286  1.2569 -0.5178
   22MOL    H99 4341   3.238   3.333   7.822  1.2650 -0.2456 -2.0392
   22MOL   H100 4342   3.092   3.097   7.724 -0.1950  0.5883 -1.1960
   22MOL   H101 4343   3.193   3.114   7.869 -0.8582  0.0876  0.2054
   22MOL   C102 4344   3.302   3.098   7.671  0.2951  0.1192 -0.3874
   22MOL   C103 4345   3.306   2.945   7.653 -0.2790  0.3540 -0.0551
   22MOL   C104 4346   3.419   2.884   7.629 -0.8517 -0.9018 -0.1081
   22MOL   C105 4347   3.423   2.728   7.594 -0.7417 -0.0624 -0.5148
   22MOL   H106 4348   3.274   3.141   7.575 -0.9085 -1.2814 -0.6960
   22MOL   H107 4349   3.400   3.121   7.711 -0.1641 -0.4375  1.1054
   22MOL   H108 4350   3.209   2.899   7.644 -1.2111  2.1974  0.1356
   22MOL   H109 4351   3.515   2.933   7.631 -1.0024 -0.5785 -0.7870
   22MOL   H110 4352   3.467   2.719   7.495  1.4642  2.1464  0.2193
   22MOL   H111 4353   3.318   2.698   7.585 -1.4047  1.7119  0.9437
   22MOL   C112 4354   3.497   2.642   7.702 -0.3412 -0.5069  0.0099
   22MOL   C113 4355   3.446   2.648   7.849 -0.7175 -0.6613  0.3209
   22MOL   C114 4356   3.325   2.686   7.883  0.2282 -0.3100  0.4688
   22MOL   C115 4357   3.268   2.676   0.047 -0.1935  0.4089  0.8189
   22MOL   H116 4358   3.502   2.536   7.675  0.2150 -0.2031 -1.0624
   22MOL   H117 4359   3.600   2.676   7.710 -0.3167 -0.4467 -0.5664
   22MOL   H118 4360   3.504   2.595   7.923 -0.3178 -1.0862 -0.3008
   22MOL   H119 4361   3.262   2.736   7.810  2.3918 -0.4668 -1.5856
   22MOL   H120 4362   3.342   2.619   0.103 -0.3659  0.2415  0.8779
   22MOL   H121 4363   3.172   2.624   0.052 -0.8613  1.2612 -2.0650
   22MOL   C122 4364   3.247   2.816   0.108 -0.4520  0.2590  0.2654
   22MOL   C123 4365   3.193   2.805   0.250  0.2625 -0.0862  0.0051
   22MOL   C124 4366   3.243   2.885   0.342  0.3005  0.2545 -0.2367
   22MOL   C125 4367   3.222   2.886   0.493  0.3460 -0.0301 -0.0668
   22MOL   H126 4368   3.336   2.878   0.103 -0.2865 -0.0827 -1.5897
   22MOL   H127 4369   3.169   2.864   0.048 -0.3297 -2.3228 -2.1022
   22MOL   H128 4370   3.125   2.727   0.281 -2.2843  1.5130 -1.2975
   22MOL   H129 4371   3.304   2.966   0.303  0.0883  0.7344  0.4101
   22MOL   H130 4372   3.318   2.885   0.546 -0.4095  2.3421  1.4418
   22MOL   H131 4373   3.175   2.795   0.529 -1.8012  0.9244 -0.3472
   22MOL   C132 4374   3.144   3.014   0.538  1.1090  0.3124  0.4555
   22MOL   C133 4375   3.153   3.018   0.691  0.1420  0.4154  0.3141
   22MOL   C134 4376   3.201   3.122   0.757  0.5533  0.0649 -0.1367
   22MOL   C135 4377   3.217   3.129   0.907  0.9548 -0.9286 -0.0362
   22MOL   H136 4378   3.191   3.101   0.492  0.2965 -0.8790 -2.8007
   22MOL   H137 4379   3.041   3.016   0.503  0.6436  0.7375  1.8208
   22MOL   H138 4380   3.119   2.933   0.749 -1.4645  0.2807 -0.7912
   22MOL   H139 4381   3.231   3.213   0.706  0.0119 -1.0556 -2.5264
   22MOL   H140 4382   3.187   3.034   0.952 -0.3754 -0.4049  0.1830
   22MOL   H141 4383   3.143   3.204   0.935 -0.3930 -2.1827 -0.2212
   22MOL   C142 4384   3.362   3.186   0.957  0.1081 -0.1210 -0.6683
   22MOL   C143 4385   3.386   3.217   1.101 -0.2179  0.1945  0.6312
   22MOL   C144 4386   3.357   3.330   1.169 -0.2254  0.3323 -0.7990
   22MOL   C145 4387   3.388   3.352   1.316  0.1042  0.7067  0.1603
   22MOL   H146 4388   3.432   3.106   0.932 -0.2977 -0.3071 -1.2078
   22MOL   H147 4389   3.388   3.272   0.896 -2.1846  0.4312 -0.9042
   22MOL   H148 4390   3.428   3.139   1.163  0.6552  0.3362  0.2245
   22MOL   H149 4391   3.322   3.413   1.110  0.5127  0.1534 -1.4816
   22MOL   H150 4392   3.476   3.415   1.327  0.5051  0.0223  0.9366
   22MOL   H151 4393   3.423   3.262   1.367  0.9683  1.0021  0.1012
   22MOL   C152 4394   3.274   3.417   1.404  0.1756  0.0851 -0.7137
   22MOL   C153 4395   3.191   3.310   1.480  0.8813 -0.1674  0.0085
   22MOL   C154 4396   3.156   3.188   1.446  0.4105  0.1292 -0.6784
   22MOL   C155 4397   3.073   3.093   1.535  0.0386 -0.2653  0.1655
   22MOL   H156 4398   3.325   3.473   1.482  0.0771  0.1610 -0.7049
   22MOL   H157 4399   3.202   3.480   1.352 -0.2977  0.5803  0.5324
   22MOL   H158 4400   3.145   3.359   1.565  0.1596  1.4383 -1.2662
   22MOL   H159 4401   3.196   3.145   1.355  0.5881  1.1076 -1.0710
   22MOL   H160 4402   3.022   3.152   1.612  1.5321  0.7966  0.3627
   22MOL   H161 4403   3.150   3.030   1.580  1.3969  2.0002  1.0846
   22MOL   C162 4404   2.977   3.009   1.455 -0.7374  0.1748  0.4877
   22MOL   C163 4405   3.036   2.919   1.353 -0.2910 -0.0210  0.3368
   22MOL   C164 4406   2.980   2.890   1.232 -0.1640 -0.7516  0.0009
   22MOL   C165 4407   3.040   2.804   1.130  0.2779 -1.0698 -0.0611
   22MOL   H166 4408   2.917   2.950   1.524 -0.7468  0.9770  1.1760
   22MOL   H167 4409   2.904   3.075   1.409 -0.7349 -0.1258  0.0458
   22MOL   H168 4410   3.131   2.872   1.375  0.4825  0.4850 -1.8511
   22MOL   H169 4411   2.888   2.935   1.200  0.7695  0.9698 -0.3301
   22MOL   H170 4412   3.013   2.705   1.167  1.2581 -1.7813 -1.1804
   22MOL   H171 4413   3.149   2.804   1.123  0.2493  0.9190 -0.8346
   22MOL   C172 4414   2.968   2.813   1.001  0.2602 -0.1245  0.4347
   22MOL   C173 4415   2.831   2.746   0.994 -0.0235 -0.3170  0.3901
   22MOL   C174 4416   2.718   2.813   0.953 -0.6475 -0.5482 -0.0594
   22MOL   C175 4417   2.581   2.753   0.945  0.3182 -1.1008  0.3296
   22MOL   H176 4418   2.958   2.915   0.962 -0.9676 -0.3048  0.2707
   22MOL   H177 4419   3.035   2.760   0.934  2.0911  0.2043  1.9608
   22MOL   H178 4420   2.825   2.640   1.009 -1.1079 -0.0458  2.0345
   22MOL   H179 4421   2.729   2.911   0.909  1.9122 -1.2921 -1.1598
   22MOL   H180 4422   2.516   2.811   1.011 -1.4272 -1.2275 -1.2368
   22MOL   H181 4423   2.585   2.649   0.976 -1.3377 -1.2518  0.1026
   22MOL   C182 4424   2.514   2.761   0.806 -0.0238 -0.0782 -0.4770
   22MOL   C183 4425   2.362   2.759   0.822 -0.2830 -0.7175  0.3180
   22MOL   C184 4426   2.285   2.855   0.778 -0.2711  0.8730  0.2959
   22MOL   C185 4427   2.142   2.881   0.817  0.1912 -0.7367 -0.4455
   22MOL   H186 4428   2.549   2.848   0.751  1.3445 -1.3280 -1.6329
   22MOL   H187 4429   2.548   2.682   0.739  1.5476  1.7981 -1.9586
   22MOL   H188 4430   2.322   2.681   0.885 -0.2214  0.0952  1.3576
   22MOL   H189 4431   2.333   2.932   0.719  0.5369  1.3922  1.6227
   22MOL   H190 4432   2.136   2.973   0.874  1.0560 -0.4583 -0.7931
   22MOL   H191 4433   2.106   2.793   0.870 -0.3161 -1.8912 -2.6422
   22MOL   C192 4434   2.061   2.896   0.680 -0.2144  0.1483 -0.5129
   22MOL   C193 4435   1.909   2.886   0.708 -1.1281 -0.8936 -0.8346
   22MOL   C194 4436   1.823   2.853   0.609  0.3482 -0.4407 -0.2336
   22MOL   C195 4437   1.671   2.850   0.606  0.4684 -0.5394  0.3858
   22MOL   H196 4438   2.068   2.988   0.623 -0.3423  0.5394  0.0982
   22MOL   H197 4439   2.086   2.808   0.620 -2.0806  0.7545 -2.2290
   22MOL   H198 4440   1.875   2.921   0.804 -0.8808 -2.0996 -0.3061
   22MOL   H199 4441   1.862   2.835   0.510  2.6798  1.7394  0.2289
   22MOL   H200 4442   1.634   2.749   0.585 -1.7276  0.3375 -0.1168
   22MOL   H201 4443   1.633   2.901   0.518 -0.6675 -2.4383 -0.2690
   22MOL   H202 4444   1.623   2.889   0.695 -0.1623  1.8602 -0.9519
   23MOL     C1 4445   0.940   4.325   4.256  0.8805  0.1287 -0.0752
   23MOL     C2 4446   0.995   4.436   4.168  0.0044  0.3629 -0.0259
   23MOL     C3 4447   0.984   4.567   4.196  1.2515 -0.0726 -1.1883
   23MOL     C4 4448   1.029   4.684   4.111 -0.1742 -0.5552  0.3818
   23MOL     H5 4449   0.877   4.368   4.334  1.3832  0.8564 -0.0600
   23MOL     H6 4450   1.018   4.263   4.301  1.5412 -1.1536 -2.8986
   23MOL     H7 4451   1.048   4.399   4.081 -1.9261  0.4587 -1.2954
   23MOL     H8 4452   0.938   4.598   4.289  1.4068 -0.2731 -1.0459
   23MOL     H9 4453   0.940   4.747   4.106 -1.1082 -1.9210 -0.4093
   23MOL    H10 4454   1.053   4.651   4.010  0.7512  0.0646  0.3897
   23MOL    H11 4455   0.878   4.257   4.198  2.2444 -2.8024  1.7836
   23MOL    C12 4456   1.151   4.770   4.168 -0.5958 -0.2420 -0.1942
   23MOL    C13 4457   1.290   4.706   4.143 -0.1683  0.2481 -0.4074
   23MOL    C14 4458   1.399   4.754   4.082  0.1191  0.4692  0.3543
   23MOL    C15 4459   1.539   4.690   4.091 -0.2808 -0.3054 -0.4880
   23MOL    H16 4460   1.151   4.864   4.113  0.9921  1.8068  3.1364
   23MOL    H17 4461   1.135   4.791   4.274  2.5463  0.8509  0.1306
   23MOL    H18 4462   1.306   4.619   4.203 -0.1852 -0.4303 -1.3752
   23MOL    H19 4463   1.386   4.844   4.024  1.9494  0.9734  0.7189
   23MOL    H20 4464   1.617   4.764   4.109  1.3616 -1.8092 -1.3073
   23MOL    H21 4465   1.560   4.661   3.988 -0.0541  0.2947 -0.6081
   23MOL    C22 4466   1.555   4.564   4.179 -0.0157  0.3146  0.7793
   23MOL    C23 4467   1.695   4.504   4.180 -0.4212  0.8574  0.9848
   23MOL    C24 4468   1.799   4.543   4.105 -0.3025 -0.4864 -0.4943
   23MOL    C25 4469   1.932   4.471   4.101 -0.4883 -0.1587  0.3315
   23MOL    H26 4470   1.527   4.579   4.283 -0.1157  2.2653  0.4874
   23MOL    H27 4471   1.496   4.480   4.143  2.0674 -1.2279  0.8576
   23MOL    H28 4472   1.723   4.425   4.248 -0.0715  0.4744  0.3998
   23MOL    H29 4473   1.793   4.625   4.035  1.6695 -0.1975 -0.3622
   23MOL    H30 4474   1.937   4.432   3.999  2.5584 -2.2160  1.1729
   23MOL    H31 4475   1.930   4.388   4.172  1.3598 -1.0779 -0.6418
   23MOL    C32 4476   2.049   4.563   4.136  0.1211  0.1289 -0.1852
   23MOL    C33 4477   2.176   4.478   4.121 -0.7205 -0.2705  0.8873
   23MOL    C34 4478   2.283   4.502   4.045  0.0906  1.1189  0.1265
   23MOL    C35 4479   2.394   4.402   4.008  0.6239  0.0461 -0.3603
   23MOL    H36 4480   2.058   4.649   4.069 -0.2607  1.3748  1.3433
   23MOL    H37 4481   2.043   4.593   4.241 -2.4711 -2.6014  0.5154
   23MOL    H38 4482   2.176   4.385   4.177 -2.5885 -0.6961  0.2069
   23MOL    H39 4483   2.289   4.591   3.984  3.3891 -0.1211 -1.5238
   23MOL    H40 4484   2.346   4.328   3.944 -1.8280  0.4689  0.9159
   23MOL    H41 4485   2.429   4.352   4.098  0.3684 -0.5381 -0.5783
   23MOL    C42 4486   2.497   4.470   3.921 -0.0972 -0.4276 -0.1731
   23MOL    C43 4487   2.606   4.384   3.852 -1.1892 -0.2685  0.3152
   23MOL    C44 4488   2.741   4.405   3.852 -0.0658 -0.8946  0.1253
   23MOL    C45 4489   2.849   4.313   3.795  0.0957 -0.0213  0.0306
   23MOL    H46 4490   2.457   4.538   3.846  0.1649  0.2393  0.2875
   23MOL    H47 4491   2.543   4.549   3.980 -0.7247  0.1236 -0.4242
   23MOL    H48 4492   2.586   4.297   3.791  0.0059  0.2762 -0.8683
   23MOL    H49 4493   2.780   4.486   3.912  0.6229  1.0680 -2.8498
   23MOL    H50 4494   2.918   4.367   3.729  0.1059  0.3078  0.3077
   23MOL    H51 4495   2.809   4.225   3.745  0.3408 -2.3352  3.7037
   23MOL    C52 4496   2.939   4.268   3.905 -0.7420 -0.5480  0.6848
   23MOL    C53 4497   3.068   4.194   3.863  0.3972 -0.1145 -0.5954
   23MOL    C54 4498   3.085   4.061   3.886 -0.4756 -0.8177  0.6365
   23MOL    C55 4499   3.219   4.000   3.842 -0.1207  0.4216  0.8010
   23MOL    H56 4500   2.961   4.357   3.965  1.1468  0.9253 -2.0623
   23MOL    H57 4501   2.881   4.202   3.969  0.1412 -1.5649  0.4526
   23MOL    H58 4502   3.158   4.245   3.834  0.9868 -1.3744 -1.0026
   23MOL    H59 4503   3.007   3.998   3.928 -1.3575  0.0808  0.3680
   23MOL    H60 4504   3.273   3.977   3.933 -1.1527  3.6087  2.2694
   23MOL    H61 4505   3.277   4.069   3.780 -0.0591 -0.8939 -0.6449
   23MOL    C62 4506   3.196   3.884   3.750  0.1530  0.5137  0.0971
   23MOL    C63 4507   3.329   3.851   3.681 -0.6002 -0.3857 -0.2079
   23MOL    C64 4508   3.356   3.872   3.553 -0.3044 -0.3760 -0.1755
   23MOL    C65 4509   3.484   3.833   3.490  0.7020  0.1610 -0.7275
   23MOL    H66 4510   3.157   3.800   3.808  1.6120 -1.7956 -2.1381
   23MOL    H67 4511   3.127   3.910   3.669  1.0749  0.0224 -0.8580
   23MOL    H68 4512   3.406   3.822   3.751 -1.5246  1.1361  1.5068
   23MOL    H69 4513   3.279   3.910   3.488  0.0233  0.6084  0.0009
   23MOL    H70 4514   3.469   3.750   3.420 -1.8548 -0.7724  0.8498
   23MOL    H71 4515   3.553   3.800   3.568  1.7315  2.2406 -0.7331
   23MOL    C72 4516   3.558   3.940   3.417  1.4644  0.7000  0.0723
   23MOL    C73 4517   3.684   3.895   3.357 -0.0675  0.5043 -0.4175
   23MOL    C74 4518   3.805   3.901   3.406 -0.0161 -0.0859  0.2182
   23MOL    C75 4519   3.929   3.842   3.348 -0.0565 -0.0497  0.0791
   23MOL    H76 4520   3.496   3.991   3.342 -0.0408  0.2983  1.0214
   23MOL    H77 4521   3.593   4.019   3.484  0.0361  0.9760  0.5188
   23MOL    H78 4522   3.660   3.852   3.260 -0.1223 -1.6020  0.5025
   23MOL    H79 4523   3.802   3.948   3.503 -1.0746 -2.8667  1.5936
   23MOL    H80 4524   4.011   3.914   3.347  1.8578 -2.1652  0.6216
   23MOL    H81 4525   3.931   3.819   3.241  2.4327  2.1958 -0.4196
   23MOL    C82 4526   3.976   3.726   3.435  1.0043 -0.1771 -0.0865
   23MOL    C83 4527   3.915   3.597   3.385 -0.8228 -0.1704 -0.6082
   23MOL    C84 4528   3.994   3.489   3.377  0.3157 -0.4244  0.7374
   23MOL    C85 4529   3.962   3.339   3.339 -0.3656  0.0848 -0.1012
   23MOL    H86 4530   4.084   3.722   3.448  0.8585 -1.3260  0.8751
   23MOL    H87 4531   3.941   3.739   3.538  0.7648  0.2381 -0.2210
   23MOL    H88 4532   3.812   3.584   3.355 -1.2878 -2.0457  1.6360
   23MOL    H89 4533   4.098   3.508   3.398  0.3943  1.2070 -0.9874
   23MOL    H90 4534   3.883   3.296   3.400  0.7513 -0.0670  1.2624
   23MOL    H91 4535   4.050   3.282   3.367  0.3439  0.6205 -1.2034
   23MOL    C92 4536   3.921   3.322   3.186  0.2783 -0.2312  0.2761
   23MOL    C93 4537   3.797   3.405   3.148 -0.4342 -0.1571  0.2247
   23MOL    C94 4538   3.677   3.348   3.108  0.1467 -0.5737  0.4148
   23MOL    C95 4539   3.549   3.420   3.066 -0.1047  0.0414 -0.2856
   23MOL    H96 4540   4.005   3.353   3.124 -0.5854 -1.8429 -1.7522
   23MOL    H97 4541   3.904   3.217   3.164 -0.5983  0.3172 -1.8108
   23MOL    H98 4542   3.818   3.510   3.157  0.1117 -0.0909 -1.7363
   23MOL    H99 4543   3.681   3.240   3.097  1.4417 -0.3798 -1.1306
   23MOL   H100 4544   3.531   3.381   2.966  0.2634 -0.8459 -0.0019
   23MOL   H101 4545   3.556   3.528   3.049 -2.7221  0.2065 -0.5315
   23MOL   C102 4546   3.424   3.397   3.157 -0.3199  0.1428 -0.4698
   23MOL   C103 4547   3.452   3.456   3.294  0.0166 -0.1920  0.5581
   23MOL   C104 4548   3.452   3.386   3.404 -0.5319 -0.2200  0.0064
   23MOL   C105 4549   3.456   3.440   3.545 -0.8354 -0.8376 -0.9487
   23MOL   H106 4550   3.338   3.444   3.108  1.4797  1.7821 -2.1644
   23MOL   H107 4551   3.394   3.292   3.159 -4.1142  1.1565  0.3298
   23MOL   H108 4552   3.461   3.563   3.302  1.3514 -0.1518 -1.1015
   23MOL   H109 4553   3.450   3.278   3.405  1.0626 -0.3112 -2.5658
   23MOL   H110 4554   3.370   3.401   3.598  0.4562  0.7601  2.4879
   23MOL   H111 4555   3.454   3.549   3.539 -2.8615 -0.6634  1.8525
   23MOL   C112 4556   3.587   3.405   3.615  0.5999 -0.3749 -0.0567
   23MOL   C113 4557   3.588   3.474   3.751 -0.3383  0.2751  0.3725
   23MOL   C114 4558   3.628   3.406   3.862  0.1360  0.1044 -0.2369
   23MOL   C115 4559   3.637   3.465   4.000  0.3614  0.1407  0.2425
   23MOL   H116 4560   3.592   3.297   3.631  0.8738 -0.1103  1.8117
   23MOL   H117 4561   3.673   3.444   3.560  0.0240 -0.9673 -1.3972
   23MOL   H118 4562   3.546   3.573   3.756 -1.4378 -0.0927 -1.0478
   23MOL   H119 4563   3.666   3.305   3.860 -0.7511 -0.2278 -0.5992
   23MOL   H120 4564   3.577   3.404   4.066 -0.4918 -0.9617 -1.5109
   23MOL   H121 4565   3.597   3.567   3.998  0.3246  0.1649  2.1058
   23MOL   C122 4566   3.788   3.489   4.044  0.3681  0.0357 -0.8299
   23MOL   C123 4567   3.877   3.563   3.946  0.0248 -0.1587  0.0779
   23MOL   C124 4568   3.952   3.673   3.976  0.1395 -0.2236 -0.4166
   23MOL   C125 4569   4.055   3.738   3.888  0.3107 -0.1055 -0.0638
   23MOL   H126 4570   3.790   3.538   4.141 -0.5092  0.6677 -1.1259
   23MOL   H127 4571   3.832   3.389   4.039 -2.3281 -1.3625  1.9162
   23MOL   H128 4572   3.873   3.520   3.847 -0.5290  0.1616 -0.0376
   23MOL   H129 4573   3.965   3.701   4.080 -1.8275  4.8251 -1.4249
   23MOL   H130 4574   4.066   3.690   3.791  2.4603 -0.8633  0.5203
   23MOL   H131 4575   4.156   3.731   3.929  0.8007 -1.3732 -1.4190
   23MOL   C132 4576   4.010   3.888   3.857 -0.2091 -0.7435 -0.0853
   23MOL   C133 4577   4.072   3.964   3.743  0.0722 -0.3494  0.6426
   23MOL   C134 4578   4.040   4.091   3.711  0.5590 -0.0194 -0.2087
   23MOL   C135 4579   4.087   4.170   3.590  0.0032  0.0831  0.4083
   23MOL   H136 4580   3.905   3.873   3.832 -0.2178  0.2890 -0.6956
   23MOL   H137 4581   4.023   3.947   3.948  1.5059  2.7742 -2.4971
   23MOL   H138 4582   4.126   3.904   3.670  2.4353  0.4167  1.7120
   23MOL   H139 4583   3.978   4.149   3.777 -3.3655 -2.8063 -1.3199
   23MOL   H140 4584   4.151   4.118   3.520  1.0213  1.8584 -0.0016
   23MOL   H141 4585   4.158   4.244   3.629 -0.3477  0.5550  0.1566
   23MOL   C142 4586   3.984   4.233   3.496  0.2642 -0.0694  0.5155
   23MOL   C143 4587   3.887   4.321   3.566  0.6123  0.2393  0.1321
   23MOL   C144 4588   3.881   4.455   3.553  0.2497 -0.2906 -0.2470
   23MOL   C145 4589   3.778   4.547   3.625  0.1614 -0.4632  1.0623
   23MOL   H146 4590   4.035   4.290   3.418 -1.0507  0.8178  0.2888
   23MOL   H147 4591   3.924   4.159   3.443 -1.7582  0.3382  2.1661
   23MOL   H148 4592   3.827   4.278   3.644  0.6336  1.0530  0.6123
   23MOL   H149 4593   3.954   4.495   3.484  1.9271 -1.7253  0.6500
   23MOL   H150 4594   3.701   4.480   3.664  0.4708 -1.4303  0.0400
   23MOL   H151 4595   3.717   4.610   3.559  0.1179 -1.8065 -0.2003
   23MOL   C152 4596   3.854   4.634   3.731 -0.0684  0.0434 -0.2038
   23MOL   C153 4597   3.776   4.748   3.782 -0.0067 -0.4150 -0.4915
   23MOL   C154 4598   3.729   4.759   3.907  0.6631 -0.1780 -0.7873
   23MOL   C155 4599   3.652   4.869   3.969  0.2079  0.4684 -0.1196
   23MOL   H156 4600   3.894   4.561   3.801 -1.1895  0.6917  1.1316
   23MOL   H157 4601   3.949   4.675   3.697  2.1060 -0.5458  4.6822
   23MOL   H158 4602   3.764   4.828   3.710  0.9054 -0.3159 -0.5435
   23MOL   H159 4603   3.747   4.677   3.974  0.6143  0.3671 -0.1018
   23MOL   H160 4604   3.634   4.949   3.899  0.9081 -0.1099 -0.9691
   23MOL   H161 4605   3.712   4.914   4.048  0.2455  0.3706 -0.0914
   23MOL   C162 4606   3.512   4.826   4.023  0.2812  0.9478 -0.5016
   23MOL   C163 4607   3.422   4.795   3.911 -0.4070 -0.2625 -0.0244
   23MOL   C164 4608   3.359   4.678   3.889  0.3910 -0.1232  0.6230
   23MOL   C165 4609   3.254   4.652   3.785 -0.1637  0.0480  0.4914
   23MOL   H166 4610   3.514   4.739   4.088 -0.6472  0.1777 -1.4970
   23MOL   H167 4611   3.471   4.908   4.081  0.9684  1.6003 -0.9202
   23MOL   H168 4612   3.393   4.884   3.857  1.4227  0.3888  0.0366
   23MOL   H169 4613   3.380   4.599   3.959  0.3315 -1.7523 -1.1356
   23MOL   H170 4614   3.306   4.604   3.702  0.8299  1.1078  0.4768
   23MOL   H171 4615   3.209   4.747   3.755  0.0471  0.0019  0.0246
   23MOL   C172 4616   3.127   4.570   3.837  0.7949  0.2133  0.8187
   23MOL   C173 4617   3.087   4.602   3.985 -0.1471  0.3701  0.0004
   23MOL   C174 4618   2.981   4.667   4.026  0.3023  0.7646 -0.0759
   23MOL   C175 4619   2.943   4.713   4.170  0.2366 -0.3102 -1.1913
   23MOL   H176 4620   3.042   4.579   3.770  1.3058 -1.5753 -0.0924
   23MOL   H177 4621   3.153   4.465   3.844  0.4027  0.1722  1.7615
   23MOL   H178 4622   3.165   4.567   4.051 -1.3015 -0.7369  0.8188
   23MOL   H179 4623   2.898   4.687   3.959  0.1061 -0.3563 -0.1851
   23MOL   H180 4624   2.935   4.821   4.181  1.4176 -0.3949  0.6338
   23MOL   H181 4625   3.029   4.698   4.235 -0.3606 -2.8751 -0.9168
   23MOL   C182 4626   2.816   4.650   4.239 -0.1398 -0.0115 -0.3039
   23MOL   C183 4627   2.842   4.506   4.288  0.0495 -0.6436  0.5109
   23MOL   C184 4628   2.751   4.408   4.278 -0.8665  0.6686  0.9574
   23MOL   C185 4629   2.775   4.270   4.330  0.4880  0.0220 -0.4122
   23MOL   H186 4630   2.809   4.693   4.339  0.1437 -0.8221  0.0691
   23MOL   H187 4631   2.721   4.667   4.188 -0.3438 -1.0911 -0.2983
   23MOL   H188 4632   2.933   4.488   4.342  0.3416  0.7657  0.5036
   23MOL   H189 4633   2.657   4.420   4.226 -0.5228  0.6815  0.3270
   23MOL   H190 4634   2.875   4.276   4.372 -0.2129 -1.7091  1.5846
   23MOL   H191 4635   2.774   4.206   4.241  1.1334  1.0333 -1.1562
   23MOL   C192 4636   2.674   4.231   4.443  0.1640  0.1092 -0.1765
   23MOL   C193 4637   2.681   4.084   4.483  0.2892 -0.4415  0.0995
   23MOL   C194 4638   2.692   4.054   4.614 -0.6298  0.3001 -0.3675
   23MOL   C195 4639   2.695   3.917   4.676  0.1191 -0.2588  0.6274
   23MOL   H196 4640   2.687   4.302   4.524  2.2813 -2.7205  2.0586
   23MOL   H197 4641   2.572   4.225   4.406  0.7199  0.5398 -1.8299
   23MOL   H198 4642   2.672   4.006   4.409  0.6342 -1.5518  1.2170
   23MOL   H199 4643   2.693   4.135   4.686 -1.7743  1.5051 -1.6797
   23MOL   H200 4644   2.720   3.838   4.604 -0.2758  0.3389 -0.1691
   23MOL   H201 4645   2.609   3.885   4.735 -1.3964  2.4953  0.0039
   23MOL   H202 4646   2.771   3.913   4.754  0.5375 -0.6921  0.2052
   24MOL     C1 4647   7.507   2.378   1.683  0.3456 -1.0350 -0.0743
   24MOL     C2 4648   7.626   2.460   1.734 -0.4214  0.0451 -0.5161
   24MOL     C3 4649   7.672   2.462   1.861  0.2781 -0.0746  0.6397
   24MOL     C4 4650   7.786   2.558   1.898  0.1039  0.3014 -0.4132
   24MOL     H5 4651   7.475   2.298   1.750 -0.2555 -0.2735  0.5584
   24MOL     H6 4652   7.534   2.341   1.584  0.4750  0.3847 -0.5908
   24MOL     H7 4653   7.672   2.532   1.667  0.3901  0.9922  1.0180
   24MOL     H8 4654   7.637   2.400   1.942 -0.2361 -0.6497 -0.0234
   24MOL     H9 4655   7.807   2.619   1.810 -0.1227  1.5858  0.4138
   24MOL    H10 4656   7.871   2.494   1.921 -1.8377 -2.0491  0.3253
   24MOL    H11 4657   7.416   2.437   1.671  2.1536  1.9491  0.3064
   24MOL    C12 4658   7.733   2.641   2.021  0.1053 -0.2739 -0.3286
   24MOL    C13 4659   7.844   2.726   2.079  0.2933 -0.4898 -0.7372
   24MOL    C14 4660   7.885   2.704   2.209  0.2163 -0.1977 -0.4181
   24MOL    C15 4661   0.006   2.793   2.280 -0.2035  0.2154 -0.0763
   24MOL    H16 4662   7.647   2.705   2.001 -0.9630 -1.2269  1.0410
   24MOL    H17 4663   7.706   2.575   2.104 -0.8606 -1.7500 -1.7846
   24MOL    H18 4664   7.889   2.800   2.015 -1.3888  1.8168  0.6791
   24MOL    H19 4665   7.845   2.626   2.271  2.8906 -0.8072  0.5997
   24MOL    H20 4666   0.040   2.870   2.211  0.2029 -1.4194 -1.7709
   24MOL    H21 4667   0.091   2.726   2.295 -0.7043 -0.0703  1.6062
   24MOL    C22 4668   7.933   2.845   2.408 -0.3036  0.2772 -0.8639
   24MOL    C23 4669   0.062   2.915   2.495 -0.2116  0.1973  0.2976
   24MOL    C24 4670   0.045   3.029   2.563  0.1466  0.2139  0.4513
   24MOL    C25 4671   0.138   3.099   2.655 -0.2174  0.0308  0.2038
   24MOL    H26 4672   7.850   2.916   2.403 -0.6200 -0.0734 -0.6659
   24MOL    H27 4673   7.898   2.758   2.464 -0.4205  2.1792  2.1219
   24MOL    H28 4674   0.151   2.855   2.508 -0.8836 -0.6502  0.9939
   24MOL    H29 4675   7.924   3.073   2.567  0.3065  0.4318  2.5150
   24MOL    H30 4676   0.234   3.051   2.632 -0.6092  0.2058 -1.9297
   24MOL    H31 4677   0.112   3.080   2.759  0.6445  2.6468  0.9503
   24MOL    C32 4678   0.150   3.253   2.631 -0.0810 -0.3790  0.3519
   24MOL    C33 4679   0.234   3.317   2.737  0.0366 -0.2509 -0.0915
   24MOL    C34 4680   0.197   3.429   2.796  0.4422  0.2987  0.6444
   24MOL    C35 4681   0.274   3.488   2.913  0.6192  0.2388  0.1590
   24MOL    H36 4682   0.197   3.280   2.537  0.7641  2.3087  1.5130
   24MOL    H37 4683   0.054   3.303   2.638 -0.2386 -0.1861 -2.7285
   24MOL    H38 4684   0.329   3.268   2.751  0.8944  0.1432 -3.7747
   24MOL    H39 4685   0.100   3.470   2.772  0.6156  0.7649  0.7378
   24MOL    H40 4686   0.354   3.417   2.932  0.9580 -0.1319 -2.5098
   24MOL    H41 4687   0.203   3.481   2.996 -0.9736 -0.7605 -1.2415
   24MOL    C42 4688   0.315   3.631   2.878 -0.3016 -0.1576 -0.5389
   24MOL    C43 4689   0.402   3.693   2.983  0.5437  0.5228  0.4494
   24MOL    C44 4690   0.374   3.793   3.070 -0.6224 -0.2632  0.1036
   24MOL    C45 4691   0.469   3.843   3.183  0.5854 -0.0102 -0.1393
   24MOL    H46 4692   0.361   3.637   2.780 -0.7618 -2.8005 -0.9524
   24MOL    H47 4693   0.230   3.699   2.869 -0.5529 -0.6561 -1.9406
   24MOL    H48 4694   0.502   3.653   2.978  0.0316 -0.8136  0.4970
   24MOL    H49 4695   0.289   3.858   3.056  0.7613  1.8473  1.2750
   24MOL    H50 4696   0.535   3.758   3.201  1.0211  0.3949  0.1897
   24MOL    H51 4697   0.402   3.844   3.269 -0.9031 -1.8325 -1.2519
   24MOL    C52 4698   0.541   3.973   3.157  0.2618  0.2191 -0.6427
   24MOL    C53 4699   0.669   3.983   3.231  0.6185 -0.7758 -0.1995
   24MOL    C54 4700   0.710   4.092   3.297  0.3464 -0.0559 -0.0070
   24MOL    C55 4701   0.837   4.093   3.376  0.4337  0.3580  0.2156
   24MOL    H56 4702   0.573   3.973   3.053  4.6119 -0.8238  0.6139
   24MOL    H57 4703   0.484   4.061   3.189 -2.1144 -2.1870  2.0333
   24MOL    H58 4704   0.731   3.894   3.231  2.3135  0.3617  0.7863
   24MOL    H59 4705   0.645   4.179   3.296  0.9119  0.3703 -0.7440
   24MOL    H60 4706   0.891   3.999   3.363  1.5857  1.0977 -0.5241
   24MOL    H61 4707   0.821   4.100   3.484  0.3618  0.0193  0.2281
   24MOL    C62 4708   0.942   4.206   3.337  0.4755  0.3132  0.1156
   24MOL    C63 4709   1.077   4.200   3.407  0.1242 -0.9679  0.5851
   24MOL    C64 4710   1.195   4.158   3.353  0.0433  0.5104 -0.1781
   24MOL    C65 4711   1.333   4.159   3.413 -0.0948  0.4434  0.5647
   24MOL    H66 4712   0.953   4.199   3.228 -2.0107 -2.6667 -0.0319
   24MOL    H67 4713   0.893   4.302   3.356 -0.9313 -0.2450 -0.6167
   24MOL    H68 4714   1.066   4.232   3.509  0.2151 -1.2143  0.6707
   24MOL    H69 4715   1.188   4.133   3.248  2.2805 -0.0305 -0.2115
   24MOL    H70 4716   1.321   4.195   3.515 -1.1520  2.9132 -0.3825
   24MOL    H71 4717   1.394   4.229   3.356  2.0030 -1.6972  0.0761
   24MOL    C72 4718   1.404   4.024   3.410  0.0983 -0.4234  0.3150
   24MOL    C73 4719   1.366   3.940   3.529  0.2004 -0.7109  0.2355
   24MOL    C74 4720   1.442   3.903   3.630 -0.1841  0.7886 -0.8396
   24MOL    C75 4721   1.390   3.809   3.732  0.3937  0.1053 -0.4220
   24MOL    H76 4722   1.379   3.968   3.320 -0.1635 -0.7643  0.5977
   24MOL    H77 4723   1.511   4.037   3.425 -0.1553  1.7384  0.5164
   24MOL    H78 4724   1.267   3.898   3.527 -0.5378  1.0063 -0.6705
   24MOL    H79 4725   1.543   3.941   3.640  0.5480 -0.8745 -1.6188
   24MOL    H80 4726   1.446   3.716   3.736  0.5364  0.1318 -1.6661
   24MOL    H81 4727   1.290   3.772   3.709  0.6883  0.2697 -2.0133
   24MOL    C82 4728   1.396   3.875   3.874 -0.4566  0.4525 -0.3208
   24MOL    C83 4729   1.336   3.781   3.981  0.0125 -0.5416  0.3878
   24MOL    C84 4730   1.253   3.824   4.074 -0.4549  0.1175  0.4053
   24MOL    C85 4731   1.188   3.738   4.179  0.7314 -0.2415  0.1373
   24MOL    H86 4732   1.500   3.894   3.901 -0.3772  0.7262 -0.8020
   24MOL    H87 4733   1.334   3.964   3.874 -1.5483 -0.2878 -1.5839
   24MOL    H88 4734   1.361   3.676   3.984  3.0566  0.1470  0.3048
   24MOL    H89 4735   1.212   3.923   4.061 -1.2429 -0.3552 -0.7604
   24MOL    H90 4736   1.236   3.646   4.213 -4.3063 -1.7390  3.7210
   24MOL    H91 4737   1.092   3.705   4.138 -0.3053  2.7397  0.0669
   24MOL    C92 4738   1.138   3.812   4.305 -0.0301  0.1683 -0.0216
   24MOL    C93 4739   1.231   3.912   4.355 -0.4930  0.3963  0.0448
   24MOL    C94 4740   1.214   4.049   4.384  0.4902 -0.0014  0.2387
   24MOL    C95 4741   1.334   4.123   4.443  0.0268  0.3041  0.1787
   24MOL    H96 4742   1.044   3.865   4.288 -1.3617 -1.2542  2.6541
   24MOL    H97 4743   1.126   3.738   4.384 -2.8775  1.5155  0.8586
   24MOL    H98 4744   1.333   3.877   4.368 -0.9850 -0.1780  2.7838
   24MOL    H99 4745   1.116   4.095   4.388 -0.4215 -1.7933 -0.7758
   24MOL   H100 4746   1.427   4.070   4.423  0.0647  0.4230  0.0326
   24MOL   H101 4747   1.315   4.141   4.549 -1.7536 -1.5223  0.1953
   24MOL   C102 4748   1.334   4.270   4.383 -0.3370 -0.5090 -0.2000
   24MOL   C103 4749   1.429   4.366   4.454  0.0550  0.1018 -0.9234
   24MOL   C104 4750   1.384   4.474   4.524 -0.1648 -0.0765  0.6824
   24MOL   C105 4751   1.474   4.588   4.566 -1.0881  0.1881 -0.0339
   24MOL   H106 4752   1.357   4.265   4.276 -1.0517 -0.1670 -0.3704
   24MOL   H107 4753   1.235   4.315   4.386 -0.5759 -1.1550  1.9197
   24MOL   H108 4754   1.535   4.356   4.435  0.2336 -0.0243  0.1001
   24MOL   H109 4755   1.280   4.498   4.536  0.0175  1.7875 -1.2749
   24MOL   H110 4756   1.567   4.560   4.517 -0.1786  1.4435  0.9352
   24MOL   H111 4757   1.499   4.592   4.672  2.3306  3.1872 -0.8592
   24MOL   C112 4758   1.416   4.721   4.525  0.3897 -0.0284  0.0670
   24MOL   C113 4759   1.504   4.842   4.571 -0.4572 -0.0618  0.3378
   24MOL   C114 4760   1.595   4.891   4.484  0.8189 -0.2138 -0.3634
   24MOL   C115 4761   1.702   4.985   4.531 -0.4135  0.1624 -0.5221
   24MOL   H116 4762   1.407   4.722   4.417  0.5990  0.8907  0.0610
   24MOL   H117 4763   1.315   4.728   4.563  0.0974  0.8666 -0.8730
   24MOL   H118 4764   1.496   4.871   4.675 -0.2709 -1.0190  0.6287
   24MOL   H119 4765   1.600   4.855   4.382  0.8927  0.1290 -0.4798
   24MOL   H120 4766   1.796   4.933   4.513  0.7404  1.0247  2.6311
   24MOL   H121 4767   1.693   5.002   4.638 -0.1928 -0.5030 -0.3956
   24MOL   C122 4768   1.705   5.111   4.453  0.1994  0.2054  0.6580
   24MOL   C123 4769   1.800   5.218   4.502 -0.3345  0.1087 -0.5840
   24MOL   C124 4770   1.880   5.291   4.422 -0.7630 -0.0540  0.9261
   24MOL   C125 4771   1.972   5.393   4.475 -0.5490  0.3792  0.2503
   24MOL   H126 4772   1.739   5.095   4.351 -3.1963 -0.1271 -0.4845
   24MOL   H127 4773   1.600   5.140   4.445  0.1218  0.0413  1.0622
   24MOL   H128 4774   1.780   5.234   4.607  1.0213  0.3227 -0.3490
   24MOL   H129 4775   1.889   5.268   4.317  0.7746 -1.3631  1.3181
   24MOL   H130 4776   2.071   5.367   4.438 -0.0604  1.1804  0.9656
   24MOL   H131 4777   1.981   5.403   4.583 -0.2532 -1.2511  0.3913
   24MOL   C132 4778   1.944   5.523   4.403  0.5924  0.2151 -0.3520
   24MOL   C133 4779   2.049   5.629   4.430  0.4145 -0.5902  0.2348
   24MOL   C134 4780   2.022   5.756   4.449 -0.3161  0.0528  0.0367
   24MOL   C135 4781   2.129   5.865   4.466 -0.3496  0.4060 -0.0286
   24MOL   H136 4782   1.949   5.500   4.296  0.6052 -0.2110 -0.2609
   24MOL   H137 4783   1.842   5.554   4.426 -0.3046  0.5279 -4.2390
   24MOL   H138 4784   2.150   5.595   4.413  0.1557 -0.9830 -0.5759
   24MOL   H139 4785   1.917   5.781   4.452 -0.2358  0.3079  2.2998
   24MOL   H140 4786   2.229   5.824   4.471 -0.3876  0.4116  0.7145
   24MOL   H141 4787   2.126   5.915   4.562 -1.1260 -1.3554  0.8848
   24MOL   C142 4788   2.120   5.968   4.346  0.0847  0.0761  0.0109
   24MOL   C143 4789   2.257   6.035   4.332  0.0201  0.0888 -0.1293
   24MOL   C144 4790   2.315   6.042   4.207 -0.2153 -0.1602  0.0026
   24MOL   C145 4791   2.444   6.119   4.176  0.1903 -0.0963  0.2145
   24MOL   H146 4792   2.089   5.920   4.254 -1.8134  0.6753  0.3074
   24MOL   H147 4793   2.039   6.039   4.365  1.9572  1.8815  1.5237
   24MOL   H148 4794   2.300   6.082   4.419  1.9600 -1.3988 -0.2484
   24MOL   H149 4795   2.262   6.006   4.120 -0.6270 -0.1356  0.2439
   24MOL   H150 4796   2.499   6.147   4.266  0.7508 -0.2156 -0.0871
   24MOL   H151 4797   2.413   6.212   4.128  1.2492 -0.3255 -0.9607
   24MOL   C152 4798   2.533   6.049   4.076 -0.7786  0.0289  0.1170
   24MOL   C153 4799   2.576   5.914   4.122  0.0291 -0.3053 -0.1437
   24MOL   C154 4800   2.706   5.876   4.119 -0.2904  0.6195 -0.6846
   24MOL   C155 4801   2.754   5.733   4.145 -0.6246  0.3133  1.0337
   24MOL   H156 4802   2.464   6.031   3.993 -1.6433 -1.4281  1.1212
   24MOL   H157 4803   2.609   6.109   4.027  0.0057 -1.5315 -0.5950
   24MOL   H158 4804   2.499   5.845   4.155  1.7712 -1.8460  0.7918
   24MOL   H159 4805   2.777   5.945   4.074  0.2927  0.8366  0.5443
   24MOL   H160 4806   2.678   5.658   4.168 -1.8125 -0.0822 -3.6891
   24MOL   H161 4807   2.820   5.733   4.232 -2.1438 -0.7874  2.2032
   24MOL   C162 4808   2.841   5.672   4.030  0.1825  0.4233 -0.6806
   24MOL   C163 4809   2.925   5.562   4.069  0.0724  0.1373  0.3345
   24MOL   C164 4810   3.054   5.555   4.045  0.3074  0.2139  0.4689
   24MOL   C165 4811   3.142   5.439   4.093 -0.2924  0.1968  0.2496
   24MOL   H166 4812   2.769   5.634   3.958 -0.0752  0.5262 -0.4796
   24MOL   H167 4813   2.896   5.748   3.974  1.9278  0.1121  0.5665
   24MOL   H168 4814   2.885   5.476   4.121 -0.3106  1.0102  1.5094
   24MOL   H169 4815   3.118   5.634   4.009  1.2939 -0.1481  1.3925
   24MOL   H170 4816   3.203   5.404   4.010  2.4381  0.8650  1.9012
   24MOL   H171 4817   3.076   5.361   4.132  0.3382 -1.4387 -1.9084
   24MOL   C172 4818   3.241   5.472   4.215  0.3634  0.6511 -0.0534
   24MOL   C173 4819   3.304   5.357   4.284  0.2929 -0.4298 -0.0991
   24MOL   C174 4820   3.336   5.246   4.228  0.6235 -0.5713  0.0271
   24MOL   C175 4821   3.375   5.120   4.311  0.8344 -0.3700 -0.7418
   24MOL   H176 4822   3.317   5.547   4.190 -2.1595  2.9319 -1.0874
   24MOL   H177 4823   3.179   5.519   4.291 -1.1203 -1.3232 -0.0018
   24MOL   H178 4824   3.334   5.362   4.388 -0.0902 -1.5742  0.0726
   24MOL   H179 4825   3.312   5.226   4.125  0.2985  1.7456 -0.3561
   24MOL   H180 4826   3.434   5.147   4.398 -0.1166  0.7101 -0.4195
   24MOL   H181 4827   3.448   5.068   4.249  2.5343  0.0477  0.8729
   24MOL   C182 4828   3.248   5.034   4.354 -0.9373  0.0344  0.3070
   24MOL   C183 4829   3.294   4.908   4.424 -0.3185 -0.4392 -0.1932
   24MOL   C184 4830   3.237   4.861   4.539  0.0348 -0.4439  0.0843
   24MOL   C185 4831   3.280   4.738   4.611 -0.1488  0.1520 -0.3241
   24MOL   H186 4832   3.185   5.104   4.410  0.1804  2.4936 -1.3896
   24MOL   H187 4833   3.198   5.010   4.260 -0.2766  1.6756 -0.4939
   24MOL   H188 4834   3.373   4.848   4.382 -0.3524 -0.7578  0.1933
   24MOL   H189 4835   3.153   4.919   4.577  0.7394  0.6051  0.0668
   24MOL   H190 4836   3.276   4.765   4.717  0.5531 -1.0451  0.0229
   24MOL   H191 4837   3.382   4.707   4.589 -0.7610 -2.7936  0.7681
   24MOL   C192 4838   3.182   4.612   4.581  0.8715  0.3894 -0.2187
   24MOL   C193 4839   3.187   4.501   4.688  0.3050  0.0555 -0.3761
   24MOL   C194 4840   3.081   4.445   4.744  0.6067  0.3747  0.6614
   24MOL   C195 4841   3.086   4.331   4.838  0.0849 -0.6715 -0.3156
   24MOL   H196 4842   3.084   4.657   4.598  1.7661  1.1390  3.5754
   24MOL   H197 4843   3.187   4.574   4.479 -0.8862 -1.2852  0.2915
   24MOL   H198 4844   3.289   4.476   4.716  1.3566  0.5639 -3.5234
   24MOL   H199 4845   2.981   4.473   4.715  1.5869  2.7647 -0.6727
   24MOL   H200 4846   3.039   4.372   4.928 -0.2704  0.0109 -0.8039
   24MOL   H201 4847   3.187   4.293   4.851 -0.1891 -0.8149  1.5792
   24MOL   H202 4848   3.011   4.259   4.804  0.5462 -1.5880  0.5751
   25MOL     C1 4849   6.322   4.234   0.703  0.7253 -0.3673  0.3002
   25MOL     C2 4850   6.243   4.267   0.824 -0.0869 -0.1136 -0.4769
   25MOL     C3 4851   6.243   4.394   0.884 -0.3953  0.9839  0.1942
   25MOL     C4 4852   6.160   4.430   0.999 -0.0153  0.8206 -0.4881
   25MOL     H5 4853   6.252   4.194   0.629  0.1061 -1.8903  1.6845
   25MOL     H6 4854   6.388   4.157   0.741  0.7508 -0.0421  0.9176
   25MOL     H7 4855   6.187   4.182   0.862  1.6246 -0.2933  1.7637
   25MOL     H8 4856   6.292   4.472   0.828 -1.4322  0.7046 -1.1255
   25MOL     H9 4857   6.136   4.334   1.044 -0.1693  0.8987 -0.4068
   25MOL    H10 4858   6.066   4.462   0.954 -0.4172 -0.8829 -0.8708
   25MOL    H11 4859   6.380   4.320   0.670  0.4843 -0.5531 -0.6413
   25MOL    C12 4860   6.222   4.515   1.108  0.6774 -0.1509  0.2755
   25MOL    C13 4861   6.119   4.548   1.214 -0.5411 -0.5133 -0.3398
   25MOL    C14 4862   6.064   4.668   1.233 -0.7280 -0.2851 -0.1945
   25MOL    C15 4863   5.968   4.702   1.340  0.0374 -0.4132  0.5208
   25MOL    H16 4864   6.298   4.456   1.159 -0.3351 -1.1402  0.6596
   25MOL    H17 4865   6.261   4.612   1.075  0.6840 -0.0342  0.6290
   25MOL    H18 4866   6.078   4.469   1.276  1.5292 -2.4444 -1.3561
   25MOL    H19 4867   6.097   4.753   1.175  0.8837 -0.3453  0.6370
   25MOL    H20 4868   6.008   4.770   1.415 -1.8340  1.2301  0.0426
   25MOL    H21 4869   5.938   4.607   1.384  2.6579 -1.8118 -0.5572
   25MOL    C22 4870   5.845   4.769   1.279 -0.5538 -0.5274 -0.3427
   25MOL    C23 4871   5.740   4.816   1.377  0.1738  0.2592  0.2967
   25MOL    C24 4872   5.609   4.789   1.368  1.0828 -0.2153 -0.1014
   25MOL    C25 4873   5.494   4.837   1.462 -0.4041 -0.3738  0.0303
   25MOL    H26 4874   5.867   4.861   1.224  0.0944 -0.5020 -0.0461
   25MOL    H27 4875   5.796   4.707   1.205  1.5943 -0.8201 -1.5622
   25MOL    H28 4876   5.774   4.885   1.452  0.5137  1.5995 -1.0568
   25MOL    H29 4877   5.569   4.735   1.283 -1.1980  0.6351  0.3970
   25MOL    H30 4878   5.543   4.809   1.555  3.4365  2.7581 -0.9371
   25MOL    H31 4879   5.399   4.787   1.442 -0.4148 -1.0071  1.5749
   25MOL    C32 4880   5.482   4.986   1.452 -0.8398 -0.3663 -0.2522
   25MOL    C33 4881   5.368   5.039   1.537 -0.3120 -0.3482  0.4397
   25MOL    C34 4882   5.376   5.100   1.658  0.6636 -0.0318 -0.3722
   25MOL    C35 4883   5.262   5.162   1.732  0.3757  0.2927  0.2089
   25MOL    H36 4884   5.572   5.031   1.494  0.5985 -2.2540 -1.2268
   25MOL    H37 4885   5.482   5.017   1.348 -0.3879  1.2414  0.2182
   25MOL    H38 4886   5.273   5.019   1.489 -0.9941  2.3968  0.5679
   25MOL    H39 4887   5.471   5.103   1.710 -0.0223  0.1836  0.8763
   25MOL    H40 4888   5.175   5.158   1.666  1.3571 -1.5331 -0.9865
   25MOL    H41 4889   5.298   5.264   1.749  1.4171  0.1280 -0.9266
   25MOL    C42 4890   5.225   5.106   1.867 -0.8498  0.2019 -0.3188
   25MOL    C43 4891   5.113   5.170   1.939  0.0905  0.2707  0.3838
   25MOL    C44 4892   5.025   5.104   2.018 -0.4019  0.6959  0.0494
   25MOL    C45 4893   4.927   5.168   2.113  0.0179  0.3568 -0.0304
   25MOL    H46 4894   5.227   4.997   1.862 -0.5482  0.2605 -1.7880
   25MOL    H47 4895   5.314   5.130   1.925 -0.1696 -0.2069 -1.1853
   25MOL    H48 4896   5.112   5.278   1.930  2.3547  0.1314 -2.1259
   25MOL    H49 4897   5.040   4.997   2.022  1.9762  0.9753 -0.6209
   25MOL    H50 4898   4.826   5.154   2.074  0.8104 -2.2756 -1.2496
   25MOL    H51 4899   4.949   5.275   2.113 -0.1385  0.3893 -0.3178
   25MOL    C52 4900   4.945   5.114   2.257  0.3731  0.9291 -0.7805
   25MOL    C53 4901   4.818   5.145   2.339 -0.0148 -0.0741 -0.1075
   25MOL    C54 4902   4.765   5.063   2.430  0.4167 -0.2692 -0.1089
   25MOL    C55 4903   4.625   5.089   2.498  0.2095  0.4182 -0.0660
   25MOL    H56 4904   4.949   5.005   2.253 -0.3913  0.8748 -0.0897
   25MOL    H57 4905   5.037   5.146   2.305  0.1958 -0.6992  0.6896
   25MOL    H58 4906   4.760   5.236   2.326 -0.7043 -0.6480 -1.0793
   25MOL    H59 4907   4.821   4.974   2.452 -0.7705 -1.0850 -0.3904
   25MOL    H60 4908   4.589   5.187   2.467  4.2518  1.5970 -1.3598
   25MOL    H61 4909   4.652   5.094   2.603  0.1981  1.5169 -0.1164
   25MOL    C62 4910   4.523   4.982   2.483 -0.8164  0.6694 -0.2639
   25MOL    C63 4911   4.570   4.838   2.512  0.4877 -0.1816 -0.5383
   25MOL    C64 4912   4.578   4.740   2.417 -0.1433  0.2009  0.6612
   25MOL    C65 4913   4.623   4.598   2.441  0.0950 -0.5151 -0.4905
   25MOL    H66 4914   4.454   4.991   2.568 -1.6302 -0.6516 -0.7592
   25MOL    H67 4915   4.475   4.980   2.385  0.9888 -1.0668 -1.1562
   25MOL    H68 4916   4.600   4.803   2.609 -0.5649  2.4408  0.7738
   25MOL    H69 4917   4.562   4.752   2.311  2.3898 -1.0656  0.0847
   25MOL    H70 4918   4.559   4.524   2.395 -0.3620 -0.9234  0.7754
   25MOL    H71 4919   4.622   4.568   2.546 -0.3372 -1.8498 -0.8726
   25MOL    C72 4920   4.765   4.578   2.371 -0.6126 -0.6113 -0.7619
   25MOL    C73 4921   4.807   4.437   2.403 -0.0495  0.1581  0.7318
   25MOL    C74 4922   4.807   4.334   2.315  0.3149 -0.1813  0.0563
   25MOL    C75 4923   4.838   4.185   2.353  0.5540  0.4940 -0.0939
   25MOL    H76 4924   4.757   4.601   2.265 -1.8977  1.0223 -0.3229
   25MOL    H77 4925   4.842   4.637   2.420  0.1036 -1.5137 -0.7803
   25MOL    H78 4926   4.841   4.419   2.504  1.8051  0.0874  0.0972
   25MOL    H79 4927   4.771   4.351   2.214  2.4188  0.8434 -0.5427
   25MOL    H80 4928   4.865   4.183   2.458 -2.2215 -4.1090  0.6853
   25MOL    H81 4929   4.931   4.161   2.303  1.5275  0.6038  1.6340
   25MOL    C82 4930   4.721   4.089   2.322 -0.0748 -0.2390 -0.4230
   25MOL    C83 4931   4.766   3.953   2.377  0.3171 -0.5232 -0.0975
   25MOL    C84 4932   4.831   3.859   2.308  0.1045  0.2415  0.3242
   25MOL    C85 4933   4.867   3.723   2.374 -0.2657  0.2965  0.1394
   25MOL    H86 4934   4.642   4.136   2.380  1.3337 -0.8940  2.1338
   25MOL    H87 4935   4.713   4.077   2.214  0.7129  1.5612 -0.7071
   25MOL    H88 4936   4.738   3.944   2.481  0.4410  0.1648 -0.0037
   25MOL    H89 4937   4.864   3.868   2.206 -0.0730 -0.2970  0.2183
   25MOL    H90 4938   4.799   3.651   2.329 -0.8603  1.3665 -0.7158
   25MOL    H91 4939   4.841   3.723   2.480 -1.0094  1.2597 -0.0269
   25MOL    C92 4940   5.008   3.672   2.343 -0.2544 -0.2320  0.5014
   25MOL    C93 4941   5.040   3.531   2.390 -0.6357 -0.2929 -0.3419
   25MOL    C94 4942   5.073   3.420   2.321  0.9821  0.3405 -0.3855
   25MOL    C95 4943   5.100   3.282   2.383 -0.4310  0.7195  0.1345
   25MOL    H96 4944   5.018   3.674   2.234 -1.4865  0.2181  0.3834
   25MOL    H97 4945   5.085   3.744   2.373 -2.1858  0.6144  3.5930
   25MOL    H98 4946   5.041   3.520   2.497  1.5123  1.6605 -0.1110
   25MOL    H99 4947   5.076   3.427   2.213  0.7965  1.2038 -0.3438
   25MOL   H100 4948   5.105   3.286   2.491  0.4357  1.4640  0.0701
   25MOL   H101 4949   5.193   3.237   2.348 -0.7866 -0.1782  0.3285
   25MOL   C102 4950   4.988   3.196   2.343  0.1042  0.0093  0.2669
   25MOL   C103 4951   4.987   3.062   2.415 -0.7686 -0.4141 -0.0147
   25MOL   C104 4952   4.886   3.009   2.486  0.7537 -0.5733  1.1724
   25MOL   C105 4953   4.877   2.875   2.553  0.4056  0.5459 -0.5259
   25MOL   H106 4954   4.899   3.256   2.359 -0.7518 -1.0584 -0.3617
   25MOL   H107 4955   4.992   3.183   2.235  1.2380  2.0453  0.0471
   25MOL   H108 4956   5.060   2.987   2.386 -1.5780 -0.5996 -1.6074
   25MOL   H109 4957   4.809   3.076   2.520  0.9330 -0.4950  1.4312
   25MOL   H110 4958   4.854   2.904   2.656  1.3384 -0.8332  0.1006
   25MOL   H111 4959   4.969   2.816   2.552  1.2612  1.8437 -0.6530
   25MOL   C112 4960   4.756   2.795   2.502 -0.6343 -0.7196 -0.2117
   25MOL   C113 4961   4.623   2.869   2.522 -0.3522  0.3283 -0.0896
   25MOL   C114 4962   4.542   2.912   2.428  0.0553 -0.8681  0.3811
   25MOL   C115 4963   4.419   2.996   2.452 -0.0733  0.5266 -0.3070
   25MOL   H116 4964   4.769   2.773   2.396  0.4443 -2.4736  0.2492
   25MOL   H117 4965   4.756   2.699   2.553  0.1308  0.3320  1.8059
   25MOL   H118 4966   4.610   2.897   2.626 -2.6592 -1.7817  0.2437
   25MOL   H119 4967   4.563   2.893   2.324  1.5234 -0.5702  0.6060
   25MOL   H120 4968   4.407   3.033   2.553  1.4191 -0.8105  0.3814
   25MOL   H121 4969   4.336   2.932   2.420  1.2175 -1.3546  0.0031
   25MOL   C122 4970   4.429   3.127   2.365  0.4921 -0.2793 -0.2023
   25MOL   C123 4971   4.292   3.190   2.356  0.1782  0.5518 -0.3083
   25MOL   C124 4972   4.270   3.315   2.392  0.1817  0.4647  0.7455
   25MOL   C125 4973   4.131   3.380   2.382  0.2578 -0.8749  0.1182
   25MOL   H126 4974   4.501   3.194   2.413  0.3309 -1.9102  2.4502
   25MOL   H127 4975   4.451   3.103   2.261 -1.8859 -0.7667 -0.6289
   25MOL   H128 4976   4.205   3.136   2.319 -0.3146  1.0188  0.1627
   25MOL   H129 4977   4.342   3.387   2.430  0.4008  1.1948 -1.0189
   25MOL   H130 4978   4.108   3.401   2.487  1.3860 -0.1232  0.2174
   25MOL   H131 4979   4.066   3.300   2.346  1.4750 -2.2294  0.8773
   25MOL   C132 4980   4.120   3.502   2.296 -0.2471  0.3968 -0.0580
   25MOL   C133 4981   3.988   3.573   2.325 -0.4199 -0.3832  0.6441
   25MOL   C134 4982   3.985   3.699   2.364  0.0357 -0.6300 -0.9758
   25MOL   C135 4983   3.849   3.765   2.375  0.1790 -0.6128 -0.0856
   25MOL   H136 4984   4.205   3.568   2.312  1.2995 -0.3545 -4.3563
   25MOL   H137 4985   4.127   3.482   2.189 -2.0404 -2.9959  0.3710
   25MOL   H138 4986   3.901   3.511   2.315 -1.2252  0.6514  1.1004
   25MOL   H139 4987   4.070   3.765   2.375  0.6036 -1.8116  2.3220
   25MOL   H140 4988   3.773   3.701   2.331 -0.6814  1.1466 -1.2498
   25MOL   H141 4989   3.838   3.857   2.317 -0.4100 -0.8632 -0.3709
   25MOL   C142 4990   3.818   3.803   2.516 -0.5338 -0.1821  0.0239
   25MOL   C143 4991   3.677   3.860   2.525 -0.1346 -0.3556 -0.1946
   25MOL   C144 4992   3.645   3.981   2.579  0.8006  0.4980  0.4811
   25MOL   C145 4993   3.498   4.032   2.585  0.1207 -0.2687  0.1715
   25MOL   H146 4994   3.806   3.705   2.562 -0.4649  0.1076  0.6726
   25MOL   H147 4995   3.894   3.870   2.556 -0.4623  0.7322 -1.6312
   25MOL   H148 4996   3.602   3.789   2.492  0.3830 -0.1935 -1.7462
   25MOL   H149 4997   3.723   4.051   2.606  0.7002  0.1891  1.6177
   25MOL   H150 4998   3.476   4.053   2.690  1.3160  0.9102  0.1920
   25MOL   H151 4999   3.437   3.944   2.562  0.8654 -1.1381  1.4201
   25MOL   C152 5000   3.468   4.149   2.491  0.4521  0.3951 -0.0775
   25MOL   C153 5001   3.517   4.127   2.348 -0.7954 -0.6123  0.5882
   25MOL   C154 5002   3.447   4.094   2.241 -0.6411  0.1110 -0.1070
   25MOL   C155 5003   3.507   4.097   2.101 -0.0826  0.3751  0.3851
   25MOL   H156 5004   3.361   4.169   2.496  0.1240 -1.5070  1.4545
   25MOL   H157 5005   3.518   4.237   2.532 -1.2447  1.0271  0.6851
   25MOL   H158 5006   3.622   4.144   2.334 -1.5303  0.8913 -3.9158
   25MOL   H159 5007   3.342   4.070   2.246 -0.3542 -1.0943  0.1620
   25MOL   H160 5008   3.484   4.006   2.046 -1.9445  1.1036 -0.0697
   25MOL   H161 5009   3.616   4.095   2.111 -0.1345  3.4186  2.3167
   25MOL   C162 5010   3.462   4.222   2.003  0.8283 -0.3601 -0.3865
   25MOL   C163 5011   3.547   4.218   1.878 -0.3507  0.2437  0.0551
   25MOL   C164 5012   3.502   4.286   1.770  0.2628 -0.1886  0.0989
   25MOL   C165 5013   3.582   4.299   1.646 -0.2978 -0.2249  0.2870
   25MOL   H166 5014   3.356   4.219   1.981  0.1821 -0.1205  2.4738
   25MOL   H167 5015   3.477   4.315   2.058 -0.4761 -0.7625  0.6795
   25MOL   H168 5016   3.643   4.170   1.874 -0.2370  0.4169  0.6677
   25MOL   H169 5017   3.410   4.342   1.777  0.6724  0.2393  2.4701
   25MOL   H170 5018   3.673   4.240   1.659  0.1619  0.6104  0.8935
   25MOL   H171 5019   3.608   4.405   1.650 -1.4237  0.0795 -0.2346
   25MOL   C172 5020   3.502   4.273   1.516 -0.4306 -0.2335 -0.5497
   25MOL   C173 5021   3.566   4.346   1.402  0.1391 -0.4501  0.0619
   25MOL   C174 5022   3.489   4.384   1.297  0.4475  0.3636 -0.5236
   25MOL   C175 5023   3.533   4.460   1.168  0.7741  0.6479  0.0313
   25MOL   H176 5024   3.487   4.166   1.507 -2.1920 -0.0752  0.2460
   25MOL   H177 5025   3.400   4.310   1.517 -0.7159 -1.0143  0.7713
   25MOL   H178 5026   3.673   4.357   1.403  0.2954 -1.5989 -1.3903
   25MOL   H179 5027   3.382   4.368   1.295  0.5035 -0.0143 -0.3798
   25MOL   H180 5028   3.479   4.554   1.172  0.8228  0.6798 -0.0670
   25MOL   H181 5029   3.495   4.407   1.081  1.6369 -0.7827  0.4933
   25MOL   C182 5030   3.686   4.471   1.167 -1.0636  0.2496  0.0946
   25MOL   C183 5031   3.736   4.518   1.033  0.0182  0.0655 -0.6642
   25MOL   C184 5032   3.788   4.439   0.937 -0.5297  1.3453 -0.1022
   25MOL   C185 5033   3.853   4.482   0.809 -0.0303 -0.0833 -0.3403
   25MOL   H186 5034   3.723   4.531   1.250 -2.1371  2.3280 -0.8868
   25MOL   H187 5035   3.729   4.374   1.191  1.5865  1.6678  1.2869
   25MOL   H188 5036   3.738   4.625   1.021  0.2994  0.0890 -0.4145
   25MOL   H189 5037   3.785   4.334   0.960 -1.8720  1.2106 -0.8476
   25MOL   H190 5038   3.958   4.452   0.812 -0.1355 -0.4070  0.1890
   25MOL   H191 5039   3.865   4.586   0.781  0.4706  0.5125  2.0278
   25MOL   C192 5040   3.786   4.423   0.679  0.5858 -0.4601  0.2275
   25MOL   C193 5041   3.639   4.466   0.669  0.1807 -0.0724 -0.9801
   25MOL   C194 5042   3.532   4.403   0.722 -0.4281  0.0345  0.1660
   25MOL   C195 5043   3.391   4.443   0.686 -0.4295 -0.4153 -0.1515
   25MOL   H196 5044   3.840   4.454   0.590  1.3893 -0.4940  0.6969
   25MOL   H197 5045   3.785   4.315   0.694  1.0542 -0.2808  1.7051
   25MOL   H198 5046   3.616   4.551   0.607  0.4418  0.7026 -0.0275
   25MOL   H199 5047   3.544   4.317   0.786 -1.3163 -0.5672 -0.4797
   25MOL   H200 5048   3.338   4.468   0.778 -0.3985 -2.0391  0.3242
   25MOL   H201 5049   3.335   4.367   0.630 -0.3089  0.6291 -1.7076
   25MOL   H202 5050   3.391   4.523   0.613  0.6857  0.3933  0.7083
   26MOL     C1 5051   5.395   7.279   0.296  0.3337  0.2765 -0.0914
   26MOL     C2 5052   5.370   7.368   0.174  0.0693 -0.2339  0.7810
   26MOL     C3 5053   5.397   7.332   0.048  0.7339 -0.0479 -0.0259
   26MOL     C4 5054   5.369   7.417   7.904 -0.7048  0.0985 -0.5260
   26MOL     H5 5055   5.406   7.347   0.380  2.6766  0.2423 -0.3489
   26MOL     H6 5056   5.486   7.219   0.294 -0.8739 -1.6926  1.2013
   26MOL     H7 5057   5.309   7.455   0.191 -1.3556 -1.2298  0.8841
   26MOL     H8 5058   5.449   7.240   0.029  2.7595  1.2351 -0.8006
   26MOL     H9 5059   5.380   7.524   7.919  1.4170 -0.1098 -0.4399
   26MOL    H10 5060   5.266   7.388   7.880 -0.7312 -1.7956  1.6478
   26MOL    H11 5061   5.307   7.223   0.330 -0.4074  1.1597 -0.5475
   26MOL    C12 5062   5.461   7.376   7.789  0.3286 -0.3077 -0.5690
   26MOL    C13 5063   5.398   7.421   7.663  0.0103  0.1969  0.0977
   26MOL    C14 5064   5.370   7.333   7.563 -0.3733 -0.1020  0.3381
   26MOL    C15 5065   5.318   7.366   7.426 -0.2287 -0.2265  0.2205
   26MOL    H16 5066   5.556   7.428   7.803  0.4694 -0.7882  0.3409
   26MOL    H17 5067   5.482   7.269   7.799 -0.4381 -0.3378  1.0042
   26MOL    H18 5068   5.371   7.525   7.656 -1.4878 -0.1420  0.6385
   26MOL    H19 5069   5.411   7.234   7.580 -1.4041 -0.7603 -0.9224
   26MOL    H20 5070   5.387   7.342   7.346  0.8307 -0.0478  1.0603
   26MOL    H21 5071   5.306   7.475   7.422 -0.3297 -0.2589 -0.3710
   26MOL    C22 5072   5.192   7.293   7.384 -0.0854 -0.3684  0.3890
   26MOL    C23 5073   5.134   7.351   7.259  0.0697  0.3412 -0.5353
   26MOL    C24 5074   5.088   7.272   7.160 -0.1859  0.0045 -0.3162
   26MOL    C25 5075   5.015   7.324   7.043 -0.0594 -0.4707  0.1953
   26MOL    H26 5076   5.216   7.189   7.363  0.8558  0.2317 -1.7564
   26MOL    H27 5077   5.121   7.293   7.466 -1.9616  0.5114 -1.1869
   26MOL    H28 5078   5.132   7.459   7.248  0.5724  0.5312  1.0491
   26MOL    H29 5079   5.091   7.164   7.168 -2.0279 -0.1095 -0.8509
   26MOL    H30 5080   4.996   7.429   7.065 -0.2128 -0.6386  0.8673
   26MOL    H31 5081   4.914   7.282   7.048 -0.8574  1.3661 -0.0949
   26MOL    C32 5082   5.085   7.318   6.900  0.5031 -0.9498 -0.4601
   26MOL    C33 5083   5.101   7.185   6.843 -0.0280  0.0411  0.3780
   26MOL    C34 5084   5.206   7.108   6.871 -0.2004 -0.1035 -0.6186
   26MOL    C35 5085   5.231   6.971   6.811  0.4028  0.0344  0.4671
   26MOL    H36 5086   5.013   7.356   6.827  1.1122  0.4096 -0.3704
   26MOL    H37 5087   5.173   7.381   6.889 -2.0594  2.9398  0.3898
   26MOL    H38 5088   5.021   7.153   6.777  0.7652 -0.8869 -0.1458
   26MOL    H39 5089   5.279   7.146   6.942 -0.2048  2.8132 -2.0782
   26MOL    H40 5090   5.316   6.981   6.743  0.5767 -0.7957  0.5571
   26MOL    H41 5091   5.150   6.946   6.743  0.8199 -1.1088  0.3874
   26MOL    C42 5092   5.268   6.862   6.916  0.0229  0.4718 -0.5576
   26MOL    C43 5093   5.392   6.898   6.996  0.1652 -0.1655 -0.3927
   26MOL    C44 5094   5.393   6.982   7.107 -0.7066 -0.2624 -0.0854
   26MOL    C45 5095   5.512   7.010   7.201  0.8562 -0.1491  0.0535
   26MOL    H46 5096   5.197   6.836   6.994 -0.7399 -1.6246 -1.9077
   26MOL    H47 5097   5.286   6.764   6.872  1.8232  0.8422 -0.7085
   26MOL    H48 5098   5.480   6.839   6.972 -0.2620 -0.4657 -1.2118
   26MOL    H49 5099   5.300   7.032   7.128  0.3565  2.0861 -0.8543
   26MOL    H50 5100   5.533   7.117   7.192  0.4955  0.1024  1.9318
   26MOL    H51 5101   5.601   6.964   7.158  0.9644 -0.3128  0.4538
   26MOL    C52 5102   5.495   6.985   7.346 -0.0104 -0.4408  0.1833
   26MOL    C53 5103   5.580   7.088   7.424  0.3739  0.0415  0.4097
   26MOL    C54 5104   5.678   7.053   7.506 -0.2018  0.8659  0.2599
   26MOL    C55 5105   5.768   7.142   7.590  0.2573  0.2288 -0.4698
   26MOL    H56 5106   5.391   6.997   7.374  0.4098 -0.6113  1.8926
   26MOL    H57 5107   5.518   6.881   7.368  2.2278  0.1241  0.6995
   26MOL    H58 5108   5.561   7.194   7.412 -0.5738 -0.4314 -2.7959
   26MOL    H59 5109   5.695   6.948   7.525 -0.1721  0.3040 -2.7089
   26MOL    H60 5110   5.759   7.247   7.562 -0.6948  0.1611 -0.4272
   26MOL    H61 5111   5.871   7.127   7.557 -0.6547 -1.1039 -2.8384
   26MOL    C62 5112   5.751   7.116   7.740  0.0331 -0.2440 -0.2291
   26MOL    C63 5113   5.817   7.214   7.834  0.2723  0.2327  0.0544
   26MOL    C64 5114   5.937   7.190   7.895 -0.4666  0.0212  0.4109
   26MOL    C65 5115   6.009   7.288   0.016 -0.6924  0.1352 -0.4850
   26MOL    H66 5116   5.645   7.113   7.766 -0.0760 -1.7857 -0.8058
   26MOL    H67 5117   5.789   7.015   7.755  0.8473  0.0605 -0.2382
   26MOL    H68 5118   5.778   7.315   7.830  4.3053  1.9825  1.8624
   26MOL    H69 5119   5.988   7.095   7.886 -0.2790  0.1133  0.4956
   26MOL    H70 5120   6.104   7.241   0.043 -0.9907  0.2268  0.7275
   26MOL    H71 5121   5.960   7.294   0.113  0.5639  0.6310  0.1328
   26MOL    C72 5122   6.037   7.431   7.938  0.5491 -0.8964  0.3289
   26MOL    C73 5123   6.128   7.505   0.060  0.1902 -0.4740  0.0456
   26MOL    C74 5124   6.246   7.550   0.020  1.2645 -0.0183  0.0043
   26MOL    C75 5125   6.352   7.612   0.105  0.1891  0.0632 -0.2322
   26MOL    H76 5126   6.078   7.435   7.837 -0.7539 -1.4815 -0.2368
   26MOL    H77 5127   5.937   7.472   7.932  0.2956 -1.4569  0.6292
   26MOL    H78 5128   6.100   7.512   0.165 -1.7862  3.4137 -0.6283
   26MOL    H79 5129   6.262   7.529   7.892 -0.1965 -0.8423 -0.0628
   26MOL    H80 5130   6.415   7.533   0.146 -1.0543 -1.0018 -0.3557
   26MOL    H81 5131   6.315   7.654   0.198 -0.2584 -0.6074 -0.1067
   26MOL    C82 5132   6.428   7.719   0.026 -0.0448  0.0053  0.6153
   26MOL    C83 5133   6.552   7.758   0.103  0.2498 -0.2545 -0.8044
   26MOL    C84 5134   6.560   7.865   0.181 -0.0222 -0.2699  0.0636
   26MOL    C85 5135   6.681   7.930   0.246 -0.2469 -0.4584 -0.1354
   26MOL    H86 5136   6.458   7.697   7.901  0.9879  3.3587  0.1220
   26MOL    H87 5137   6.373   7.810   0.001  0.1586 -0.1193 -0.2984
   26MOL    H88 5138   6.647   7.715   0.076  1.5256  0.2815  2.5743
   26MOL    H89 5139   6.466   7.916   0.197  1.0052  2.5251 -2.2649
   26MOL    H90 5140   6.739   7.863   0.309 -2.9187 -0.5712  2.2844
   26MOL    H91 5141   6.647   0.029   0.316 -2.5392 -0.0212 -1.6810
   26MOL    C92 5142   6.787   0.003   0.141  0.0293  0.2675 -0.1268
   26MOL    C93 5143   6.874   0.119   0.184 -0.1236  0.0207 -0.3815
   26MOL    C94 5144   7.005   0.111   0.212 -0.4541  0.0467  0.5541
   26MOL    C95 5145   7.091   0.231   0.250  0.2266 -0.3241  0.1186
   26MOL    H96 5146   6.853   7.904   0.098  0.4122  0.5972 -0.1250
   26MOL    H97 5147   6.728   0.050   0.062 -1.2889 -0.4917  0.3863
   26MOL    H98 5148   6.818   0.208   0.206  1.1662  1.1509 -1.5662
   26MOL    H99 5149   7.057   0.017   0.208  0.1607  0.1964  4.0283
   26MOL   H100 5150   7.133   0.218   0.350  1.1673 -0.5419 -0.3046
   26MOL   H101 5151   7.036   0.324   0.269  1.3585  0.1022  1.4075
   26MOL   C102 5152   7.217   0.248   0.158 -0.2392  0.3117 -0.4639
   26MOL   C103 5153   7.303   0.357   0.199  0.2802 -0.0343 -0.8871
   26MOL   C104 5154   7.338   0.463   0.127 -0.0082 -0.0541 -0.1464
   26MOL   C105 5155   7.444   0.561   0.170 -0.0864 -0.1502 -0.0730
   26MOL   H106 5156   7.273   0.155   0.162 -3.5218 -1.7929 -0.9535
   26MOL   H107 5157   7.195   0.273   0.054  3.9308 -1.5611 -1.9108
   26MOL   H108 5158   7.343   0.338   0.298 -0.4893 -2.8604 -1.0630
   26MOL   H109 5159   7.291   0.484   0.032 -0.2947  0.4630  0.1079
   26MOL   H110 5160   7.546   0.526   0.157  0.1412  0.1533  0.8588
   26MOL   H111 5161   7.434   0.560   0.279  0.5194 -0.9031 -0.0232
   26MOL   C112 5162   7.424   0.696   0.117  0.0056  0.5797  0.0077
   26MOL   C113 5163   7.528   0.787   0.171  0.0290 -0.6514  0.0893
   26MOL   C114 5164   7.605   0.869   0.099  0.2739 -0.0221 -0.1710
   26MOL   C115 5165   7.726   0.940   0.147  0.7894  0.2843  0.4330
   26MOL   H116 5166   7.424   0.685   0.008 -1.4686  1.7932 -0.1284
   26MOL   H117 5167   7.328   0.737   0.148  0.1531  0.2357  0.9323
   26MOL   H118 5168   7.549   0.777   0.276  0.3349 -1.2237 -0.0231
   26MOL   H119 5169   7.591   0.883   7.970  1.0412  2.7502  0.0356
   26MOL   H120 5170   7.771   0.884   0.230  2.0705  1.4029  0.5154
   26MOL   H121 5171   7.690   1.036   0.183 -0.8248 -0.4337  0.7436
   26MOL   C122 5172   7.841   0.973   0.046 -0.5521  0.2237 -0.0682
   26MOL   C123 5173   7.950   1.066   0.117  0.3565  0.5167  0.2096
   26MOL   C124 5174   0.013   1.187   0.074  1.1757  0.5215  0.2624
   26MOL   C125 5175   0.111   1.278   0.144 -0.4988 -0.4541 -0.7637
   26MOL   H126 5176   7.893   0.880   0.020  3.2418  1.8437  1.3453
   26MOL   H127 5177   7.795   1.021   7.936 -0.1775 -0.9294 -0.9230
   26MOL   H128 5178   0.008   1.031   0.214  1.1370 -2.1822 -1.0116
   26MOL   H129 5179   7.948   1.223   7.958  0.0390 -0.0925  0.5314
   26MOL   H130 5180   0.147   1.246   0.242  0.5671 -0.0009 -1.0032
   26MOL   H131 5181   0.050   1.367   0.156 -0.7252 -0.5618 -1.1269
   26MOL   C132 5182   0.242   1.285   0.063 -0.3384 -0.0254  0.1056
   26MOL   C133 5183   0.298   1.422   0.080 -0.3678  0.0250 -0.7393
   26MOL   C134 5184   0.306   1.507   7.955  0.3560  0.2666  0.2804
   26MOL   C135 5185   0.352   1.654   7.959  0.6604  0.9831  0.5238
   26MOL   H136 5186   0.320   1.214   0.093 -0.8530 -1.7127 -2.3640
   26MOL   H137 5187   0.217   1.267   7.935 -0.1995  0.4615 -0.0115
   26MOL   H138 5188   0.316   1.458   0.180  0.3593 -1.6630 -0.2381
   26MOL   H139 5189   0.280   1.479   7.854  0.1279  0.5999  0.2442
   26MOL   H140 5190   0.397   1.671   0.080  1.8742 -3.8251  0.9377
   26MOL   H141 5191   0.265   1.721   7.956 -0.8205 -0.8859  0.5797
   26MOL   C142 5192   0.466   1.689   7.861  0.3424  0.2764 -0.0407
   26MOL   C143 5193   0.473   1.841   7.851  0.0516  1.3347 -0.4389
   26MOL   C144 5194   0.446   1.913   7.745 -0.1395 -0.5213 -0.0168
   26MOL   C145 5195   0.459   2.068   7.738  0.2748  0.1133  0.2079
   26MOL   H146 5196   0.562   1.651   7.896 -0.1085  0.0554  0.9727
   26MOL   H147 5197   0.440   1.643   7.765  1.0915 -1.6317  0.6385
   26MOL   H148 5198   0.499   1.887   7.945 -2.5080  0.4080  0.7863
   26MOL   H149 5199   0.422   1.865   7.651  0.7345 -0.2700 -0.3720
   26MOL   H150 5200   0.471   2.119   7.833  0.8176  1.7226 -0.6857
   26MOL   H151 5201   0.367   2.091   7.684  0.3054 -1.0967 -0.3813
   26MOL   C152 5202   0.579   2.095   7.654  0.7617 -0.0560  0.1981
   26MOL   C153 5203   0.712   2.023   7.704  0.3622  0.0851 -0.0082
   26MOL   C154 5204   0.778   1.935   7.625  0.4689 -0.1590  0.4784
   26MOL   C155 5205   0.906   1.875   7.667 -0.2450  0.6156  0.2573
   26MOL   H156 5206   0.553   2.078   7.550 -0.9135 -0.8008  0.7183
   26MOL   H157 5207   0.596   2.202   7.662  1.6701 -0.2585  1.2590
   26MOL   H158 5208   0.748   2.054   7.801 -0.2788 -1.8185  0.8626
   26MOL   H159 5209   0.744   1.915   7.524  1.0048  1.7667 -0.1010
   26MOL   H160 5210   0.919   1.879   7.776  2.1419 -0.7423  0.0648
   26MOL   H161 5211   0.987   1.923   7.612 -0.5767  1.2965  0.3667
   26MOL   C162 5212   0.924   1.728   7.633 -0.5950  0.0068 -0.0405
   26MOL   C163 5213   0.806   1.641   7.676 -0.1090 -0.3390  0.2330
   26MOL   C164 5214   0.826   1.515   7.716  0.4060  0.0484 -0.2886
   26MOL   C165 5215   0.715   1.423   7.757  0.1143  0.8654 -0.4041
   26MOL   H166 5216   0.924   1.729   7.524  0.8271 -0.4907 -0.0437
   26MOL   H167 5217   1.020   1.686   7.660  1.1711  1.5434 -3.6144
   26MOL   H168 5218   0.705   1.678   7.673 -0.2050 -0.4765  1.5897
   26MOL   H169 5219   0.923   1.469   7.726  0.7281  0.7431 -0.1717
   26MOL   H170 5220   0.677   1.357   7.680 -1.6968  0.0488  1.1598
   26MOL   H171 5221   0.628   1.485   7.779  1.9397  2.8003  1.7338
   26MOL   C172 5222   0.757   1.344   7.880  0.0450 -0.4328  0.2437
   26MOL   C173 5223   0.650   1.240   7.912 -0.6913  0.6704 -0.2691
   26MOL   C174 5224   0.669   1.107   7.923 -0.1221 -0.6451  0.3955
   26MOL   C175 5225   0.574   0.997   7.935 -0.3790 -0.5539 -0.4584
   26MOL   H176 5226   0.849   1.290   7.855  1.7888  1.9867  1.2148
   26MOL   H177 5227   0.773   1.406   7.968  2.2126  0.1785 -0.5504
   26MOL   H178 5228   0.547   1.273   7.912 -2.2744 -3.8792 -2.9713
   26MOL   H179 5229   0.774   1.082   7.930  0.3103  1.0515  0.0378
   26MOL   H180 5230   0.475   1.043   7.938 -0.1734 -0.2280  2.8817
   26MOL   H181 5231   0.597   0.952   0.054  0.3771  2.4814  0.8349
   26MOL   C182 5232   0.560   0.903   7.810  0.2735 -0.4745 -0.2138
   26MOL   C183 5233   0.462   0.792   7.836 -0.1025  0.2576 -0.2578
   26MOL   C184 5234   0.339   0.794   7.788 -0.2219 -0.1129  0.3969
   26MOL   C185 5235   0.242   0.681   7.805  0.5100 -0.2632 -0.7474
   26MOL   H186 5236   0.529   0.964   7.725  1.8343 -1.1080 -1.2805
   26MOL   H187 5237   0.659   0.858   7.794  1.6385  2.2095  0.4967
   26MOL   H188 5238   0.496   0.712   7.900 -2.2204  0.3849  1.0881
   26MOL   H189 5239   0.298   0.880   7.739  0.1585 -0.9893 -1.5000
   26MOL   H190 5240   0.305   0.596   7.833 -1.2285 -1.2288  0.2966
   26MOL   H191 5241   0.195   0.656   7.710 -1.2328  0.6097 -0.1198
   26MOL   C192 5242   0.139   0.707   7.917  0.4572 -0.3259  0.5933
   26MOL   C193 5243   0.061   0.587   7.960 -0.5684 -0.2529  0.0373
   26MOL   C194 5244   7.911   0.558   7.920  0.5711 -0.5665  0.2269
   26MOL   C195 5245   7.836   0.436   7.967 -0.4889 -0.2615  0.0449
   26MOL   H196 5246   0.194   0.750   0.024  1.9162 -0.1117 -0.4564
   26MOL   H197 5247   0.070   0.784   7.881 -2.5897 -2.9653  0.5618
   26MOL   H198 5248   0.105   0.527   0.062 -0.6067  0.2989  0.4839
   26MOL   H199 5249   7.859   0.623   7.852 -0.6158 -0.0333  1.6294
   26MOL   H200 5250   7.877   0.396   0.082  1.7400 -0.1132 -0.8579
   26MOL   H201 5251   7.836   0.364   7.885  0.2683 -0.2111  0.0024
   26MOL   H202 5252   7.731   0.461   0.006 -0.7535 -1.8807  0.9439
   27MOL     C1 5253   2.982   0.123   5.018  0.0069 -0.5124  0.2213
   27MOL     C2 5254   2.865   0.080   5.104 -0.6741 -0.0998  0.3460
   27MOL     C3 5255   2.737   0.127   5.096  0.4565  0.6494  0.5767
   27MOL     C4 5256   2.617   0.108   5.189  0.5506  0.2254  0.4733
   27MOL     H5 5257   3.025   0.038   4.965  2.0242  0.0062  0.9994
   27MOL     H6 5258   3.060   0.171   5.077  0.0046 -0.4423  0.1673
   27MOL     H7 5259   2.892   0.004   5.176  0.8864  0.2007  0.0951
   27MOL     H8 5260   2.720   0.202   5.020 -0.9127 -0.9593 -0.7498
   27MOL     H9 5261   2.615   0.178   5.273  0.2292  0.2449  0.4517
   27MOL    H10 5262   2.620   0.004   5.223 -1.0067 -0.1989 -0.6326
   27MOL    H11 5263   2.948   0.202   4.951  1.5438  0.5000  0.6162
   27MOL    C12 5264   2.482   0.122   5.103 -0.0850  0.0427  0.1756
   27MOL    C13 5265   2.358   0.090   5.178 -0.2348 -0.1652 -0.2161
   27MOL    C14 5266   2.275   7.967   5.150  0.0970 -0.5536  0.5093
   27MOL    C15 5267   2.158   7.927   5.240  0.5251 -0.7041  0.9137
   27MOL    H16 5268   2.472   0.226   5.071 -0.2711 -0.6569 -2.1638
   27MOL    H17 5269   2.488   0.064   5.011  0.3127  0.2941  0.0397
   27MOL    H18 5270   2.332   0.149   5.265 -0.3808 -1.9079  0.9453
   27MOL    H19 5271   2.296   7.911   5.060  0.9995  3.1286 -1.6624
   27MOL    H20 5272   2.147   0.018   5.325 -0.1955  0.0373  0.2362
   27MOL    H21 5273   2.189   7.833   5.285 -0.3934 -0.7761  1.4017
   27MOL    C22 5274   2.031   7.894   5.156  0.4151 -0.1104  0.1623
   27MOL    C23 5275   1.972   0.023   5.075 -0.5996 -0.7564  0.6662
   27MOL    C24 5276   1.948   0.152   5.101 -0.3390 -0.6619 -0.4158
   27MOL    C25 5277   1.888   0.251   5.011  0.4340  0.3111  0.7040
   27MOL    H26 5278   2.046   7.800   5.102  2.5818 -0.9481  2.1285
   27MOL    H27 5279   1.962   7.863   5.234  1.0091 -1.2623  0.2467
   27MOL    H28 5280   1.937   7.963   4.980  1.1484  2.8010 -1.4241
   27MOL    H29 5281   1.991   0.195   5.190 -2.0893  0.3368 -0.0174
   27MOL    H30 5282   1.794   0.290   5.049  0.6482  1.0926  0.4627
   27MOL    H31 5283   1.844   0.205   4.923  2.8361  2.3427 -1.6678
   27MOL    C32 5284   1.980   0.374   4.962 -0.6274  0.6933 -0.1327
   27MOL    C33 5285   2.100   0.336   4.881 -0.1028 -0.2016 -0.1663
   27MOL    C34 5286   2.139   0.409   4.776 -0.7234  0.4524 -0.1936
   27MOL    C35 5287   2.275   0.387   4.709 -0.4180 -0.5012  0.6328
   27MOL    H36 5288   1.917   0.441   4.903  1.7875  1.5273 -1.7914
   27MOL    H37 5289   2.006   0.433   5.050 -1.6382 -0.6137  1.0662
   27MOL    H38 5290   2.150   0.247   4.917 -1.5021 -0.7579  0.4443
   27MOL    H39 5291   2.090   0.504   4.764 -0.3925  0.4870 -1.3277
   27MOL    H40 5292   2.268   0.320   4.622  0.6643  0.0614  0.1046
   27MOL    H41 5293   2.335   0.323   4.773 -0.2766  0.2437  1.2391
   27MOL    C42 5294   2.347   0.519   4.669  0.3253 -0.3472  0.2061
   27MOL    C43 5295   2.489   0.502   4.598 -0.0911  0.3476 -0.2176
   27MOL    C44 5296   2.550   0.380   4.588 -0.7285 -0.4601  0.0024
   27MOL    C45 5297   2.683   0.350   4.527 -0.1982  0.1177  0.0496
   27MOL    H46 5298   2.296   0.579   4.594 -0.4823  0.1409  1.1268
   27MOL    H47 5299   2.351   0.569   4.766 -2.9122 -0.6750  0.5753
   27MOL    H48 5300   2.529   0.593   4.556 -0.2084  0.2179 -0.6109
   27MOL    H49 5301   2.505   0.293   4.632 -0.3401  0.0382  1.4221
   27MOL    H50 5302   2.714   0.435   4.466  0.2634 -0.9762 -1.2487
   27MOL    H51 5303   2.668   0.264   4.462  2.5428 -0.4921  0.1601
   27MOL    C52 5304   2.796   0.319   4.621 -0.7053  0.7489 -0.0642
   27MOL    C53 5305   2.922   0.274   4.549  0.0619 -0.1339 -0.0756
   27MOL    C54 5306   3.002   0.170   4.580  0.4384  0.0730  0.1485
   27MOL    C55 5307   3.125   0.139   4.499  0.0338  0.7499  0.0715
   27MOL    H56 5308   2.811   0.409   4.680 -0.2078  0.6833 -0.0836
   27MOL    H57 5309   2.752   0.235   4.676 -0.6407 -0.7435 -2.2333
   27MOL    H58 5310   2.955   0.326   4.460  0.7048 -2.4225 -1.1902
   27MOL    H59 5311   2.990   0.123   4.676 -0.6912  1.8389  0.8980
   27MOL    H60 5312   3.215   0.163   4.556 -0.4165  1.4625  0.4945
   27MOL    H61 5313   3.126   0.195   4.405 -2.0928 -2.3705 -1.9224
   27MOL    C62 5314   3.141   7.962   4.459  0.1101  0.2824  0.1288
   27MOL    C63 5315   3.260   7.956   4.368 -0.2024 -0.1366  0.1329
   27MOL    C64 5316   3.250   7.942   4.239  0.3877 -0.0553  0.6483
   27MOL    C65 5317   3.362   7.943   4.140  0.2453 -0.1383 -0.4151
   27MOL    H66 5318   3.151   7.900   4.548 -0.1093  1.1532  0.7722
   27MOL    H67 5319   3.055   7.919   4.408 -0.4347  2.8423 -1.1923
   27MOL    H68 5320   3.357   0.008   4.407  0.5212  0.7435 -2.2280
   27MOL    H69 5321   3.152   7.928   4.197  1.0371 -0.2595 -0.8488
   27MOL    H70 5322   3.454   7.925   4.194 -0.5077 -2.1239  0.2688
   27MOL    H71 5323   3.349   0.069   4.106  1.2829  0.1246 -0.0343
   27MOL    C72 5324   3.328   7.843   4.030 -0.3808 -0.1502 -1.1900
   27MOL    C73 5325   3.425   7.865   3.918 -0.4499 -0.8241  0.1189
   27MOL    C74 5326   3.395   7.922   3.802  0.5981  0.0614  0.0876
   27MOL    C75 5327   3.487   7.934   3.682  0.4868 -0.3871  0.2864
   27MOL    H76 5328   3.348   7.744   4.070 -0.4228  0.4995  0.4829
   27MOL    H77 5329   3.230   7.858   3.986  0.3493  2.7494 -1.9384
   27MOL    H78 5330   3.523   7.824   3.935 -0.4363 -0.7380  0.2480
   27MOL    H79 5331   3.293   7.952   3.784  0.7463  0.5112 -0.0130
   27MOL    H80 5332   3.587   7.901   3.710  0.8386  1.6473  1.5655
   27MOL    H81 5333   3.490   0.063   3.658  1.0060 -0.4186  0.1956
   27MOL    C82 5334   3.441   7.854   3.565 -0.7334 -0.3119  0.3596
   27MOL    C83 5335   3.534   7.855   3.450 -0.2810  0.0739 -0.1335
   27MOL    C84 5336   3.500   7.882   3.319  0.0303 -0.2818 -0.1908
   27MOL    C85 5337   3.588   7.861   3.199 -0.1163 -0.5992 -0.8667
   27MOL    H86 5338   3.433   7.749   3.591  3.4103 -0.7238  0.2904
   27MOL    H87 5339   3.339   7.879   3.536 -0.2174  0.7204 -0.6366
   27MOL    H88 5340   3.635   7.826   3.473 -0.0733  0.8941  0.0145
   27MOL    H89 5341   3.404   7.922   3.291  0.3406  1.0777  0.6558
   27MOL    H90 5342   3.540   7.789   3.133  2.2206 -1.5478 -1.6085
   27MOL    H91 5343   3.677   7.807   3.234 -0.3844 -0.8833 -0.6180
   27MOL    C92 5344   3.629   0.013   3.130  0.1397 -0.3087  0.1223
   27MOL    C93 5345   3.725   7.952   3.023  0.2410  0.3437  0.2041
   27MOL    C94 5346   3.820   0.064   2.995 -0.2674 -1.0090 -0.3757
   27MOL    C95 5347   3.919   0.042   2.883 -0.1661 -1.1029  0.4808
   27MOL    H96 5348   3.543   0.064   3.088  0.2918  0.1588  0.3770
   27MOL    H97 5349   3.681   0.070   3.208  1.9383 -1.0393 -0.5164
   27MOL    H98 5350   3.717   7.858   2.971 -0.0939  0.4331  0.0900
   27MOL    H99 5351   3.829   0.156   3.050  2.5211 -0.7454 -1.1914
   27MOL   H100 5352   3.904   7.921   2.840  0.6965 -0.4125 -1.4341
   27MOL   H101 5353   4.020   0.052   2.921  0.9436 -2.5907 -1.9880
   27MOL   C102 5354   3.907   0.153   2.774  0.4342  0.1390 -0.0003
   27MOL   C103 5355   3.887   0.100   2.637  0.5190 -0.6179 -0.2311
   27MOL   C104 5356   3.767   0.113   2.575  0.4484  0.4319 -0.2294
   27MOL   C105 5357   3.734   0.053   2.439  0.5689 -0.1198  0.4363
   27MOL   H106 5358   3.824   0.219   2.801  0.3870  0.7364 -1.4949
   27MOL   H107 5359   3.989   0.225   2.772  0.8664 -0.2874  1.5347
   27MOL   H108 5360   3.972   0.057   2.587  1.6301  1.8686 -0.5344
   27MOL   H109 5361   3.687   0.159   2.631 -0.4937 -0.5155 -0.7812
   27MOL   H110 5362   3.822   0.019   2.384  3.3593  3.6325  2.3532
   27MOL   H111 5363   3.694   0.134   2.379  1.6793  0.1362  0.0153
   27MOL   C112 5364   3.634   7.910   2.460  0.1102 -0.2634  0.2316
   27MOL   C113 5365   3.507   7.926   2.539  0.1370 -0.3604 -0.1045
   27MOL   C114 5366   3.486   7.846   2.645 -0.0494  0.0412  0.1544
   27MOL   C115 5367   3.363   7.836   2.733  0.6982  0.4926  0.6878
   27MOL   H116 5368   3.602   7.869   2.364  1.5074  1.0213 -0.7927
   27MOL   H117 5369   3.690   7.834   2.513 -0.9583 -1.2539 -0.0253
   27MOL   H118 5370   3.431   0.019   2.506  0.6660 -0.1518 -0.8763
   27MOL   H119 5371   3.551   7.766   2.677  0.4173  0.4176  0.1523
   27MOL   H120 5372   3.307   7.745   2.710 -0.3981  1.6999 -1.6900
   27MOL   H121 5373   3.303   7.924   2.709 -1.0985 -1.3513 -1.8041
   27MOL   C122 5374   3.403   7.842   2.877  0.3332  0.0935 -0.0086
   27MOL   C123 5375   3.283   7.827   2.965 -0.6876  0.0056 -0.6066
   27MOL   C124 5376   3.274   7.748   3.076 -0.0038  0.2496  0.0407
   27MOL   C125 5377   3.148   7.724   3.147 -0.8234 -0.2298 -0.2903
   27MOL   H126 5378   3.465   7.754   2.897  0.0686  0.0842  0.7702
   27MOL   H127 5379   3.454   7.932   2.911  1.3272  0.1166 -1.5249
   27MOL   H128 5380   3.200   7.887   2.932 -0.6165 -0.0147 -0.8165
   27MOL   H129 5381   3.354   7.694   3.125 -0.1866  0.1001  0.1760
   27MOL   H130 5382   3.073   7.800   3.122  1.0429  1.2549 -1.5507
   27MOL   H131 5383   3.174   7.729   3.252  1.5369  1.4003 -0.9133
   27MOL   C132 5384   3.073   7.588   3.122 -0.2094 -0.1220 -0.5626
   27MOL   C133 5385   3.045   7.557   2.978 -0.0437  0.0889 -0.0219
   27MOL   C134 5386   3.047   7.439   2.920 -0.7714 -0.3208 -0.2687
   27MOL   C135 5387   3.049   7.407   2.774 -0.7206 -0.6778  0.3704
   27MOL   H136 5388   3.123   7.501   3.166  0.6474  0.5582 -0.1582
   27MOL   H137 5389   2.975   7.587   3.168 -0.4815  0.9357 -1.0962
   27MOL   H138 5390   3.032   7.644   2.916 -1.4702 -0.6904 -0.8346
   27MOL   H139 5391   3.062   7.359   2.991  2.0112  1.3730  1.1194
   27MOL   H140 5392   3.032   7.503   2.725 -0.2046 -1.3576 -1.1698
   27MOL   H141 5393   2.961   7.345   2.757  2.1023 -4.3687 -1.3802
   27MOL   C142 5394   3.159   7.307   2.737  0.1256 -0.2966  0.3168
   27MOL   C143 5395   3.299   7.371   2.730 -1.3227  0.4954 -0.7138
   27MOL   C144 5396   3.361   7.384   2.620  0.3775  0.5767 -0.0835
   27MOL   C145 5397   3.483   7.475   2.614  0.4375 -0.8067  0.1114
   27MOL   H146 5398   3.164   7.222   2.806 -0.0792 -1.4969 -1.1176
   27MOL   H147 5399   3.146   7.268   2.636 -1.2224 -0.5985  0.5888
   27MOL   H148 5400   3.331   7.410   2.825  1.1431 -1.3935 -0.7324
   27MOL   H149 5401   3.330   7.347   2.524  0.9147  0.9627 -0.4078
   27MOL   H150 5402   3.481   7.528   2.709 -1.7269  1.5686 -1.2042
   27MOL   H151 5403   3.470   7.547   2.534  0.7531  0.1701  0.9291
   27MOL   C152 5404   3.614   7.400   2.594 -0.4830 -0.2973  0.2725
   27MOL   C153 5405   3.661   7.336   2.725 -0.2000  0.2100 -0.0212
   27MOL   C154 5406   3.733   7.220   2.742 -0.3924 -0.6284 -0.7282
   27MOL   C155 5407   3.769   7.172   2.881 -0.5306  0.6259  0.1562
   27MOL   H156 5408   3.611   7.324   2.515 -0.0952 -0.2673  0.2314
   27MOL   H157 5409   3.694   7.469   2.568 -1.3578  0.5994 -0.0599
   27MOL   H158 5410   3.641   7.379   2.822  1.9773  1.2252  0.0076
   27MOL   H159 5411   3.765   7.158   2.660  0.8094 -0.6482 -0.2525
   27MOL   H160 5412   3.727   7.073   2.900 -0.0288  0.4281  0.2451
   27MOL   H161 5413   3.717   7.233   2.955 -3.1508 -0.3204 -0.8128
   27MOL   C162 5414   3.922   7.164   2.911 -0.4939 -0.5500  0.1546
   27MOL   C163 5415   3.948   7.099   3.049 -0.5135  0.9821  0.6160
   27MOL   C164 5416   4.053   7.021   3.066  0.2616  0.1579 -0.4340
   27MOL   C165 5417   4.089   6.958   3.199  0.2048 -0.3133 -0.4038
   27MOL   H166 5418   3.974   7.111   2.831  0.2390  0.6534 -0.1750
   27MOL   H167 5419   3.967   7.263   2.916 -2.3263  0.3667 -1.0260
   27MOL   H168 5420   3.876   7.111   3.128 -2.5593 -1.0111 -0.8872
   27MOL   H169 5421   4.124   7.010   2.985  2.1639 -2.2212  1.4467
   27MOL   H170 5422   4.020   6.980   3.280  0.6914 -1.0899  0.2409
   27MOL   H171 5423   4.181   7.001   3.240  0.9685 -1.1373 -1.2026
   27MOL   C172 5424   4.121   6.806   3.193 -0.0735  0.5540 -0.3242
   27MOL   C173 5425   4.156   6.741   3.325  0.4758  0.7175  0.0429
   27MOL   C174 5426   4.269   6.681   3.360  0.1690  0.0205  0.3684
   27MOL   C175 5427   4.283   6.606   3.491 -0.4479 -0.1969 -0.1553
   27MOL   H176 5428   4.036   6.744   3.163  0.0949 -0.9662  2.1778
   27MOL   H177 5429   4.186   6.768   3.114 -1.7008 -1.4204 -0.7505
   27MOL   H178 5430   4.071   6.747   3.391 -0.8867 -2.5200 -1.3541
   27MOL   H179 5431   4.345   6.675   3.284  0.2209  0.6542  0.3607
   27MOL   H180 5432   4.293   6.502   3.459 -0.7540  0.5800 -2.9114
   27MOL   H181 5433   4.193   6.611   3.551 -2.0932  1.1689 -2.6240
   27MOL   C182 5434   4.404   6.652   3.576 -0.0906 -0.5397 -0.7263
   27MOL   C183 5435   4.391   6.618   3.725 -0.2619  0.1966 -0.0446
   27MOL   C184 5436   4.474   6.537   3.791  0.0312 -0.3706 -0.4708
   27MOL   C185 5437   4.440   6.489   3.927 -0.2454  0.3588  0.6160
   27MOL   H186 5438   4.500   6.621   3.533  0.2873 -0.1049 -0.2027
   27MOL   H187 5439   4.408   6.760   3.560  0.3062 -0.2182  1.4886
   27MOL   H188 5440   4.300   6.660   3.766  1.3405  2.4708  1.2769
   27MOL   H189 5441   4.561   6.495   3.743  0.4400 -0.3025  0.2095
   27MOL   H190 5442   4.441   6.380   3.921 -0.4062  0.1931  2.9503
   27MOL   H191 5443   4.340   6.521   3.955 -1.2289 -2.5577  0.6657
   27MOL   C192 5444   4.529   6.550   4.040 -0.2020 -0.1114 -0.3781
   27MOL   C193 5445   4.525   6.701   4.052  0.4484 -0.0822 -0.0637
   27MOL   C194 5446   4.626   6.779   4.082 -0.1289 -0.0579  0.2975
   27MOL   C195 5447   4.629   6.930   4.070  0.5676 -0.0723  0.0491
   27MOL   H196 5448   4.486   6.509   4.131 -0.4199 -0.6258 -0.7128
   27MOL   H197 5449   4.633   6.520   4.029 -0.2937 -0.8548  0.7807
   27MOL   H198 5450   4.433   6.755   4.030 -0.2642 -0.7790  1.1537
   27MOL   H199 5451   4.707   6.721   4.123 -1.0216  1.0142  3.7066
   27MOL   H200 5452   4.664   6.983   4.159 -0.2536  0.3976  0.0954
   27MOL   H201 5453   4.531   6.969   4.043  0.1435 -1.3163 -0.2538
   27MOL   H202 5454   4.692   6.959   3.986 -0.7757 -2.7486 -1.9425
   28MOL     C1 5455   7.297   5.822   5.521  0.5709  0.0549 -0.0279
   28MOL     C2 5456   7.432   5.883   5.488  0.2702 -0.1368  0.3564
   28MOL     C3 5457   7.545   5.813   5.527 -0.4539 -0.0712  0.0253
   28MOL     C4 5458   7.681   5.865   5.498  0.5223  0.3742 -0.6409
   28MOL     H5 5459   7.295   5.740   5.594 -2.1606 -0.2951 -0.4154
   28MOL     H6 5460   7.252   5.783   5.430  0.4520  0.8061 -0.2976
   28MOL     H7 5461   7.450   5.966   5.422 -1.7118  1.7402  2.1039
   28MOL     H8 5462   7.543   5.730   5.596 -2.6934 -1.4847 -1.6562
   28MOL     H9 5463   7.677   5.951   5.432 -0.1795  1.6978  1.0863
   28MOL    H10 5464   7.720   5.782   5.438 -1.9536  0.1936 -2.0869
   28MOL    H11 5465   7.230   5.899   5.560  1.3837  1.2214 -0.9198
   28MOL    C12 5466   7.759   5.885   5.633 -0.2226  0.1869  0.0289
   28MOL    C13 5467   7.883   5.966   5.638  1.1379 -0.5461  0.4838
   28MOL    C14 5468   7.966   5.975   5.533  0.3713  0.1003 -0.3157
   28MOL    C15 5469   0.115   6.062   5.539 -0.5257  0.4940 -0.2280
   28MOL    H16 5470   7.690   5.914   5.712  1.1150  0.9886  0.9244
   28MOL    H17 5471   7.796   5.786   5.663  2.4558  1.7228  2.0677
   28MOL    H18 5472   7.904   6.016   5.732  0.1403 -0.5052  0.6869
   28MOL    H19 5473   7.949   5.918   5.443 -0.1613  2.8962 -2.0464
   28MOL    H20 5474   0.203   5.999   5.526  0.0801  1.2179  0.2674
   28MOL    H21 5475   0.120   6.128   5.625 -1.4446 -1.1375  1.0972
   28MOL    C22 5476   0.126   6.152   5.413 -0.1757  0.1110  0.0542
   28MOL    C23 5477   0.266   6.167   5.357  0.2230  0.0190 -0.9476
   28MOL    C24 5478   0.292   6.103   5.239  0.4809  0.3525 -0.1251
   28MOL    C25 5479   0.422   6.093   5.166  0.2553 -0.4309  0.2725
   28MOL    H26 5480   0.066   6.102   5.337 -0.1925 -0.6793  0.5868
   28MOL    H27 5481   0.068   6.242   5.428 -0.1129 -0.0786  1.5131
   28MOL    H28 5482   0.337   6.234   5.405 -1.2589 -0.0150  1.3897
   28MOL    H29 5483   0.216   6.051   5.184  0.2237  0.7864 -0.1798
   28MOL    H30 5484   0.483   6.175   5.206  0.9628 -1.3705  1.1633
   28MOL    H31 5485   0.416   6.109   5.059  0.4945 -2.3942 -0.0445
   28MOL    C32 5486   0.489   5.957   5.192 -0.3018 -0.6240 -0.2341
   28MOL    C33 5487   0.619   5.942   5.103 -0.4528 -0.0249  0.5195
   28MOL    C34 5488   0.709   5.851   5.122  0.3012 -0.5397  0.3028
   28MOL    C35 5489   0.841   5.835   5.044 -0.0013 -0.3608  0.0379
   28MOL    H36 5490   0.493   5.940   5.300  1.3274  1.9908  0.1563
   28MOL    H37 5491   0.429   5.874   5.153 -1.5306 -0.1392  0.5738
   28MOL    H38 5492   0.623   6.014   5.023 -2.9215 -1.4209 -0.9209
   28MOL    H39 5493   0.691   5.783   5.204  0.3190 -2.4268 -1.2310
   28MOL    H40 5494   0.840   5.903   4.960 -1.1983 -2.2957 -1.5716
   28MOL    H41 5495   0.831   5.734   5.003  2.4868 -0.8192  0.4620
   28MOL    C42 5496   0.960   5.833   5.133 -0.4806  0.0182 -0.2643
   28MOL    C43 5497   1.086   5.842   5.048 -0.0384 -0.0665  0.3432
   28MOL    C44 5498   1.194   5.904   5.103  0.2681  0.1189  0.2336
   28MOL    C45 5499   1.324   5.931   5.023 -0.2709  0.2861  0.0145
   28MOL    H46 5500   0.965   5.920   5.199 -0.1431  1.8246 -2.6075
   28MOL    H47 5501   0.963   5.749   5.203 -1.6316  1.4463  1.5436
   28MOL    H48 5502   1.089   5.793   4.952 -3.0267  0.8122 -0.2705
   28MOL    H49 5503   1.177   5.945   5.201 -0.7701  1.0699 -0.3205
   28MOL    H50 5504   1.323   5.869   4.934 -0.7483  1.1756 -0.6018
   28MOL    H51 5505   1.404   5.886   5.082 -0.3029 -0.3125 -0.4024
   28MOL    C52 5506   1.333   6.082   4.977  0.0356  0.0909 -0.1585
   28MOL    C53 5507   1.438   6.113   4.873  0.3681 -0.1283  0.0738
   28MOL    C54 5508   1.512   6.225   4.871  0.0628 -0.0151 -0.1677
   28MOL    C55 5509   1.613   6.243   4.756 -0.4711 -0.0405 -0.6077
   28MOL    H56 5510   1.237   6.117   4.939 -0.4101  0.8083  1.5917
   28MOL    H57 5511   1.366   6.136   5.066  0.9430 -0.6489 -0.0382
   28MOL    H58 5512   1.452   6.036   4.800  1.6626 -1.4644  1.6880
   28MOL    H59 5513   1.500   6.298   4.949  1.5043 -1.0837  1.0856
   28MOL    H60 5514   1.576   6.332   4.706 -2.5734  0.2107  1.3170
   28MOL    H61 5515   1.595   6.169   4.679 -0.7599 -1.2864  0.6452
   28MOL    C62 5516   1.756   6.250   4.800 -0.0383  0.5457 -0.1949
   28MOL    C63 5517   1.835   6.287   4.681  0.0498  0.0820 -0.0379
   28MOL    C64 5518   1.956   6.226   4.647  0.4884 -0.6746  0.0461
   28MOL    C65 5519   2.047   6.295   4.545  0.3066 -0.1752  0.4084
   28MOL    H66 5520   1.764   6.315   4.886 -0.4441  0.0606  0.2137
   28MOL    H67 5521   1.793   6.150   4.827 -0.2066  0.0062 -1.8829
   28MOL    H68 5522   1.802   6.380   4.638  0.9966  0.5531  0.2316
   28MOL    H69 5523   1.978   6.136   4.702  0.9017 -0.5756  0.0434
   28MOL    H70 5524   2.003   6.394   4.531 -0.6442 -0.4010  1.6663
   28MOL    H71 5525   2.040   6.247   4.448  0.5567 -0.3465  0.4772
   28MOL    C72 5526   2.191   6.315   4.594 -0.9123 -0.5167  1.1569
   28MOL    C73 5527   2.269   6.407   4.501  0.5484  0.2556  0.1085
   28MOL    C74 5528   2.387   6.374   4.449 -0.2879 -0.1558  0.7012
   28MOL    C75 5529   2.458   6.469   4.357 -0.6093 -0.1140  0.0394
   28MOL    H76 5530   2.193   6.383   4.680  1.8842  2.5776 -1.2739
   28MOL    H77 5531   2.249   6.227   4.625 -0.8886 -1.5764 -1.7860
   28MOL    H78 5532   2.224   6.499   4.469  0.1725 -0.4728 -1.5345
   28MOL    H79 5533   2.431   6.278   4.473  0.8765  0.6603  1.8609
   28MOL    H80 5534   2.391   6.547   4.322 -0.9529  0.1382  1.2256
   28MOL    H81 5535   2.465   6.412   4.265 -0.4047  0.2672 -0.1821
   28MOL    C82 5536   2.604   6.497   4.402  0.6199  0.1213  0.9989
   28MOL    C83 5537   2.603   6.630   4.474  0.1868  0.3982 -0.3324
   28MOL    C84 5538   2.624   6.746   4.410 -0.9098  0.1755  0.1223
   28MOL    C85 5539   2.603   6.883   4.478 -0.5212 -0.1026  0.2260
   28MOL    H86 5540   2.647   6.420   4.466  1.0065  0.5662  1.2763
   28MOL    H87 5541   2.666   6.509   4.313 -1.3496 -1.0734 -0.5860
   28MOL    H88 5542   2.576   6.629   4.578  0.1189  0.4020 -0.3499
   28MOL    H89 5543   2.653   6.748   4.306  1.3405 -0.6068  0.7135
   28MOL    H90 5544   2.517   6.875   4.544 -1.3409  2.9976 -0.3942
   28MOL    H91 5545   2.573   6.949   4.396 -0.4455 -0.3188  0.0253
   28MOL    C92 5546   2.722   6.935   4.553 -0.1428 -0.5095  0.0830
   28MOL    C93 5547   2.778   6.842   4.657 -0.1429  0.1340 -0.1867
   28MOL    C94 5548   2.895   6.767   4.656 -0.2145  0.2682 -0.8169
   28MOL    C95 5549   2.923   6.678   4.777  0.3812  0.0384  0.1831
   28MOL    H96 5550   2.802   6.948   4.480 -2.1854  0.3742 -2.0763
   28MOL    H97 5551   2.697   7.017   4.619 -0.5021 -1.6354  1.3662
   28MOL    H98 5552   2.711   6.826   4.740  1.5166 -0.9346  0.9876
   28MOL    H99 5553   2.970   6.778   4.579 -0.7010  1.6556 -1.1082
   28MOL   H100 5554   2.953   6.578   4.747 -0.9171 -0.5602  0.8369
   28MOL   H101 5555   2.827   6.669   4.829  0.5348 -0.3464  0.3988
   28MOL   C102 5556   3.028   6.749   4.860 -0.2176 -0.0804 -0.2624
   28MOL   C103 5557   3.156   6.787   4.790  0.1512  0.4466 -0.0793
   28MOL   C104 5558   3.280   6.744   4.826  0.8706  0.3080  0.3061
   28MOL   C105 5559   3.410   6.765   4.761 -0.4268 -0.2404  0.2451
   28MOL   H106 5560   2.988   6.847   4.886  1.7763  0.7006 -0.0761
   28MOL   H107 5561   3.040   6.696   4.954  1.9946  0.1755 -0.3673
   28MOL   H108 5562   3.139   6.849   4.703 -1.0336  0.3675  0.0890
   28MOL   H109 5563   3.288   6.679   4.912 -0.3841  0.1508  0.3247
   28MOL   H110 5564   3.476   6.813   4.834 -0.9746  0.6595  0.1558
   28MOL   H111 5565   3.400   6.845   4.688 -0.2301 -1.0169 -0.6295
   28MOL   C112 5566   3.457   6.636   4.707 -0.0323 -0.1731  0.6310
   28MOL   C113 5567   3.602   6.622   4.659  0.3202  0.7404  0.8165
   28MOL   C114 5568   3.632   6.579   4.534  0.0771  0.6528  0.3284
   28MOL   C115 5569   3.768   6.548   4.490 -0.1820  0.3638  0.5789
   28MOL   H116 5570   3.441   6.559   4.783 -0.1145 -0.3725  0.4083
   28MOL   H117 5571   3.385   6.605   4.632 -0.9826 -1.9433  2.2160
   28MOL   H118 5572   3.686   6.642   4.724  1.5726  0.6470 -0.7452
   28MOL   H119 5573   3.554   6.555   4.464  0.2075 -1.0469  0.7390
   28MOL   H120 5574   3.847   6.582   4.556  2.1457 -1.0503 -1.3861
   28MOL   H121 5575   3.778   6.614   4.404  1.6838  1.8825  1.9226
   28MOL   C122 5576   3.794   6.410   4.445  0.4239 -0.0856 -0.6400
   28MOL   C123 5577   3.762   6.300   4.541 -0.5921 -0.5741 -0.0669
   28MOL   C124 5578   3.853   6.213   4.593 -0.5583  0.2259 -0.2315
   28MOL   C125 5579   3.811   6.096   4.683 -0.2210  0.2186  0.8727
   28MOL   H126 5580   3.734   6.394   4.356 -2.5554  0.7118  1.1533
   28MOL   H127 5581   3.900   6.398   4.422  0.4812  0.1487 -0.5014
   28MOL   H128 5582   3.660   6.292   4.574 -0.2783 -0.5365  0.9039
   28MOL   H129 5583   3.958   6.218   4.568 -0.2914 -0.1088  0.7777
   28MOL   H130 5584   3.838   6.005   4.629 -0.5371  0.7490 -0.1900
   28MOL   H131 5585   3.703   6.102   4.694 -0.3278 -0.0057 -0.0399
   28MOL   C132 5586   3.876   6.102   4.824  0.1126 -0.0678  0.0477
   28MOL   C133 5587   3.876   5.970   4.905 -0.5643  0.3061  0.4960
   28MOL   C134 5588   3.937   5.859   4.869  0.3682  0.0810 -0.3293
   28MOL   C135 5589   3.940   5.728   4.951  0.1899  0.0983  1.0352
   28MOL   H136 5590   3.982   6.128   4.825  0.0879  0.0087  1.1923
   28MOL   H137 5591   3.829   6.178   4.887  0.9313 -0.5619  1.2640
   28MOL   H138 5592   3.810   5.964   4.991 -1.4136 -0.2821 -0.1815
   28MOL   H139 5593   4.002   5.862   4.782  0.2439  2.7013 -0.3841
   28MOL   H140 5594   3.921   5.745   5.057 -1.0695  2.3920  0.4544
   28MOL   H141 5595   4.048   5.716   4.943  0.1274  1.4360 -2.9741
   28MOL   C142 5596   3.865   5.601   4.900 -0.3404  0.3530  0.6852
   28MOL   C143 5597   3.932   5.472   4.930 -0.6457  0.3067  0.5169
   28MOL   C144 5598   3.871   5.358   4.968 -0.5113 -0.0248  0.1902
   28MOL   C145 5599   3.946   5.229   4.993 -0.5803  0.4433 -0.2314
   28MOL   H146 5600   3.765   5.601   4.944 -0.5709  3.9676  0.3526
   28MOL   H147 5601   3.853   5.599   4.791 -2.4425  0.0897  0.8933
   28MOL   H148 5602   4.039   5.470   4.920 -0.5955  0.0367  1.0852
   28MOL   H149 5603   3.763   5.351   4.976 -0.7955  1.5403 -2.0719
   28MOL   H150 5604   4.053   5.241   4.978 -0.5599 -0.6322 -1.0668
   28MOL   H151 5605   3.914   5.171   4.906 -0.8563 -0.5184  0.5018
   28MOL   C152 5606   3.930   5.162   5.130 -0.2011 -0.6319  0.5300
   28MOL   C153 5607   4.005   5.031   5.137 -0.5705  0.2573  0.4656
   28MOL   C154 5608   4.124   5.030   5.195 -0.6482  0.4268  0.1691
   28MOL   C155 5609   4.217   4.915   5.207  0.5342  0.4204 -0.0371
   28MOL   H156 5610   3.959   5.223   5.216  2.7240  1.3012 -1.7240
   28MOL   H157 5611   3.826   5.130   5.128 -0.5701  0.4360  1.6662
   28MOL   H158 5612   3.970   4.947   5.079 -0.6899  1.1745 -0.8176
   28MOL   H159 5613   4.159   5.119   5.244  2.6346  0.2103 -1.6100
   28MOL   H160 5614   4.164   4.823   5.231  1.5868  0.3458  2.0897
   28MOL   H161 5615   4.283   4.929   5.292  0.4259 -0.1734  0.1460
   28MOL   C162 5616   4.293   4.893   5.078 -0.8013 -0.0005  0.5254
   28MOL   C163 5617   4.375   4.774   5.070  0.0673  0.8321  0.7698
   28MOL   C164 5618   4.393   4.708   4.957  0.0499 -0.0450 -0.4754
   28MOL   C165 5619   4.470   4.578   4.935  0.0011  0.0844 -0.4195
   28MOL   H166 5620   4.216   4.895   5.001  1.3556  2.2507 -1.6885
   28MOL   H167 5621   4.351   4.983   5.059 -1.7028  0.4168 -0.3008
   28MOL   H168 5622   4.425   4.726   5.152  1.5624 -1.4159 -1.3725
   28MOL   H169 5623   4.356   4.737   4.860 -2.7090  0.3546  0.6633
   28MOL   H170 5624   4.538   4.544   5.013  2.1780  1.3760 -1.7058
   28MOL   H171 5625   4.541   4.598   4.855 -1.0439  0.2342 -1.3302
   28MOL   C172 5626   4.374   4.469   4.878  0.2660  0.3869  0.2353
   28MOL   C173 5627   4.439   4.342   4.836 -0.9531  0.4664  0.1636
   28MOL   C174 5628   4.390   4.277   4.733  0.4742  0.0881 -0.5473
   28MOL   C175 5629   4.448   4.145   4.686  0.0624 -0.3742 -0.7116
   28MOL   H176 5630   4.311   4.444   4.963  0.0215  1.1402  0.2710
   28MOL   H177 5631   4.315   4.511   4.797 -1.6283  1.0870  1.9457
   28MOL   H178 5632   4.519   4.307   4.900  1.0356 -0.1867 -2.5710
   28MOL   H179 5633   4.303   4.310   4.679  0.8079  1.2320 -0.4134
   28MOL   H180 5634   4.370   4.077   4.652  0.5492  0.2516 -3.2316
   28MOL   H181 5635   4.487   4.085   4.768 -4.6700 -0.8184  1.3330
   28MOL   C182 5636   4.544   4.167   4.574 -0.2437 -0.2395 -0.2438
   28MOL   C183 5637   4.577   4.032   4.507 -0.5980 -0.0628  0.1586
   28MOL   C184 5638   4.691   3.968   4.532 -0.4775 -0.4861  0.1700
   28MOL   C185 5639   4.730   3.837   4.460 -0.3175 -0.5542 -0.4865
   28MOL   H186 5640   4.489   4.229   4.503  1.9361 -2.2831 -3.8823
   28MOL   H187 5641   4.642   4.208   4.596 -0.4062  0.3011 -0.4973
   28MOL   H188 5642   4.496   3.990   4.449  0.3932 -2.2707  0.3139
   28MOL   H189 5643   4.757   4.007   4.607 -1.3088 -0.5941  0.9770
   28MOL   H190 5644   4.835   3.853   4.433 -0.2652 -0.8656 -0.4707
   28MOL   H191 5645   4.668   3.825   4.371  0.1342  0.2232 -0.9129
   28MOL   C192 5646   4.737   3.722   4.546 -0.0038  0.2705 -0.4645
   28MOL   C193 5647   4.806   3.604   4.473  0.8332  0.8251  0.1282
   28MOL   C194 5648   4.746   3.488   4.433 -0.2122  0.7181 -0.0398
   28MOL   C195 5649   4.809   3.381   4.346 -0.2917  0.0016 -0.4449
   28MOL   H196 5650   4.790   3.753   4.636 -2.7339  1.0948  0.8948
   28MOL   H197 5651   4.636   3.690   4.569  0.6896  0.2290  2.7823
   28MOL   H198 5652   4.901   3.635   4.434  0.0114  2.2389 -0.7978
   28MOL   H199 5653   4.641   3.480   4.456  0.3047 -1.0581  1.8215
   28MOL   H200 5654   4.754   3.372   4.253  0.3673 -0.8267 -0.7670
   28MOL   H201 5655   4.813   3.288   4.403 -0.5589  0.4507  0.3156
   28MOL   H202 5656   4.911   3.414   4.323 -0.4011  1.8894  1.6027
   29MOL     C1 5657   4.732   0.782   1.916  0.3299  0.8944  0.0183
   29MOL     C2 5658   4.752   0.743   2.059  0.5851  0.2537 -0.2987
   29MOL     C3 5659   4.649   0.748   2.152 -0.3565  0.1230 -0.1205
   29MOL     C4 5660   4.669   0.711   2.299  0.1877  0.2383 -0.4036
   29MOL     H5 5661   4.758   0.882   1.882  0.2559  0.5038 -1.2250
   29MOL     H6 5662   4.631   0.763   1.879  1.3683 -0.9284 -2.0420
   29MOL     H7 5663   4.855   0.717   2.080  0.1330 -1.3024  0.1041
   29MOL     H8 5664   4.549   0.775   2.124 -0.3739 -2.0880 -2.3961
   29MOL     H9 5665   4.669   0.798   2.364 -2.4669 -0.5685  0.7280
   29MOL    H10 5666   4.762   0.655   2.316  0.1358  0.0657 -0.6787
   29MOL    H11 5667   4.791   0.713   1.855 -1.4793 -1.8437  1.2699
   29MOL    C12 5668   4.549   0.623   2.350  0.2939  0.7900  0.0426
   29MOL    C13 5669   4.562   0.471   2.302 -0.6598  0.2875 -0.2760
   29MOL    C14 5670   4.584   0.376   2.392  0.0317  0.2225  0.0572
   29MOL    C15 5671   4.588   0.222   2.361 -0.4122 -0.1868  0.1756
   29MOL    H16 5672   4.556   0.627   2.458 -0.4473 -0.9088  0.1722
   29MOL    H17 5673   4.453   0.666   2.319 -0.2606  1.7431  2.9620
   29MOL    H18 5674   4.549   0.455   2.196 -0.2824  1.9070 -0.5856
   29MOL    H19 5675   4.602   0.404   2.494  1.7884  0.6398 -0.3489
   29MOL    H20 5676   4.586   0.217   2.252  0.3534  1.6959  0.0618
   29MOL    H21 5677   4.500   0.174   2.404 -0.1900 -0.8591 -0.1171
   29MOL    C22 5678   4.718   0.154   2.406 -0.5527 -0.2958  0.2137
   29MOL    C23 5679   4.711   0.094   2.544  0.1309  0.1045  0.2918
   29MOL    C24 5680   4.798   0.106   2.645  0.6965  0.3336  0.1872
   29MOL    C25 5681   4.788   0.020   2.772  0.0412 -0.6192 -0.3889
   29MOL    H26 5682   4.720   0.067   2.340 -0.5728  1.4581 -2.1869
   29MOL    H27 5683   4.808   0.213   2.386 -1.8539  1.7853  0.4232
   29MOL    H28 5684   4.636   0.016   2.551 -0.9460  0.8411 -2.2613
   29MOL    H29 5685   4.882   0.173   2.639  1.6112 -0.7417  0.9074
   29MOL    H30 5686   4.880   7.938   2.776  0.6620  0.0158 -3.7917
   29MOL    H31 5687   4.705   7.926   2.771 -0.6276  0.0889  2.2281
   29MOL    C32 5688   4.792   0.119   2.891 -0.0872 -0.1653 -0.5314
   29MOL    C33 5689   4.750   0.035   3.018  0.1829 -0.0349 -0.0973
   29MOL    C34 5690   4.668   0.079   3.115 -0.0942 -0.4680  0.3360
   29MOL    C35 5691   4.636   7.977   3.245  0.2040  0.6778 -0.0971
   29MOL    H36 5692   4.893   0.157   2.903  0.3152 -1.5182  0.5143
   29MOL    H37 5693   4.731   0.206   2.868  0.9657  0.4142 -1.1213
   29MOL    H38 5694   4.806   7.921   3.035  0.4995  0.3972  1.1956
   29MOL    H39 5695   4.612   0.170   3.098  0.5159 -0.0206  0.7271
   29MOL    H40 5696   4.529   0.002   3.265  0.2059 -0.0885  0.0337
   29MOL    H41 5697   4.678   0.052   3.331 -2.2423  1.6000  0.5595
   29MOL    C42 5698   4.685   7.827   3.243  0.4389 -0.6695 -0.3275
   29MOL    C43 5699   4.617   7.739   3.347  0.4514  0.0068  0.3129
   29MOL    C44 5700   4.681   7.649   3.427 -0.4309 -0.0310  0.0405
   29MOL    C45 5701   4.600   7.555   3.518 -0.8947  0.3351  0.3082
   29MOL    H46 5702   4.652   7.791   3.145  2.8594  0.2686 -1.5386
   29MOL    H47 5703   4.793   7.817   3.249  0.4253  0.4407  2.6188
   29MOL    H48 5704   4.514   7.767   3.362  0.4997 -0.5435  1.6884
   29MOL    H49 5705   4.788   7.644   3.421 -0.2411 -0.6950  3.0152
   29MOL    H50 5706   4.494   7.565   3.495 -0.9248 -0.6818 -0.0527
   29MOL    H51 5707   4.626   7.592   3.617 -1.3176  0.5771  0.3285
   29MOL    C52 5708   4.647   7.407   3.504 -0.4884 -0.0235 -0.0836
   29MOL    C53 5709   4.584   7.309   3.604 -0.3917  0.0973 -0.0078
   29MOL    C54 5710   4.653   7.220   3.683  0.1183 -0.3134  0.2479
   29MOL    C55 5711   4.585   7.142   3.791  0.3085  0.7147 -0.6696
   29MOL    H56 5712   4.611   7.374   3.407 -1.0505 -0.4761  0.2737
   29MOL    H57 5713   4.756   7.403   3.498 -0.4498  1.0747 -0.1767
   29MOL    H58 5714   4.478   7.313   3.624 -0.0649  0.6386  1.6280
   29MOL    H59 5715   4.761   7.216   3.675  0.3745  1.6934  2.1894
   29MOL    H60 5716   4.500   7.196   3.832 -0.3955 -1.4369  0.8066
   29MOL    H61 5717   4.642   7.144   3.884 -0.6760 -1.7332  0.0332
   29MOL    C62 5718   4.532   7.003   3.740  0.0952  0.6147  0.6229
   29MOL    C63 5719   4.642   6.903   3.706  0.2444  0.2191  0.4355
   29MOL    C64 5720   4.671   6.855   3.582  0.4488 -0.2574 -0.1889
   29MOL    C65 5721   4.808   6.795   3.559 -0.0215 -0.0641  0.1181
   29MOL    H66 5722   4.483   6.937   3.811  0.3116  0.4235  0.5940
   29MOL    H67 5723   4.467   7.024   3.655  0.2867 -0.8943  0.1036
   29MOL    H68 5724   4.719   6.892   3.781  0.8807  0.5781 -0.1514
   29MOL    H69 5725   4.604   6.888   3.505 -1.0268 -1.2346  0.6441
   29MOL    H70 5726   4.789   6.701   3.507 -3.1919  1.2444 -1.2495
   29MOL    H71 5727   4.837   6.778   3.662 -1.3249  2.1371  0.9034
   29MOL    C72 5728   4.900   6.877   3.469 -0.2012  0.1659  0.2955
   29MOL    C73 5729   5.012   6.784   3.423  0.1747 -0.6210  0.1838
   29MOL    C74 5730   5.113   6.833   3.346 -0.4001  0.0510  0.3201
   29MOL    C75 5731   5.230   6.742   3.304 -0.0507 -0.1617 -1.0639
   29MOL    H76 5732   4.843   6.920   3.386 -1.1684  2.8726  2.2932
   29MOL    H77 5733   4.943   6.958   3.528 -3.3585  1.3246  1.1270
   29MOL    H78 5734   5.019   6.677   3.440 -2.8180 -1.1300 -1.5785
   29MOL    H79 5735   5.122   6.936   3.317 -0.6249 -0.1041 -0.3263
   29MOL    H80 5736   5.251   6.662   3.374 -0.5556  1.4191  0.9408
   29MOL    H81 5737   5.318   6.807   3.308 -1.3906  1.7796 -2.0692
   29MOL    C82 5738   5.216   6.690   3.160 -0.2406  0.1371  0.0648
   29MOL    C83 5739   5.288   6.562   3.134  0.1592  0.0165  0.7427
   29MOL    C84 5740   5.376   6.555   3.030  0.0685  0.3124 -0.0061
   29MOL    C85 5741   5.447   6.431   2.988  0.5999  0.0326  0.0682
   29MOL    H86 5742   5.114   6.661   3.135 -0.0108  1.5704 -2.7075
   29MOL    H87 5743   5.244   6.762   3.084  1.8069 -1.4124 -0.6830
   29MOL    H88 5744   5.264   6.480   3.201  0.9709 -1.1580 -0.3759
   29MOL    H89 5745   5.400   6.641   2.970 -4.2181  1.3974 -0.3645
   29MOL    H90 5746   5.411   6.344   3.043 -1.5111  1.5017  1.0561
   29MOL    H91 5747   5.554   6.446   3.003  0.9373 -1.4123 -0.8150
   29MOL    C92 5748   5.424   6.393   2.840  0.5157 -0.3560 -0.3663
   29MOL    C93 5749   5.473   6.254   2.807 -0.5292 -0.5968 -0.3174
   29MOL    C94 5750   5.410   6.154   2.757 -0.1374 -0.1020  0.0125
   29MOL    C95 5751   5.457   6.005   2.743 -0.1944 -0.1072  0.2107
   29MOL    H96 5752   5.316   6.393   2.821  0.7660 -0.8005 -1.8510
   29MOL    H97 5753   5.475   6.469   2.781  1.4134 -0.6934 -0.0291
   29MOL    H98 5754   5.575   6.237   2.839 -1.2579 -0.6251  2.1514
   29MOL    H99 5755   5.306   6.168   2.734 -0.9115 -2.4908  1.8354
   29MOL   H100 5756   5.436   5.972   2.641 -0.4581 -1.6056  0.7306
   29MOL   H101 5757   5.392   5.952   2.812 -0.4376 -0.9669 -0.6621
   29MOL   C102 5758   5.609   5.970   2.782  0.4423 -0.1578  0.2033
   29MOL   C103 5759   5.641   5.819   2.796 -0.3146 -1.0735 -0.0344
   29MOL   C104 5760   5.557   5.719   2.766 -0.0314  0.2233 -0.1695
   29MOL   C105 5761   5.607   5.576   2.773  0.2579  0.1121  0.8066
   29MOL   H106 5762   5.673   6.003   2.700  0.4846  0.5884  0.5311
   29MOL   H107 5763   5.636   6.016   2.877 -1.1356 -1.4800  1.3283
   29MOL   H108 5764   5.744   5.804   2.822 -0.2266  2.1747  1.8391
   29MOL   H109 5765   5.453   5.737   2.742 -0.1234  0.4871  0.4269
   29MOL   H110 5766   5.716   5.566   2.763  0.2507  0.7016  0.0812
   29MOL   H111 5767   5.570   5.528   2.683 -1.0622  0.6572  1.0571
   29MOL   C112 5768   5.558   5.504   2.899 -0.0462  0.5362  0.0636
   29MOL   C113 5769   5.588   5.587   3.023  0.1007 -0.4753  0.1102
   29MOL   C114 5770   5.512   5.572   3.129  0.3170  0.1166 -0.3964
   29MOL   C115 5771   5.518   5.654   3.265  0.3261 -0.0397  0.6668
   29MOL   H116 5772   5.451   5.481   2.895  0.0344  0.3695 -1.6135
   29MOL   H117 5773   5.615   5.413   2.912 -1.7060 -0.3039  1.6242
   29MOL   H118 5774   5.663   5.665   3.028 -0.7401  0.2192  2.3944
   29MOL   H119 5775   5.436   5.496   3.124  1.2561 -0.8409 -0.4007
   29MOL   H120 5776   5.430   5.715   3.285 -0.5943  0.4027 -4.0200
   29MOL   H121 5777   5.603   5.722   3.257 -1.0002  1.6297  0.4043
   29MOL   C122 5778   5.547   5.556   3.378 -0.2797 -0.3172 -0.2238
   29MOL   C123 5779   5.625   5.620   3.491  0.5679  0.2686  0.4478
   29MOL   C124 5780   5.752   5.593   3.520  0.1552  0.1524 -0.0194
   29MOL   C125 5781   5.833   5.676   3.621 -0.1315  0.0183  0.5255
   29MOL   H126 5782   5.444   5.530   3.404 -0.3385  0.6581  0.5743
   29MOL   H127 5783   5.606   5.471   3.344  2.5544  1.3511  0.3682
   29MOL   H128 5784   5.571   5.692   3.552  0.4778 -0.7476  1.5712
   29MOL   H129 5785   5.803   5.519   3.459 -1.0253 -1.7517  1.2464
   29MOL   H130 5786   5.767   5.760   3.642 -0.0265  0.3366 -0.3597
   29MOL   H131 5787   5.916   5.720   3.565  0.4091 -1.7691 -0.1105
   29MOL   C132 5788   5.874   5.610   3.749 -0.1554 -0.6419  0.4924
   29MOL   C133 5789   5.951   5.709   3.841 -0.4726  0.0693  0.0995
   29MOL   C134 5790   5.879   5.781   3.927  0.2962 -0.9366 -0.5497
   29MOL   C135 5791   5.926   5.885   4.033 -0.1729  0.3691 -0.8269
   29MOL   H136 5792   5.786   5.562   3.792  0.0425 -0.3657  1.2095
   29MOL   H137 5793   5.932   5.522   3.723  1.0946  0.6681 -1.2392
   29MOL   H138 5794   6.055   5.736   3.826  0.2986 -1.8740  1.6085
   29MOL   H139 5795   5.772   5.771   3.926  0.0581  1.3439 -0.4886
   29MOL   H140 5796   5.888   5.984   4.006 -1.6916  0.4844  1.5821
   29MOL   H141 5797   6.032   5.898   4.013 -0.1757  0.5475 -0.7271
   29MOL   C142 5798   5.911   5.838   4.176 -0.2533 -0.6635  0.2618
   29MOL   C143 5799   5.769   5.860   4.222 -0.2254 -0.0801  0.2777
   29MOL   C144 5800   5.735   5.864   4.356  0.4204  0.4084  0.1672
   29MOL   C145 5801   5.597   5.871   4.414  0.7325  0.7667 -0.6027
   29MOL   H146 5802   5.939   5.733   4.186 -0.2933 -0.5998  1.1384
   29MOL   H147 5803   5.982   5.891   4.240  0.5501 -0.2039 -0.9875
   29MOL   H148 5804   5.701   5.868   4.139  1.7457  0.1528 -1.3560
   29MOL   H149 5805   5.814   5.849   4.428 -1.6673  2.3198  2.9799
   29MOL   H150 5806   5.518   5.836   4.347 -1.4198  4.2012  0.0068
   29MOL   H151 5807   5.602   5.976   4.439 -3.4347  0.9888 -0.3376
   29MOL   C152 5808   5.573   5.797   4.551  0.1501 -0.1516  1.2814
   29MOL   C153 5809   5.676   5.834   4.665  0.0736 -0.5593  0.5792
   29MOL   C154 5810   5.658   5.780   4.787 -0.8722 -0.3103  0.2013
   29MOL   C155 5811   5.752   5.818   4.900  0.6179  0.1678 -0.7943
   29MOL   H156 5812   5.476   5.831   4.586  0.1216  1.0857  0.0382
   29MOL   H157 5813   5.558   5.690   4.542 -0.9763  0.2197 -1.7329
   29MOL   H158 5814   5.757   5.903   4.646 -0.0725 -0.1255  1.5073
   29MOL   H159 5815   5.577   5.713   4.810  0.8750 -1.0370  4.8000
   29MOL   H160 5816   5.804   5.912   4.882  1.4628 -0.0494  0.4653
   29MOL   H161 5817   5.818   5.733   4.920 -1.2977 -1.0800  0.4175
   29MOL   C162 5818   5.660   5.856   5.022 -0.2159  0.4418  0.2517
   29MOL   C163 5819   5.733   5.940   5.132  0.0675  0.4569 -0.6757
   29MOL   C164 5820   5.705   6.069   5.159  0.2786  0.1496 -0.2705
   29MOL   C165 5821   5.788   6.157   5.251  0.0766  0.5968 -0.6290
   29MOL   H166 5822   5.571   5.911   4.992 -0.6347 -0.4319 -0.1070
   29MOL   H167 5823   5.636   5.758   5.065 -1.9773  1.3890  1.4708
   29MOL   H168 5824   5.826   5.900   5.170 -0.8624 -2.0458 -0.8999
   29MOL   H169 5825   5.624   6.117   5.107 -0.7165 -2.7610 -1.5186
   29MOL   H170 5826   5.850   6.106   5.325  2.7331  0.2600 -2.9815
   29MOL   H171 5827   5.707   6.205   5.305 -0.3010  0.2064 -0.8440
   29MOL   C172 5828   5.855   6.268   5.168 -0.3935 -0.5497 -0.0205
   29MOL   C173 5829   5.970   6.211   5.087 -1.1348  1.0179  0.3817
   29MOL   C174 5830   5.969   6.199   4.950 -0.3127  0.1522 -0.1353
   29MOL   C175 5831   6.087   6.148   4.865  0.0711  0.1417 -0.1913
   29MOL   H176 5832   5.778   6.303   5.100 -1.8163 -2.1131  0.7551
   29MOL   H177 5833   5.888   6.357   5.222 -0.0961 -0.3230 -0.5660
   29MOL   H178 5834   6.063   6.185   5.135 -1.4906 -0.1276  0.4732
   29MOL   H179 5835   5.881   6.213   4.889 -0.8827 -3.4133 -0.1904
   29MOL   H180 5836   6.053   6.067   4.800 -3.1979 -0.1691  1.7570
   29MOL   H181 5837   6.166   6.101   4.924  0.1111  0.7114  0.2099
   29MOL   C182 5838   6.140   6.272   4.790 -0.2446 -0.6267  0.7264
   29MOL   C183 5839   6.275   6.234   4.710  0.0927 -1.0571 -0.2647
   29MOL   C184 5840   6.278   6.208   4.576 -0.0836  0.2854  0.1383
   29MOL   C185 5841   6.393   6.163   4.485 -0.8214  0.0596  1.0863
   29MOL   H186 5842   6.068   6.321   4.724  1.3218  1.3529  0.4327
   29MOL   H187 5843   6.170   6.345   4.865  1.8677  1.7994 -2.3145
   29MOL   H188 5844   6.367   6.220   4.765 -0.8696  2.3414  2.3947
   29MOL   H189 5845   6.186   6.238   4.527 -0.2808  0.2849  0.5094
   29MOL   H190 5846   6.494   6.175   4.526 -0.2637  0.5425 -0.4083
   29MOL   H191 5847   6.403   6.226   4.397  0.3638 -2.0777 -0.3364
   29MOL   C192 5848   6.366   6.021   4.436  0.1950 -0.0121  0.0083
   29MOL   C193 5849   6.454   5.963   4.330  0.4125 -0.2467 -0.2517
   29MOL   C194 5850   6.508   5.843   4.343  0.8766  0.2190  0.6593
   29MOL   C195 5851   6.599   5.779   4.241  0.0227 -0.1653  0.1219
   29MOL   H196 5852   6.358   5.954   4.522 -0.4792 -0.3129 -0.2841
   29MOL   H197 5853   6.269   6.026   4.386  0.4807  1.4614 -0.4086
   29MOL   H198 5854   6.490   6.027   4.251  0.8037  0.0720  0.1739
   29MOL   H199 5855   6.484   5.780   4.427 -1.2225 -0.6934 -0.5653
   29MOL   H200 5856   6.603   5.845   4.154 -0.5708 -1.4987 -0.9418
   29MOL   H201 5857   6.558   5.680   4.220  0.3814  0.1731 -2.4301
   29MOL   H202 5858   6.701   5.780   4.281  0.1876 -0.7380 -0.2723
   30MOL     C1 5859   4.316   3.675   4.565  0.0625 -0.1399  0.5497
   30MOL     C2 5860   4.276   3.747   4.689 -0.2781 -0.0744  0.5230
   30MOL     C3 5861   4.175   3.832   4.700 -0.5390 -0.6040  0.0412
   30MOL     C4 5862   4.143   3.901   4.839 -0.0876  0.0088 -0.1669
   30MOL     H5 5863   4.320   3.567   4.577 -1.6283 -0.2387  0.3994
   30MOL     H6 5864   4.417   3.703   4.537 -0.3028  0.3485 -0.3146
   30MOL     H7 5865   4.344   3.728   4.770 -1.4844  1.2999  1.8848
   30MOL     H8 5866   4.112   3.852   4.615  0.8791 -1.7357 -1.3050
   30MOL     H9 5867   4.124   4.006   4.820 -0.7508  0.3417  2.1507
   30MOL    H10 5868   4.236   3.892   4.896 -0.5067 -2.8550  0.1320
   30MOL    H11 5869   4.242   3.699   4.488 -0.5040 -1.3464  0.6931
   30MOL    C12 5870   4.035   3.833   4.923  0.2024 -0.4798 -0.0574
   30MOL    C13 5871   4.028   3.897   5.061  0.2817  0.2738  0.3772
   30MOL    C14 5872   4.075   3.850   5.172  0.0258  0.2744  0.6444
   30MOL    C15 5873   4.059   3.925   5.301 -0.2968  0.1881  0.7075
   30MOL    H16 5874   3.935   3.821   4.880 -0.0159  0.1058  0.2833
   30MOL    H17 5875   4.073   3.733   4.941  0.1833 -0.7002 -1.2097
   30MOL    H18 5876   3.979   3.993   5.066  0.8549  0.6330 -0.6341
   30MOL    H19 5877   4.137   3.761   5.176  1.3922  1.0121 -2.6664
   30MOL    H20 5878   4.000   4.015   5.289 -1.6932 -1.0144 -1.6649
   30MOL    H21 5879   4.162   3.957   5.319  0.2561 -0.8287 -0.5324
   30MOL    C22 5880   3.986   3.844   5.415 -0.2764 -0.4985  0.6867
   30MOL    C23 5881   3.832   3.861   5.411 -0.1995  0.5523  1.1582
   30MOL    C24 5882   3.749   3.899   5.309  0.0954  0.1412 -0.3724
   30MOL    C25 5883   3.601   3.922   5.320 -0.2562 -0.2609  0.5956
   30MOL    H26 5884   4.019   3.740   5.410 -0.4734 -0.8196  4.3094
   30MOL    H27 5885   4.027   3.881   5.509 -0.2224 -1.3425  1.0037
   30MOL    H28 5886   3.784   3.830   5.502  2.3351 -1.3383  1.9179
   30MOL    H29 5887   3.795   3.930   5.217  2.5860  1.7654  1.3388
   30MOL    H30 5888   3.578   3.932   5.426 -0.1843 -3.4170  0.9674
   30MOL    H31 5889   3.542   3.845   5.270 -2.3313  2.5729 -1.4576
   30MOL    C32 5890   3.545   4.057   5.267 -0.1243  0.3858 -0.4662
   30MOL    C33 5891   3.393   4.079   5.274 -0.1991  0.7615 -0.1142
   30MOL    C34 5892   3.321   4.147   5.186 -0.0536  0.0008  0.3448
   30MOL    C35 5893   3.176   4.184   5.177  0.1646  0.5340 -0.1489
   30MOL    H36 5894   3.595   4.139   5.319  0.4251 -1.0632  1.3337
   30MOL    H37 5895   3.574   4.072   5.163 -2.4910 -2.7340 -1.6190
   30MOL    H38 5896   3.338   4.048   5.362 -1.1874  0.3291 -0.8660
   30MOL    H39 5897   3.366   4.173   5.091 -0.9287 -0.4573 -0.2016
   30MOL    H40 5898   3.170   4.285   5.138  1.7340  0.9211  0.6101
   30MOL    H41 5899   3.125   4.182   5.273 -4.8421 -0.2266 -2.5896
   30MOL    C42 5900   3.091   4.103   5.066  0.5161  0.1589 -0.7619
   30MOL    C43 5901   2.942   4.134   5.090  0.2888 -0.1161 -0.3586
   30MOL    C44 5902   2.852   4.036   5.103  0.1878  0.0259 -0.1026
   30MOL    C45 5903   2.701   4.066   5.115  0.2366  1.0175 -0.9711
   30MOL    H46 5904   3.127   4.123   4.965  0.8311  1.5750 -0.3712
   30MOL    H47 5905   3.109   3.997   5.085 -0.3625  0.2243  0.5391
   30MOL    H48 5906   2.907   4.236   5.087 -3.9749 -1.4153  2.3203
   30MOL    H49 5907   2.878   3.931   5.096 -0.7185 -0.3347  1.6651
   30MOL    H50 5908   2.650   3.999   5.184 -0.8708  1.5969 -1.2213
   30MOL    H51 5909   2.658   4.044   5.018  0.7657 -1.5139 -0.6544
   30MOL    C52 5910   2.657   4.205   5.155 -0.2352  0.4838 -0.0295
   30MOL    C53 5911   2.661   4.299   5.035 -0.4105 -0.9323  0.2599
   30MOL    C54 5912   2.732   4.415   5.031 -0.0374  0.3029 -0.1879
   30MOL    C55 5913   2.736   4.516   4.924 -0.0714 -0.7198  0.3128
   30MOL    H56 5914   2.558   4.211   5.199  0.9156  2.0106  2.4077
   30MOL    H57 5915   2.721   4.237   5.237  0.9502 -1.5671 -0.0977
   30MOL    H58 5916   2.600   4.262   4.954  0.1289  0.6411 -0.8853
   30MOL    H59 5917   2.796   4.447   5.112 -1.6700 -0.2813  1.3693
   30MOL    H60 5918   2.685   4.482   4.834 -0.1994 -2.2666  0.9682
   30MOL    H61 5919   2.843   4.527   4.904 -0.1268  3.5389  1.7280
   30MOL    C62 5920   2.692   4.653   4.972 -0.0611  0.6638  0.3243
   30MOL    C63 5921   2.738   4.766   4.889 -0.3912  0.6015 -0.0272
   30MOL    C64 5922   2.813   4.864   4.943  0.1595  0.1736 -0.1125
   30MOL    C65 5923   2.873   4.979   4.857  0.2814  0.1043 -0.3255
   30MOL    H66 5924   2.583   4.663   4.965 -0.3337 -0.6885  2.4454
   30MOL    H67 5925   2.733   4.666   5.072 -1.3353 -0.0485  0.9520
   30MOL    H68 5926   2.720   4.752   4.783  3.2703  1.1715 -0.7711
   30MOL    H69 5927   2.831   4.857   5.049  1.5982 -0.3124 -0.3698
   30MOL    H70 5928   2.832   5.075   4.886 -2.4705 -1.0107 -0.4170
   30MOL    H71 5929   2.846   4.984   4.752 -1.7392 -1.6430  0.0650
   30MOL    C72 5930   3.028   4.966   4.844  0.1449 -0.0067 -0.2910
   30MOL    C73 5931   3.085   5.092   4.779 -1.3052  0.5151 -1.1969
   30MOL    C74 5932   3.163   5.179   4.841  0.1513 -0.4780  0.1818
   30MOL    C75 5933   3.226   5.302   4.770  0.3528 -0.2430 -0.7667
   30MOL    H76 5934   3.067   4.949   4.944  1.1088 -0.9883 -0.8344
   30MOL    H77 5935   3.061   4.874   4.796 -1.2219 -0.7948  0.2372
   30MOL    H78 5936   3.050   5.120   4.681  1.0032 -0.1678 -2.2479
   30MOL    H79 5937   3.194   5.155   4.941 -2.0716 -1.8495  0.5906
   30MOL    H80 5938   3.189   5.324   4.670 -1.0577 -0.3054 -0.2643
   30MOL    H81 5939   3.331   5.279   4.750  0.6085  0.0155  0.2228
   30MOL    C82 5940   3.206   5.435   4.860 -0.0134  0.6251  0.4356
   30MOL    C83 5941   3.257   5.569   4.808  0.0056 -0.1336  0.0390
   30MOL    C84 5942   3.369   5.600   4.743  0.8354 -1.0427  0.1177
   30MOL    C85 5943   3.396   5.737   4.677  0.2558  0.4667  0.9021
   30MOL    H86 5944   3.099   5.456   4.866  0.3177  2.9896 -1.2198
   30MOL    H87 5945   3.238   5.420   4.963  1.0671 -0.3975 -0.0401
   30MOL    H88 5946   3.202   5.658   4.833 -1.7637 -1.7298  2.0802
   30MOL    H89 5947   3.443   5.522   4.740  2.1276 -0.0082  2.9397
   30MOL    H90 5948   3.305   5.797   4.666 -0.0980 -0.3227 -0.4487
   30MOL    H91 5949   3.433   5.718   4.577 -1.6972 -0.4897  0.3444
   30MOL    C92 5950   3.508   5.808   4.751 -0.3637 -0.2702  0.0304
   30MOL    C93 5951   3.451   5.882   4.872 -0.0950  0.1694 -0.2981
   30MOL    C94 5952   3.472   6.014   4.895 -0.3944 -0.7037  0.3316
   30MOL    C95 5953   3.421   6.094   5.011 -0.1369 -0.4531 -0.0433
   30MOL    H96 5954   3.584   5.734   4.771  0.8867  0.6958 -1.0642
   30MOL    H97 5955   3.542   5.889   4.686 -1.2490  2.1191  2.4207
   30MOL    H98 5956   3.387   5.824   4.936 -1.3487  0.5155 -1.1955
   30MOL    H99 5957   3.524   6.062   4.813 -4.6278  1.3053 -1.3458
   30MOL   H100 5958   3.315   6.070   5.022 -0.4253  0.4092 -0.8729
   30MOL   H101 5959   3.428   6.200   4.989 -1.2634  0.1235  2.2145
   30MOL   C102 5960   3.501   6.070   5.140 -0.5267 -0.0317 -0.1270
   30MOL   C103 5961   3.461   6.154   5.254  0.3875  0.3902 -0.9074
   30MOL   C104 5962   3.530   6.175   5.369 -0.5855  0.5062 -0.0742
   30MOL   C105 5963   3.475   6.246   5.496  0.0555 -0.4811  1.6397
   30MOL   H106 5964   3.503   5.966   5.175  0.1579  0.5313  1.5736
   30MOL   H107 5965   3.603   6.105   5.120 -1.0751  1.6658 -0.0214
   30MOL   H108 5966   3.361   6.192   5.251 -0.2500 -1.3378 -2.9900
   30MOL   H109 5967   3.622   6.121   5.385 -1.3968 -0.2963  2.0820
   30MOL   H110 5968   3.382   6.296   5.467  1.1803  0.6051 -0.1738
   30MOL   H111 5969   3.559   6.310   5.520  0.3449  0.1453 -0.9197
   30MOL   C112 5970   3.457   6.148   5.606  1.0080 -0.2666  0.4413
   30MOL   C113 5971   3.460   6.200   5.749  0.7465  0.5324 -0.3996
   30MOL   C114 5972   3.351   6.187   5.830  0.5930 -0.4576  0.0279
   30MOL   C115 5973   3.354   6.193   5.982  0.4465  0.6588 -0.5955
   30MOL   H116 5974   3.369   6.088   5.584  0.5163  0.1053  1.3697
   30MOL   H117 5975   3.539   6.078   5.619 -0.8319 -2.3957  0.9719
   30MOL   H118 5976   3.556   6.216   5.795 -0.0512  0.8818  1.1558
   30MOL   H119 5977   3.251   6.183   5.789  0.0076  0.0578  1.3812
   30MOL   H120 5978   3.458   6.205   6.015  0.0920  1.9507  0.0666
   30MOL   H121 5979   3.324   6.093   6.016 -1.4370  1.3287 -0.2648
   30MOL   C122 5980   3.257   6.301   6.034  0.3802  0.6726 -0.1722
   30MOL   C123 5981   3.115   6.247   6.035 -0.9105 -0.0148  0.2416
   30MOL   C124 5982   3.013   6.288   5.960 -0.2121  0.1462 -0.0035
   30MOL   C125 5983   2.868   6.243   5.980  0.2761  0.6790  0.4464
   30MOL   H126 5984   3.282   6.311   6.140  0.9405  1.4850 -0.3737
   30MOL   H127 5985   3.273   6.397   5.986 -1.2863 -0.1103 -2.3384
   30MOL   H128 5986   3.080   6.188   6.119  0.6122 -1.8784 -0.4016
   30MOL   H129 5987   3.033   6.348   5.872  2.3848  0.8794  1.0144
   30MOL   H130 5988   2.805   6.322   6.022  0.5283  2.1320 -1.8052
   30MOL   H131 5989   2.853   6.164   6.054  0.0306  0.0803 -0.2451
   30MOL   C132 5990   2.804   6.205   5.846 -0.5776 -0.9952  0.2506
   30MOL   C133 5991   2.893   6.117   5.759 -0.3085 -0.4631 -0.4127
   30MOL   C134 5992   2.950   6.155   5.641 -0.3544 -0.5364  0.9004
   30MOL   C135 5993   3.034   6.056   5.564  0.5668 -0.0562 -0.5276
   30MOL   H136 5994   2.715   6.144   5.857  0.5033 -2.8012 -0.8290
   30MOL   H137 5995   2.768   6.300   5.805  2.4663 -0.9126 -2.4631
   30MOL   H138 5996   2.907   6.019   5.802 -1.7114 -0.3720  0.2951
   30MOL   H139 5997   2.942   6.259   5.613 -1.8075 -0.5948  1.0459
   30MOL   H140 5998   2.990   5.958   5.582 -3.7326  1.7496 -0.4213
   30MOL   H141 5999   3.136   6.061   5.600  1.2217  3.0385 -2.5799
   30MOL   C142 6000   3.024   6.063   5.410 -0.1051 -0.7100  0.2089
   30MOL   C143 6001   3.134   5.979   5.342  0.3737  0.2688 -0.0721
   30MOL   C144 6002   3.099   5.889   5.251 -0.2769  0.2395 -1.5330
   30MOL   C145 6003   3.190   5.782   5.196 -0.1049  0.3894 -0.0257
   30MOL   H146 6004   2.923   6.038   5.379  0.2325 -1.2012 -0.4824
   30MOL   H147 6005   3.048   6.164   5.377  1.1407 -0.4721  1.7573
   30MOL   H148 6006   3.237   5.990   5.372  0.8470 -1.2826 -1.0418
   30MOL   H149 6007   2.995   5.861   5.241  0.2217 -2.5773  0.3499
   30MOL   H150 6008   3.280   5.840   5.177 -1.1256  1.5229 -1.5584
   30MOL   H151 6009   3.145   5.759   5.099  0.0117  0.9438 -0.2112
   30MOL   C152 6010   3.183   5.654   5.293 -0.5009  0.1189  0.2242
   30MOL   C153 6011   3.281   5.539   5.258  0.3579  1.1263  0.2564
   30MOL   C154 6012   3.363   5.487   5.346 -0.2565  0.0773  0.3185
   30MOL   C155 6013   3.462   5.368   5.327  0.5624 -0.7161 -0.3022
   30MOL   H156 6014   3.210   5.693   5.391 -1.3211  1.6193 -0.1416
   30MOL   H157 6015   3.084   5.612   5.309 -0.5640 -1.7139 -4.2450
   30MOL   H158 6016   3.276   5.507   5.155  1.2404  0.4864  0.4124
   30MOL   H159 6017   3.362   5.519   5.449 -1.9738 -0.5740  0.5266
   30MOL   H160 6018   3.464   5.327   5.226  1.3457 -1.2243 -0.0869
   30MOL   H161 6019   3.430   5.289   5.395  4.0843  1.5452  4.2220
   30MOL   C162 6020   3.602   5.399   5.365 -0.0924 -0.4700  0.5633
   30MOL   C163 6021   3.659   5.526   5.302 -0.2599  0.4688  0.7072
   30MOL   C164 6022   3.710   5.626   5.374 -0.5582 -0.4526  0.0379
   30MOL   C165 6023   3.758   5.753   5.323  0.5287 -0.0391 -0.1046
   30MOL   H166 6024   3.611   5.416   5.473  2.3734 -0.6572  0.4211
   30MOL   H167 6025   3.668   5.315   5.343 -0.6996 -1.3598  2.0471
   30MOL   H168 6026   3.636   5.528   5.197  1.0347  0.3198  0.4119
   30MOL   H169 6027   3.724   5.623   5.482 -0.9057  0.1642  0.1009
   30MOL   H170 6028   3.728   5.836   5.386  2.4062  0.7741 -0.2594
   30MOL   H171 6029   3.736   5.774   5.219  1.8575 -2.4880 -0.9056
   30MOL   C172 6030   3.906   5.765   5.337 -0.6881  0.1117  0.4068
   30MOL   C173 6031   3.969   5.898   5.311  0.1952 -0.3224 -0.3677
   30MOL   C174 6032   3.900   6.013   5.267 -0.3227 -0.2147 -0.4932
   30MOL   C175 6033   3.965   6.151   5.245 -0.4105 -0.2023  0.2985
   30MOL   H176 6034   3.926   5.749   5.443  0.0001  0.5920  0.3555
   30MOL   H177 6035   3.957   5.693   5.273 -1.6198 -1.3590  1.3061
   30MOL   H178 6036   4.077   5.904   5.308  0.2546 -0.9989  0.3757
   30MOL   H179 6037   3.797   6.020   5.235 -0.6446 -1.9089  0.1399
   30MOL   H180 6038   3.967   6.173   5.138  0.2277  0.7370  0.4918
   30MOL   H181 6039   4.068   6.146   5.280 -0.7927 -0.3658  1.3937
   30MOL   C182 6040   3.903   6.273   5.317 -0.2321 -0.5006  0.5427
   30MOL   C183 6041   3.919   6.253   5.465 -0.2933 -0.3948 -0.0252
   30MOL   C184 6042   3.980   6.344   5.550  0.4609 -0.1873  0.6494
   30MOL   C185 6043   3.979   6.330   5.704  0.2397 -0.4009 -0.4976
   30MOL   H186 6044   3.956   6.364   5.288 -1.2980 -0.4886 -1.4797
   30MOL   H187 6045   3.797   6.281   5.292 -0.2231 -0.6070  0.4709
   30MOL   H188 6046   3.869   6.163   5.499 -0.4632 -0.4773 -0.4824
   30MOL   H189 6047   4.024   6.432   5.506 -3.2720  2.2391  1.5649
   30MOL   H190 6048   4.008   6.431   5.731  0.6298 -0.3177 -1.2233
   30MOL   H191 6049   4.052   6.258   5.742 -0.4377 -0.1987  1.2478
   30MOL   C192 6050   3.840   6.301   5.750 -0.5633 -0.3791 -0.2543
   30MOL   C193 6051   3.832   6.337   5.897  0.8951  0.3571  0.5903
   30MOL   C194 6052   3.784   6.265   5.997  0.0821 -0.5869  0.1047
   30MOL   C195 6053   3.786   6.314   6.140  0.0266 -0.3798  0.0547
   30MOL   H196 6054   3.760   6.355   5.699 -0.9317 -1.5161 -0.8848
   30MOL   H197 6055   3.822   6.194   5.740 -1.9630 -0.0378 -1.6138
   30MOL   H198 6056   3.857   6.441   5.914 -0.7076  0.8210  0.2297
   30MOL   H199 6057   3.754   6.162   5.981 -2.9936  0.3083 -0.2799
   30MOL   H200 6058   3.829   6.412   6.158 -0.6140  0.2046 -1.5578
   30MOL   H201 6059   3.836   6.237   6.200 -0.4782 -0.4968  0.3274
   30MOL   H202 6060   3.685   6.311   6.181 -1.1232 -2.4189 -2.7665
   31MOL     C1 6061   0.368   0.133   5.561 -0.4120  0.4098 -0.0222
   31MOL     C2 6062   0.472   0.076   5.463 -0.6558 -0.0366 -0.5172
   31MOL     C3 6063   0.594   0.125   5.448  0.4910 -0.0287  0.1609
   31MOL     C4 6064   0.696   0.075   5.351  0.8230  0.3531  0.2555
   31MOL     H5 6065   0.397   0.208   5.635 -2.6360  0.0067  1.3170
   31MOL     H6 6066   0.321   0.056   5.621  1.0985 -0.0651  0.5687
   31MOL     H7 6067   0.433   7.968   5.408 -0.0958  0.0004 -0.9733
   31MOL     H8 6068   0.615   0.210   5.511 -1.0862 -0.2300  0.9840
   31MOL     H9 6069   0.745   0.159   5.301 -1.5539  2.8608  1.9940
   31MOL    H10 6070   0.641   0.029   5.269  0.3550 -2.2186  1.9331
   31MOL    H11 6071   0.285   0.171   5.501 -0.1847 -1.9380 -1.8773
   31MOL    C12 6072   0.794   7.948   5.414 -0.5505  0.3907 -0.8570
   31MOL    C13 6073   0.877   7.889   5.301  0.6214 -0.6913  0.1957
   31MOL    C14 6074   1.011   7.898   5.294 -0.3216  0.6125  0.5583
   31MOL    C15 6075   1.094   7.807   5.205 -0.3546 -0.0858  0.2960
   31MOL    H16 6076   0.856   0.027   5.484 -0.6786  1.9338 -1.9543
   31MOL    H17 6077   0.738   7.871   5.468  0.7240 -0.7167 -1.1092
   31MOL    H18 6078   0.825   7.833   5.225 -0.4933 -1.0243  1.1763
   31MOL    H19 6079   1.069   7.960   5.360  1.3154  0.9759 -1.1877
   31MOL    H20 6080   1.116   7.876   5.123  1.6131  1.2130  1.8548
   31MOL    H21 6081   1.039   7.731   5.150 -1.2981  1.4333 -0.8882
   31MOL    C22 6082   1.206   7.741   5.296  0.0280  0.4594 -0.5021
   31MOL    C23 6083   1.305   7.655   5.217  0.6395  0.2114 -0.0673
   31MOL    C24 6084   1.439   7.674   5.222  0.2963  0.9663 -0.7026
   31MOL    C25 6085   1.526   7.586   5.141 -0.6910 -0.0485  0.6776
   31MOL    H26 6086   1.256   7.803   5.371 -3.3041 -0.7447  2.8812
   31MOL    H27 6087   1.159   7.669   5.363  0.4387  0.8184  0.1763
   31MOL    H28 6088   1.258   7.577   5.160 -0.6092  0.3770  0.6869
   31MOL    H29 6089   1.476   7.759   5.277  0.2060  1.3742 -1.2626
   31MOL    H30 6090   1.532   7.639   5.046 -1.9500 -0.0173  0.6006
   31MOL    H31 6091   1.491   7.487   5.109 -1.1609  0.8190 -1.6066
   31MOL    C32 6092   1.658   7.572   5.200  0.6490 -0.4640 -0.2871
   31MOL    C33 6093   1.751   7.487   5.112 -0.9834 -0.5681 -0.4798
   31MOL    C34 6094   1.885   7.505   5.097 -0.3377  0.1665 -0.0970
   31MOL    C35 6095   1.975   7.416   5.007 -0.5292  0.2390 -0.2835
   31MOL    H36 6096   1.696   7.668   5.235  1.4840 -0.7742 -0.3434
   31MOL    H37 6097   1.642   7.511   5.288 -1.5373  1.1388  0.4862
   31MOL    H38 6098   1.707   7.406   5.057 -2.0533 -0.4807  0.2408
   31MOL    H39 6099   1.937   7.584   5.149 -0.5145 -0.8317  1.6079
   31MOL    H40 6100   2.023   7.471   4.927 -1.2945  1.8174  0.3054
   31MOL    H41 6101   1.905   7.347   4.959  0.1002  0.0621 -0.9607
   31MOL    C42 6102   2.084   7.339   5.086 -0.3228  0.3627 -0.1840
   31MOL    C43 6103   2.098   7.206   5.032 -0.3594 -1.1899 -0.1974
   31MOL    C44 6104   2.189   7.162   4.946 -0.2975 -0.3028  0.6043
   31MOL    C45 6105   2.205   7.025   4.872  0.5213 -0.4967 -0.5594
   31MOL    H46 6106   2.178   7.392   5.069 -1.0290  1.3348 -1.1284
   31MOL    H47 6107   2.065   7.324   5.193 -0.5994 -0.1150 -0.3016
   31MOL    H48 6108   2.026   7.134   5.066 -2.5458 -0.0509 -2.2363
   31MOL    H49 6109   2.267   7.232   4.919 -0.7170 -0.2785 -0.5734
   31MOL    H50 6110   2.195   7.046   4.766  1.0973 -1.0970 -0.7324
   31MOL    H51 6111   2.122   6.961   4.902 -0.2707  0.0921 -1.4683
   31MOL    C52 6112   2.338   6.953   4.906  0.8146  0.2838 -1.0967
   31MOL    C53 6113   2.346   6.810   4.844  0.2132  0.0639 -0.4843
   31MOL    C54 6114   2.372   6.697   4.922  0.3482  0.1422  0.1353
   31MOL    C55 6115   2.386   6.557   4.870 -0.2283  0.1828  0.5906
   31MOL    H56 6116   2.425   7.003   4.865  0.9849  0.9137  0.0009
   31MOL    H57 6117   2.349   6.958   5.015  2.2907  1.1417 -1.2699
   31MOL    H58 6118   2.337   6.805   4.737 -1.5540  0.1206 -0.3428
   31MOL    H59 6119   2.393   6.700   5.028  2.6676  0.3312 -0.3036
   31MOL    H60 6120   2.483   6.522   4.904 -0.0835  2.0613  2.2461
   31MOL    H61 6121   2.374   6.554   4.762  0.9246  0.3044  0.4498
   31MOL    C62 6122   2.267   6.468   4.922  0.3812  0.5282 -0.3452
   31MOL    C63 6123   2.304   6.323   4.947 -0.4456  0.1345  0.0542
   31MOL    C64 6124   2.219   6.222   4.932 -0.1486  0.4796 -0.5127
   31MOL    C65 6125   2.255   6.079   4.965 -0.0322  0.2506  0.1403
   31MOL    H66 6126   2.224   6.509   5.014  0.2731  1.1535 -0.6717
   31MOL    H67 6127   2.179   6.474   4.859 -0.3258 -0.4418  0.5436
   31MOL    H68 6128   2.402   6.297   4.983 -0.3530  1.9388  1.1488
   31MOL    H69 6129   2.117   6.242   4.902 -0.5115  1.1255  1.0605
   31MOL    H70 6130   2.221   6.057   5.066 -2.7209  0.2535 -0.7082
   31MOL    H71 6131   2.362   6.059   4.953 -0.5011 -2.6902  0.4743
   31MOL    C72 6132   2.181   5.986   4.869  0.8977  0.4994  0.1614
   31MOL    C73 6133   2.198   5.836   4.907  0.3959 -0.3917  0.1609
   31MOL    C74 6134   2.231   5.734   4.827  0.0056 -0.0679  0.5906
   31MOL    C75 6135   2.231   5.591   4.871  0.1039 -0.3833 -0.2502
   31MOL    H76 6136   2.073   5.997   4.864  0.9420  1.1090  0.5283
   31MOL    H77 6137   2.208   6.007   4.765  2.9259  1.9389  0.9511
   31MOL    H78 6138   2.161   5.810   5.005 -0.8919  0.5662 -0.0638
   31MOL    H79 6139   2.262   5.760   4.727 -0.1877  0.2090  0.6007
   31MOL    H80 6140   2.253   5.574   4.976  0.1729 -0.3944 -0.2667
   31MOL    H81 6141   2.317   5.546   4.821  0.9639  0.8889  0.0769
   31MOL    C82 6142   2.106   5.520   4.825 -0.7209 -0.8188  0.1016
   31MOL    C83 6143   2.113   5.370   4.836 -0.4803  0.6464  0.6107
   31MOL    C84 6144   2.017   5.302   4.901 -0.2856 -0.1562 -0.0038
   31MOL    C85 6145   2.007   5.149   4.892  0.9036 -0.0179 -0.5818
   31MOL    H86 6146   2.025   5.553   4.890 -0.7403 -0.6981  0.0164
   31MOL    H87 6147   2.066   5.548   4.728  1.1582  0.0990 -0.4306
   31MOL    H88 6148   2.192   5.315   4.788 -2.4602 -1.6857 -0.1362
   31MOL    H89 6149   1.939   5.356   4.953  0.1813 -0.5265  1.0919
   31MOL    H90 6150   2.098   5.105   4.850 -0.0392 -2.6183 -0.0081
   31MOL    H91 6151   1.923   5.113   4.832  0.2120 -0.5328  0.6825
   31MOL    C92 6152   1.959   5.097   5.027  0.5987 -0.2777  0.3893
   31MOL    C93 6153   2.060   5.109   5.137 -0.2187  0.6461  0.4628
   31MOL    C94 6154   2.053   5.185   5.246 -0.3387  1.1171 -0.3309
   31MOL    C95 6155   2.156   5.187   5.361 -0.1786  0.1622 -0.3202
   31MOL    H96 6156   1.867   5.149   5.057  1.0417  0.9144 -0.2651
   31MOL    H97 6157   1.944   4.992   5.003  1.1361 -0.7174  1.9185
   31MOL    H98 6158   2.150   5.050   5.124 -0.3070  0.6912 -0.3940
   31MOL    H99 6159   1.970   5.254   5.251  0.7169  2.3153  0.9587
   31MOL   H100 6160   2.250   5.170   5.310 -0.6157  0.0671 -1.0956
   31MOL   H101 6161   2.141   5.104   5.431 -2.9273  0.1780 -0.8205
   31MOL   C102 6162   2.128   5.309   5.451 -0.0463  0.2953 -0.1359
   31MOL   C103 6163   2.003   5.288   5.539  0.2769  0.3257  0.7352
   31MOL   C104 6164   1.905   5.374   5.556 -0.5500  0.4253 -0.4618
   31MOL   C105 6165   1.783   5.350   5.641  0.7158  0.7097 -0.2559
   31MOL   H106 6166   2.219   5.301   5.511 -0.8108 -0.2401  0.9714
   31MOL   H107 6167   2.112   5.402   5.397  2.4437  1.0441  0.3521
   31MOL   H108 6168   1.990   5.187   5.576  0.5906  0.2755  0.7063
   31MOL   H109 6169   1.923   5.473   5.517 -0.2370  0.3475 -0.5120
   31MOL   H110 6170   1.777   5.426   5.719  0.9866 -1.9192  2.4302
   31MOL   H111 6171   1.777   5.258   5.700 -0.6533 -0.5238 -2.2232
   31MOL   C112 6172   1.649   5.356   5.563 -0.3516  0.1507 -0.3253
   31MOL   C113 6173   1.541   5.440   5.637  0.1475  0.9606  0.0463
   31MOL   C114 6174   1.427   5.397   5.687  0.3262  0.5455 -0.0447
   31MOL   C115 6175   1.329   5.486   5.760 -0.1185  0.4516  0.7920
   31MOL   H116 6176   1.671   5.409   5.471 -0.1688  1.3488  0.3940
   31MOL   H117 6177   1.612   5.258   5.535  2.2469 -0.2543 -2.4654
   31MOL   H118 6178   1.574   5.538   5.667  1.7017 -0.0687  1.7766
   31MOL   H119 6179   1.391   5.295   5.687 -0.3379  0.7754  0.9569
   31MOL   H120 6180   1.251   5.414   5.787 -1.3278  0.7268 -1.7615
   31MOL   H121 6181   1.291   5.559   5.689  0.2746  1.1387  1.2832
   31MOL   C122 6182   1.384   5.540   5.887 -0.3516  0.0674 -0.9565
   31MOL   C123 6183   1.295   5.623   5.979 -0.1031  0.3764 -0.0856
   31MOL   C124 6184   1.167   5.650   5.973  0.8640  0.2899  0.5228
   31MOL   C125 6185   1.081   5.719   6.071 -0.0840 -0.9787  0.7720
   31MOL   H126 6186   1.428   5.464   5.952 -0.1851 -1.1999 -2.5371
   31MOL   H127 6187   1.461   5.615   5.866  0.1412 -0.0916  0.2475
   31MOL   H128 6188   1.345   5.657   6.069 -0.0352  0.1936 -0.0533
   31MOL   H129 6189   1.122   5.606   5.885  1.0017  1.5792 -0.2211
   31MOL   H130 6190   1.045   5.810   6.024 -1.1958 -0.7213  2.0557
   31MOL   H131 6191   1.158   5.748   6.142 -0.0864  0.7168  0.0922
   31MOL   C132 6192   0.967   5.637   6.132  0.7283  0.2432 -0.3883
   31MOL   C133 6193   1.027   5.550   6.248 -0.6363  0.7904 -0.4524
   31MOL   C134 6194   0.953   5.506   6.351  0.0381  0.2077 -0.0739
   31MOL   C135 6195   1.005   5.411   6.456 -0.7261  0.2734 -0.1285
   31MOL   H136 6196   0.894   5.702   6.181 -1.6849 -1.2730 -1.8233
   31MOL   H137 6197   0.919   5.577   6.054 -1.1952  0.5466  0.5264
   31MOL   H138 6198   1.134   5.537   6.257 -0.8622  0.1933  1.5551
   31MOL   H139 6199   0.852   5.544   6.353 -0.4810 -1.0259 -1.7078
   31MOL   H140 6200   0.993   5.473   6.545 -0.8047  1.5892 -1.0428
   31MOL   H141 6201   1.110   5.396   6.431 -1.0104 -2.0241 -0.0684
   31MOL   C142 6202   0.933   5.279   6.464  0.3735 -0.0977 -0.3578
   31MOL   C143 6203   0.995   5.191   6.573 -0.6183  0.3369  0.0139
   31MOL   C144 6204   0.938   5.135   6.679 -0.6691  0.0679  0.0576
   31MOL   C145 6205   1.018   5.070   6.793 -0.4252 -0.3268 -0.0460
   31MOL   H146 6206   0.828   5.284   6.491  0.0716  0.5609 -1.6502
   31MOL   H147 6207   0.942   5.218   6.374  3.1891 -0.9297  0.4188
   31MOL   H148 6208   1.102   5.186   6.555 -0.6255  1.2546 -0.3085
   31MOL   H149 6209   0.832   5.149   6.697 -0.4707  2.4800 -0.4857
   31MOL   H150 6210   0.947   5.020   6.859 -2.9803  0.2980 -2.2325
   31MOL   H151 6211   1.063   5.154   6.845 -0.5798  0.8578 -1.8004
   31MOL   C152 6212   1.116   4.968   6.743  0.4860  0.0164 -0.4269
   31MOL   C153 6213   1.203   4.903   6.844  0.4781 -0.5906  0.3259
   31MOL   C154 6214   1.206   4.776   6.885  0.4063  0.2117 -0.4205
   31MOL   C155 6215   1.288   4.728   7.004  0.0296 -0.1153 -0.6529
   31MOL   H156 6216   1.071   4.888   6.684 -3.4116  1.4046  0.5052
   31MOL   H157 6217   1.186   5.024   6.680 -1.4695  1.1738 -1.6223
   31MOL   H158 6218   1.262   4.972   6.903 -0.8587  1.5115 -0.7288
   31MOL   H159 6219   1.141   4.708   6.831  1.9109 -0.4608 -1.4199
   31MOL   H160 6220   1.358   4.801   7.044 -1.5933  1.8033 -1.2572
   31MOL   H161 6221   1.340   4.637   6.974 -2.0292 -1.4325 -0.2565
   31MOL   C162 6222   1.203   4.681   7.121 -0.6026 -0.3620  0.3352
   31MOL   C163 6223   1.281   4.618   7.225 -0.5286  0.6290 -0.0078
   31MOL   C164 6224   1.321   4.676   7.336  0.4875  0.4330 -0.1414
   31MOL   C165 6225   1.408   4.612   7.443 -0.3141  0.2319 -0.2017
   31MOL   H166 6226   1.150   4.768   7.161  1.1205  1.1304 -0.5709
   31MOL   H167 6227   1.124   4.614   7.089 -1.3443  1.1919 -1.1994
   31MOL   H168 6228   1.316   4.517   7.210 -0.8337  0.4363  0.5875
   31MOL   H169 6229   1.301   4.780   7.357  0.8814 -0.2227  3.9238
   31MOL   H170 6230   1.413   4.507   7.413  4.3959  0.1707  0.4119
   31MOL   H171 6231   1.359   4.603   7.540  0.1636 -0.4131 -0.0151
   31MOL   C172 6232   1.554   4.676   7.429  0.3857 -0.0290  0.2734
   31MOL   C173 6233   1.650   4.592   7.504  0.6111 -0.2413  0.6289
   31MOL   C174 6234   1.647   4.594   7.635 -0.0818  0.6794  0.2788
   31MOL   C175 6235   1.740   4.505   7.720 -0.0561 -0.0633  0.1712
   31MOL   H176 6236   1.580   4.685   7.324  2.3019  1.6811  0.8484
   31MOL   H177 6237   1.547   4.778   7.467  0.3008 -0.4527  1.4354
   31MOL   H178 6238   1.697   4.512   7.448  0.5909 -0.1367  0.4631
   31MOL   H179 6239   1.580   4.664   7.683 -0.7300 -0.9191  1.7750
   31MOL   H180 6240   1.824   4.554   7.769 -1.0073  0.9876  0.7692
   31MOL   H181 6241   1.773   4.422   7.657  3.1412  1.2602 -0.0032
   31MOL   C182 6242   1.671   4.425   7.835  0.2996  0.8129 -0.7481
   31MOL   C183 6243   1.762   4.318   7.896 -0.1405 -0.2090  0.7971
   31MOL   C184 6244   1.772   4.193   7.843  0.4270  0.4822  0.0480
   31MOL   C185 6245   1.878   4.096   7.877  0.6292  0.0465  0.6217
   31MOL   H186 6246   1.644   4.490   7.919  1.0485 -0.0617  0.1631
   31MOL   H187 6247   1.582   4.374   7.797  1.4340  0.7714 -3.4698
   31MOL   H188 6248   1.840   4.360   7.958  0.8667  0.1955 -0.6954
   31MOL   H189 6249   1.710   4.149   7.767 -1.1217 -1.9597  2.6401
   31MOL   H190 6250   1.836   4.006   7.922  0.4469  0.1906  0.7417
   31MOL   H191 6251   1.937   4.144   7.955 -1.1470  0.9191  1.4683
   31MOL   C192 6252   1.966   4.058   7.762 -0.8537 -0.1753 -0.1209
   31MOL   C193 6253   2.031   4.178   7.704 -0.6486 -0.2480 -0.1038
   31MOL   C194 6254   2.157   4.186   7.659 -0.4084  0.2846 -0.0176
   31MOL   C195 6255   2.220   4.309   7.595 -0.0412  0.4190  0.1450
   31MOL   H196 6256   2.041   3.986   7.793 -3.0627 -2.6551 -0.3949
   31MOL   H197 6257   1.910   4.017   7.678 -1.7653 -1.7087  1.2147
   31MOL   H198 6258   1.963   4.262   7.703  2.3450  2.2323 -1.4127
   31MOL   H199 6259   2.213   4.094   7.664 -2.9071 -1.3227 -0.7253
   31MOL   H200 6260   2.324   4.313   7.628  0.0021 -1.3865  0.3049
   31MOL   H201 6261   2.158   4.393   7.626  1.7624  1.4922  0.8869
   31MOL   H202 6262   2.214   4.290   7.488  1.7479  1.2590 -0.1135
   32MOL     C1 6263   6.080   1.662   2.322  0.0877 -0.0276  1.5432
   32MOL     C2 6264   5.977   1.575   2.245  0.0956 -0.9944  0.0836
   32MOL     C3 6265   5.955   1.595   2.113  0.1232  0.6377  0.0266
   32MOL     C4 6266   5.859   1.515   2.033 -0.0668 -0.1415  0.5807
   32MOL     H5 6267   6.106   1.748   2.260 -1.2584 -1.5048 -1.1587
   32MOL     H6 6268   6.174   1.612   2.348  0.7161  0.8723  1.0378
   32MOL     H7 6269   5.931   1.492   2.295  0.8071 -2.0009 -0.9196
   32MOL     H8 6270   6.016   1.673   2.070 -0.2073  0.3122 -1.0522
   32MOL     H9 6271   5.789   1.469   2.103  0.6817  0.6860  1.9097
   32MOL    H10 6272   5.911   1.430   1.989 -0.4820 -0.0145 -0.1567
   32MOL    H11 6273   6.034   1.703   2.411 -0.8800  0.1914  0.9446
   32MOL    C12 6274   5.791   1.612   1.937 -0.0386 -0.2101 -0.3463
   32MOL    C13 6275   5.687   1.542   1.852  0.9532 -0.2992  0.0451
   32MOL    C14 6276   5.690   1.543   1.718  0.0893  0.8702  0.7336
   32MOL    C15 6277   5.607   1.453   1.635 -0.3815  0.4274  0.4261
   32MOL    H16 6278   5.727   1.685   1.988  1.3387  1.1447 -0.5054
   32MOL    H17 6279   5.861   1.669   1.876 -1.9900  1.0437 -1.4775
   32MOL    H18 6280   5.605   1.486   1.897  0.3816  1.6369  1.4763
   32MOL    H19 6281   5.765   1.599   1.665 -1.2089  1.2699 -0.6891
   32MOL    H20 6282   5.536   1.390   1.690  1.0012 -0.4544  1.2360
   32MOL    H21 6283   5.681   1.385   1.593 -2.0162 -1.4635  0.5486
   32MOL    C22 6284   5.540   1.523   1.518 -0.1443  0.6288 -0.0855
   32MOL    C23 6285   5.492   1.429   1.406  0.5757  0.0916  0.0078
   32MOL    C24 6286   5.365   1.406   1.368 -0.4382 -0.0796 -0.7534
   32MOL    C25 6287   5.326   1.306   1.258  0.7034  0.1072  0.1179
   32MOL    H26 6288   5.451   1.575   1.553  0.7690  1.7082  0.6750
   32MOL    H27 6289   5.608   1.598   1.477  2.4072 -1.7337 -0.2838
   32MOL    H28 6290   5.573   1.385   1.351  0.3549  1.4968 -1.4491
   32MOL    H29 6291   5.291   1.459   1.426 -1.2034  1.2248 -2.8871
   32MOL    H30 6292   5.287   1.213   1.299 -0.6634  1.2287  1.4204
   32MOL    H31 6293   5.417   1.289   1.199  0.9428  2.7084 -0.3284
   32MOL    C32 6294   5.236   1.362   1.149  0.3177 -0.4346 -0.4455
   32MOL    C33 6295   5.223   1.258   1.038  0.1118  0.1305 -0.2160
   32MOL    C34 6296   5.119   1.179   1.012  0.6136  1.0094 -0.3995
   32MOL    C35 6297   5.104   1.067   0.917  0.7954 -0.2913  0.5059
   32MOL    H36 6298   5.133   1.383   1.179 -0.4226 -1.0725 -2.4609
   32MOL    H37 6299   5.278   1.451   1.102 -1.3454  0.5699 -0.0794
   32MOL    H38 6300   5.298   1.245   0.961 -1.6961 -1.1402 -1.8140
   32MOL    H39 6301   5.027   1.188   1.068 -0.3420  2.5852 -2.1457
   32MOL    H40 6302   5.195   1.062   0.858  0.5665 -1.2644  0.2295
   32MOL    H41 6303   5.016   1.094   0.858  0.5785 -1.7631  0.1339
   32MOL    C42 6304   5.083   0.934   0.987  1.2137  0.1958  0.4032
   32MOL    C43 6305   4.979   0.844   0.915 -0.2306  0.2360 -0.4821
   32MOL    C44 6306   4.871   0.782   0.965 -0.2588  0.3566 -0.6037
   32MOL    C45 6307   4.773   0.700   0.885 -0.1802 -0.6182  0.5056
   32MOL    H46 6308   5.177   0.881   1.003  1.5723  1.0979  1.3184
   32MOL    H47 6309   5.042   0.941   1.088 -2.4395  1.1394 -1.1040
   32MOL    H48 6310   5.001   0.843   0.810  3.0089  0.9663  0.1608
   32MOL    H49 6311   4.858   0.793   1.072  0.6028  0.1456 -0.4696
   32MOL    H50 6312   4.798   0.722   0.781  0.2970  2.2282  1.1873
   32MOL    H51 6313   4.676   0.746   0.900 -0.8474 -2.2345  1.2322
   32MOL    C52 6314   4.773   0.556   0.939  0.0537  0.9231 -0.7735
   32MOL    C53 6315   4.718   0.443   0.842 -0.4331  0.2498  0.6059
   32MOL    C54 6316   4.656   0.333   0.889 -0.1794 -0.1356 -0.0167
   32MOL    C55 6317   4.581   0.223   0.812  0.1696 -0.0701 -0.4081
   32MOL    H56 6318   4.878   0.527   0.953 -0.2304 -0.4927 -1.4703
   32MOL    H57 6319   4.722   0.560   1.035  1.0104  1.2819 -0.2697
   32MOL    H58 6320   4.745   0.449   0.737 -1.4219 -1.4646  0.2401
   32MOL    H59 6321   4.630   0.320   0.993 -0.3936 -0.8461 -0.1558
   32MOL    H60 6322   4.657   0.178   0.749 -1.4763 -3.7265  0.0982
   32MOL    H61 6323   4.509   0.265   0.741  0.8235 -0.5521 -1.3643
   32MOL    C62 6324   4.510   0.111   0.880  0.2548  0.0715  0.2715
   32MOL    C63 6325   4.412   0.171   0.974 -0.8458 -0.0458  0.2123
   32MOL    C64 6326   4.375   0.147   1.097  0.1711  0.3334 -0.0319
   32MOL    C65 6327   4.270   0.224   1.181  0.2997  0.2089 -0.0477
   32MOL    H66 6328   4.457   0.052   0.805  2.3653  0.3669 -1.4982
   32MOL    H67 6329   4.571   0.039   0.935  0.5417 -1.2104 -1.6705
   32MOL    H68 6330   4.364   0.259   0.934  1.4571  1.4486  0.7143
   32MOL    H69 6331   4.421   0.060   1.141  2.0913  1.5579  0.4424
   32MOL    H70 6332   4.237   0.315   1.131 -0.3268  0.2750  0.4858
   32MOL    H71 6333   4.310   0.267   1.273 -2.2710  0.5126  0.9753
   32MOL    C72 6334   4.142   0.136   1.212 -0.2341 -0.4492  1.2810
   32MOL    C73 6335   4.017   0.208   1.259  0.1887 -0.2907  0.3528
   32MOL    C74 6336   3.991   0.340   1.276 -0.4211  0.4906  1.0125
   32MOL    C75 6337   3.868   0.413   1.316 -0.1708  0.8841  0.1198
   32MOL    H76 6338   4.111   0.082   1.123  1.4452  1.5836 -0.5642
   32MOL    H77 6339   4.172   0.067   1.291  0.0100  0.3057  1.8554
   32MOL    H78 6340   3.938   0.144   1.296 -1.7788  1.2499 -1.0659
   32MOL    H79 6341   4.061   0.417   1.247 -0.6178  0.9981  1.8639
   32MOL    H80 6342   3.786   0.343   1.303  0.2099  0.8185 -2.2738
   32MOL    H81 6343   3.848   0.490   1.241  0.3638  1.0725  0.1657
   32MOL    C82 6344   3.876   0.473   1.454  0.2912 -0.9660 -0.6162
   32MOL    C83 6345   3.850   0.381   1.571  0.3104 -0.4200  0.0761
   32MOL    C84 6346   3.908   0.387   1.691 -0.7723  0.0833 -0.2391
   32MOL    C85 6347   3.900   0.275   1.796 -0.2626  0.6478 -0.2399
   32MOL    H86 6348   3.973   0.523   1.460 -0.2278 -0.0301  0.2490
   32MOL    H87 6349   3.805   0.555   1.464  2.0866  0.4189  1.3655
   32MOL    H88 6350   3.780   0.300   1.552  2.1755 -2.0573  0.0264
   32MOL    H89 6351   3.982   0.463   1.712  0.3203 -0.7726 -1.0002
   32MOL    H90 6352   3.817   0.209   1.770  1.2230  0.2624 -4.2964
   32MOL    H91 6353   3.882   0.326   1.891 -2.0793 -0.0221 -0.2080
   32MOL    C92 6354   4.023   0.190   1.807 -0.0029  0.4552  0.2595
   32MOL    C93 6355   4.009   0.095   1.919 -0.4406 -0.2083 -0.2881
   32MOL    C94 6356   4.042   0.131   2.044 -0.6318  0.0407 -0.3101
   32MOL    C95 6357   4.013   0.057   2.173 -0.5313  0.5727  0.8164
   32MOL    H96 6358   4.043   0.131   1.717 -0.7301 -0.9941  1.0303
   32MOL    H97 6359   4.109   0.254   1.825  0.0837  0.3193  0.3250
   32MOL    H98 6360   3.950   0.007   1.898 -2.0425  0.6595  0.5020
   32MOL    H99 6361   4.096   0.223   2.060  0.6250 -0.6506 -0.4965
   32MOL   H100 6362   3.935   7.957   2.170 -1.4371  1.4698  0.9645
   32MOL   H101 6363   3.982   0.122   2.254 -0.4952  0.8583  0.6009
   32MOL   C102 6364   4.137   7.947   2.212 -0.0895 -0.4472  0.6231
   32MOL   C103 6365   4.118   7.904   2.356 -0.8093 -0.1385 -0.2830
   32MOL   C104 6366   4.051   7.790   2.388 -0.2757  0.4396  0.6229
   32MOL   C105 6367   4.050   7.737   2.529 -0.2462 -0.2986 -0.2850
   32MOL   H106 6368   4.157   7.862   2.147 -2.7146  1.0560 -2.3155
   32MOL   H107 6369   4.220   0.040   2.209 -1.7891  1.6217  0.9128
   32MOL   H108 6370   4.169   7.963   2.430 -1.0296 -0.4008  0.0783
   32MOL   H109 6371   4.008   7.729   2.310  0.0100 -0.7955  1.4026
   32MOL   H110 6372   4.046   7.819   2.601  1.5439  1.2213 -1.8710
   32MOL   H111 6373   4.139   7.680   2.557 -0.5006  0.3555  1.9615
   32MOL   C112 6374   3.928   7.648   2.550  0.3595  0.5478 -0.3907
   32MOL   C113 6375   3.929   7.603   2.693  0.9257  0.0028  0.2629
   32MOL   C114 6376   3.847   7.637   2.798 -0.1500  0.3215  0.5774
   32MOL   C115 6377   3.881   7.585   2.936 -0.1872  0.1576 -0.2558
   32MOL   H116 6378   3.834   7.697   2.526 -0.7589 -1.4868 -0.3000
   32MOL   H117 6379   3.937   7.554   2.496 -1.3951  0.9408 -1.4058
   32MOL   H118 6380   4.015   7.545   2.721  0.6606  0.6431  2.5204
   32MOL   H119 6381   3.763   7.703   2.783  1.3059  1.7016 -1.9184
   32MOL   H120 6382   3.922   7.485   2.927 -1.5729 -0.4687  0.3510
   32MOL   H121 6383   3.793   7.580   3.000  0.5636 -2.2235  0.6112
   32MOL   C122 6384   3.993   7.672   2.997 -0.5567 -0.0256 -0.4066
   32MOL   C123 6385   4.006   7.631   3.144 -0.0939 -0.4981  0.2644
   32MOL   C124 6386   4.011   7.724   3.241 -0.4468 -0.4772  0.4441
   32MOL   C125 6387   4.036   7.702   3.393 -0.3457 -0.3142 -0.9699
   32MOL   H126 6388   4.088   7.658   2.947 -1.2503 -0.6104 -1.5880
   32MOL   H127 6389   3.969   7.778   3.005 -3.0446 -0.7122  1.9700
   32MOL   H128 6390   4.013   7.526   3.168 -0.6816 -0.2829  1.4149
   32MOL   H129 6391   4.002   7.828   3.213  2.7459 -0.3351 -0.2676
   32MOL   H130 6392   3.987   7.609   3.421 -1.2999  0.1624 -1.0630
   32MOL   H131 6393   4.003   7.788   3.451 -0.7267 -0.3788 -1.0909
   32MOL   C132 6394   4.192   7.678   3.416  0.5355  0.2254 -0.4198
   32MOL   C133 6395   4.210   7.651   3.561  0.3015 -0.0401  1.5918
   32MOL   C134 6396   4.279   7.726   3.646 -0.0838  0.0425  0.3835
   32MOL   C135 6397   4.278   7.697   3.795  0.1506 -0.0016  0.0267
   32MOL   H136 6398   4.230   7.605   3.345 -1.1786 -0.9513 -0.1489
   32MOL   H137 6399   4.241   7.773   3.392 -1.2174  1.4220  0.5373
   32MOL   H138 6400   4.160   7.563   3.600  1.1866 -1.0395  0.4962
   32MOL   H139 6401   4.334   7.809   3.605 -1.2926  1.2503  1.2008
   32MOL   H140 6402   4.195   7.639   3.834 -0.1092  0.9312  0.8839
   32MOL   H141 6403   4.260   7.794   3.842 -0.5759 -1.1116  2.0893
   32MOL   C142 6404   4.399   7.629   3.857  0.1417 -0.2704  0.1843
   32MOL   C143 6405   4.379   7.584   4.002  0.1308  0.2782  0.1001
   32MOL   C144 6406   4.404   7.458   4.048 -0.1699 -0.4090 -0.0141
   32MOL   C145 6407   4.378   7.423   4.187 -0.1998 -0.2232  0.3922
   32MOL   H146 6408   4.415   7.535   3.804 -0.2846 -1.6754  2.4746
   32MOL   H147 6409   4.482   7.700   3.860 -2.0203  2.2934  1.2530
   32MOL   H148 6410   4.346   7.655   4.076  0.1248  0.1067  0.2620
   32MOL   H149 6411   4.445   7.383   3.982 -0.1080  0.0759 -0.5374
   32MOL   H150 6412   4.296   7.485   4.225 -1.0972 -0.6335 -0.8259
   32MOL   H151 6413   4.471   7.427   4.243 -0.3888 -0.2222  0.7078
   32MOL   C152 6414   4.328   7.279   4.193  0.0858  0.1428  0.1671
   32MOL   C153 6415   4.265   7.243   4.321  0.3721 -0.3770 -0.4325
   32MOL   C154 6416   4.314   7.156   4.413  0.2188 -0.6477  0.1458
   32MOL   C155 6417   4.251   7.110   4.540 -0.0192  0.2408  0.6735
   32MOL   H156 6418   4.251   7.267   4.117  0.9121 -0.7889 -0.5306
   32MOL   H157 6419   4.406   7.206   4.170 -0.2240  0.7887 -3.0920
   32MOL   H158 6420   4.161   7.268   4.341  0.6250 -0.0518  0.4875
   32MOL   H159 6421   4.414   7.121   4.398 -0.2645 -2.2630  0.6081
   32MOL   H160 6422   4.159   7.056   4.517  0.9210 -0.4465 -1.6243
   32MOL   H161 6423   4.215   7.199   4.591  0.0329  0.5484  0.1864
   32MOL   C162 6424   4.331   7.013   4.628  1.0545 -0.0324 -0.0050
   32MOL   C163 6425   4.389   6.898   4.552 -0.3864  0.7492  0.2779
   32MOL   C164 6426   4.524   6.869   4.557 -0.3674 -0.4258  0.8319
   32MOL   C165 6427   4.587   6.752   4.487  0.4960  0.6007  0.1154
   32MOL   H166 6428   4.401   7.067   4.692  0.6140  2.6272 -1.7161
   32MOL   H167 6429   4.268   6.966   4.705 -0.7014  1.3205 -0.5852
   32MOL   H168 6430   4.323   6.819   4.517 -1.5006  0.2501  3.3154
   32MOL   H169 6431   4.595   6.931   4.610 -1.9478 -1.0456  3.8327
   32MOL   H170 6432   4.648   6.797   4.409  1.2649  0.1014  0.4178
   32MOL   H171 6433   4.510   6.695   4.436  0.7728  0.9586 -0.7013
   32MOL   C172 6434   4.664   6.654   4.585  0.7534 -0.1604  0.4383
   32MOL   C173 6435   4.726   6.543   4.503 -0.0545 -1.3383 -0.0844
   32MOL   C174 6436   4.699   6.500   4.383 -0.4174 -0.0488  0.3528
   32MOL   C175 6437   4.754   6.370   4.312  0.9183  0.1344 -0.0765
   32MOL   H176 6438   4.739   6.693   4.653  0.0917 -1.8930  2.2017
   32MOL   H177 6439   4.592   6.610   4.653  1.0004  0.6823  1.2552
   32MOL   H178 6440   4.797   6.484   4.560  0.6787 -0.4642 -0.0892
   32MOL   H179 6441   4.633   6.555   4.318  2.3129  1.6127 -1.1066
   32MOL   H180 6442   4.838   6.326   4.365  0.0880 -1.6980 -0.2518
   32MOL   H181 6443   4.788   6.412   4.217 -0.0931  0.5142 -0.2795
   32MOL   C182 6444   4.641   6.266   4.299 -0.4791  0.1231 -0.1899
   32MOL   C183 6445   4.692   6.142   4.228 -0.2098  0.4709 -0.3724
   32MOL   C184 6446   4.631   6.068   4.128 -0.0914 -0.5993  0.7735
   32MOL   C185 6447   4.688   5.938   4.074  0.4312 -0.7537 -0.0435
   32MOL   H186 6448   4.630   6.228   4.401 -0.2654  1.3328  0.2949
   32MOL   H187 6449   4.547   6.296   4.251 -0.0510 -0.3301 -1.3108
   32MOL   H188 6450   4.790   6.111   4.259 -0.6384 -1.1690 -0.6218
   32MOL   H189 6451   4.533   6.092   4.089 -0.1141  0.3614  1.4044
   32MOL   H190 6452   4.794   5.938   4.099 -0.0419 -2.5367  2.0985
   32MOL   H191 6453   4.671   5.942   3.966  2.4928 -1.1751 -0.4195
   32MOL   C192 6454   4.624   5.817   4.146  0.6290 -0.6802 -0.2152
   32MOL   C193 6455   4.697   5.689   4.105  0.2141 -0.1224 -0.6381
   32MOL   C194 6456   4.753   5.603   4.192  0.5546  0.0163  0.5307
   32MOL   C195 6457   4.840   5.486   4.146 -0.2575 -0.5625  0.5926
   32MOL   H196 6458   4.619   5.841   4.253  0.9094  0.5584 -0.4700
   32MOL   H197 6459   4.521   5.801   4.116  1.3023  0.0172 -2.9894
   32MOL   H198 6460   4.697   5.668   3.999  0.4625 -3.9331  0.0438
   32MOL   H199 6461   4.753   5.628   4.297 -0.1205 -0.3214  0.6077
   32MOL   H200 6462   4.943   5.514   4.165 -0.3136  0.3678 -0.4308
   32MOL   H201 6463   4.825   5.458   4.042  0.8446 -0.2198  0.3366
   32MOL   H202 6464   4.828   5.404   4.217  0.5135  1.0551  2.6715
   33MOL     C1 6465   1.319   5.805   2.400  0.5136  0.1820  0.3260
   33MOL     C2 6466   1.415   5.729   2.317 -0.6333  0.3709 -0.1157
   33MOL     C3 6467   1.414   5.714   2.185  0.0544 -1.0409  0.4110
   33MOL     C4 6468   1.502   5.627   2.099  0.4629 -0.0451 -0.0547
   33MOL     H5 6469   1.232   5.842   2.344  0.5184 -0.1003  0.1309
   33MOL     H6 6470   1.372   5.892   2.440  2.1459 -1.0742  0.8983
   33MOL     H7 6471   1.493   5.688   2.378 -0.8645 -0.3421 -0.2873
   33MOL     H8 6472   1.334   5.763   2.132  1.0644  2.0089  1.5545
   33MOL     H9 6473   1.440   5.546   2.060 -1.3141  0.3087  1.9345
   33MOL    H10 6474   1.572   5.565   2.155 -1.3022 -0.6792  1.4924
   33MOL    H11 6475   1.287   5.741   2.481  0.7140  1.1065  1.1460
   33MOL    C12 6476   1.571   5.699   1.978 -0.3511  0.3564 -0.8221
   33MOL    C13 6477   1.678   5.797   2.023  0.3506 -0.0968 -0.4097
   33MOL    C14 6478   1.693   5.925   1.979 -0.1899 -0.3008 -0.4680
   33MOL    C15 6479   1.804   6.017   2.026 -0.9601  0.3891 -0.0582
   33MOL    H16 6480   1.623   5.626   1.916  0.9746  2.2545 -2.0181
   33MOL    H17 6481   1.492   5.747   1.919 -0.4370 -0.0573 -1.0440
   33MOL    H18 6482   1.751   5.752   2.089 -0.1762 -0.6385 -0.1884
   33MOL    H19 6483   1.626   5.970   1.906 -0.6961  1.2797  0.9426
   33MOL    H20 6484   1.875   5.977   2.099 -0.2501  2.2039  0.2673
   33MOL    H21 6485   1.753   6.100   2.075  0.9130  1.4450  0.1522
   33MOL    C22 6486   1.900   6.058   1.912 -0.0548 -0.7428  0.3599
   33MOL    C23 6487   2.021   6.134   1.967  0.7804  0.3577  0.1479
   33MOL    C24 6488   2.046   6.186   2.088 -0.1569  1.2601 -0.7972
   33MOL    C25 6489   2.171   6.264   2.114  0.4951  0.0330  0.0768
   33MOL    H26 6490   1.932   5.967   1.860  0.2772  0.6102 -1.8571
   33MOL    H27 6491   1.848   6.114   1.835  1.3288 -0.0159 -0.0629
   33MOL    H28 6492   2.083   6.152   1.880 -0.4026 -3.2268 -1.5358
   33MOL    H29 6493   1.972   6.170   2.165  0.4346  0.5793 -0.3686
   33MOL    H30 6494   2.218   6.292   2.020 -1.0419  0.2963 -0.6325
   33MOL    H31 6495   2.237   6.195   2.168  1.8266  0.8490 -0.4854
   33MOL    C32 6496   2.143   6.394   2.184 -0.0428  0.3441 -0.2472
   33MOL    C33 6497   2.267   6.453   2.245 -0.1194  0.2787 -0.6893
   33MOL    C34 6498   2.327   6.572   2.215  0.5427  0.7657 -0.3557
   33MOL    C35 6499   2.452   6.640   2.281  0.4291 -0.7416 -0.1826
   33MOL    H36 6500   2.103   6.475   2.122  1.3909 -1.5659 -3.8439
   33MOL    H37 6501   2.070   6.373   2.261  0.7329  1.5305  0.8283
   33MOL    H38 6502   2.321   6.389   2.313  0.9828  0.6202 -1.2252
   33MOL    H39 6503   2.275   6.632   2.142  1.3019 -0.3154 -1.7850
   33MOL    H40 6504   2.415   6.740   2.302 -1.0021 -1.4420  0.7122
   33MOL    H41 6505   2.530   6.646   2.204  0.5885  2.1818  0.1511
   33MOL    C42 6506   2.509   6.575   2.405 -0.2496 -0.4906  0.7287
   33MOL    C43 6507   2.421   6.577   2.523  0.1573 -0.3656 -0.0848
   33MOL    C44 6508   2.450   6.617   2.649  0.2873  0.2817  0.1925
   33MOL    C45 6509   2.360   6.595   2.770  0.0058 -0.3472  0.2311
   33MOL    H46 6510   2.541   6.473   2.387 -1.7777 -0.7304 -0.7880
   33MOL    H47 6511   2.600   6.628   2.431 -1.2076  1.0168  1.1003
   33MOL    H48 6512   2.321   6.540   2.504 -0.2778  1.9354 -2.5218
   33MOL    H49 6513   2.550   6.655   2.665 -0.1460  1.0393  1.1545
   33MOL    H50 6514   2.392   6.497   2.805  1.4510  0.2552  0.6598
   33MOL    H51 6515   2.254   6.584   2.746  0.1173  1.2698 -1.0637
   33MOL    C52 6516   2.387   6.695   2.883  0.2803 -0.0018 -0.2592
   33MOL    C53 6517   2.283   6.665   2.991  0.2748  0.1160 -0.3411
   33MOL    C54 6518   2.314   6.664   3.124 -0.2312  0.0537  0.6338
   33MOL    C55 6519   2.207   6.656   3.236  0.1704 -0.0985 -0.5512
   33MOL    H56 6520   2.489   6.675   2.917  0.4351 -1.2339 -1.4082
   33MOL    H57 6521   2.385   6.795   2.841 -1.1639 -0.4481 -1.2957
   33MOL    H58 6522   2.177   6.666   2.967  0.2055  0.1195 -0.0391
   33MOL    H59 6523   2.416   6.670   3.159 -0.3766  0.1846  1.0335
   33MOL    H60 6524   2.107   6.645   3.193  0.6691 -2.6629 -1.1525
   33MOL    H61 6525   2.211   6.754   3.283  1.0839  0.3518 -1.5401
   33MOL    C62 6526   2.238   6.533   3.327 -0.4228 -0.8833  0.0999
   33MOL    C63 6527   2.167   6.546   3.463 -0.1430 -0.4903 -0.2594
   33MOL    C64 6528   2.216   6.597   3.578 -0.1929 -0.5412  0.3059
   33MOL    C65 6529   2.155   6.602   3.712  0.2859 -0.1082  0.2875
   33MOL    H66 6530   2.225   6.435   3.281 -0.6796 -0.7327 -0.1508
   33MOL    H67 6531   2.344   6.532   3.351 -0.5008 -0.1090  0.4960
   33MOL    H68 6532   2.068   6.504   3.463  0.0570 -0.9739  0.7840
   33MOL    H69 6533   2.309   6.650   3.591  0.5353 -1.9243  0.7788
   33MOL    H70 6534   2.216   6.545   3.782  0.7812  0.8263  0.6301
   33MOL    H71 6535   2.052   6.567   3.716  0.5039 -0.6614  1.2216
   33MOL    C72 6536   2.137   6.747   3.763 -0.3654 -0.4228  0.4144
   33MOL    C73 6537   2.059   6.769   3.886  0.2515 -0.8394 -0.4424
   33MOL    C74 6538   1.961   6.857   3.905  0.1522 -0.1206  0.0510
   33MOL    C75 6539   1.897   6.877   4.042 -0.1472  0.4252  0.6358
   33MOL    H76 6540   2.235   6.793   3.772 -0.4679 -0.3584  1.2145
   33MOL    H77 6541   2.091   6.802   3.681  0.8397  1.6626  1.1202
   33MOL    H78 6542   2.100   6.712   3.968  1.9997 -0.3515 -0.9517
   33MOL    H79 6543   1.925   6.922   3.827  1.5313  1.5011  0.7050
   33MOL    H80 6544   1.926   6.973   4.083  0.6132  0.2985  0.4115
   33MOL    H81 6545   1.929   6.802   4.114 -0.1972 -0.4466 -0.2432
   33MOL    C82 6546   1.742   6.855   4.039  0.1892  0.0136  0.3521
   33MOL    C83 6547   1.663   6.963   3.964  0.0843  0.4174 -0.7196
   33MOL    C84 6548   1.589   6.938   3.859 -0.2962 -0.2877  0.5863
   33MOL    C85 6549   1.495   7.037   3.787  0.1136 -0.1207 -0.3782
   33MOL    H86 6550   1.714   6.760   3.993  0.4603 -0.4328  1.1058
   33MOL    H87 6551   1.707   6.861   4.142  1.3120 -0.7727  0.7936
   33MOL    H88 6552   1.674   7.066   3.995  2.2925 -0.3659  1.1732
   33MOL    H89 6553   1.576   6.835   3.828  2.6752  0.4509 -3.6770
   33MOL    H90 6554   1.450   6.977   3.708 -0.2300  0.0310 -0.2949
   33MOL    H91 6555   1.559   7.106   3.732  0.7272 -0.0984  0.3491
   33MOL    C92 6556   1.393   7.111   3.875 -0.0738 -0.9558 -0.2632
   33MOL    C93 6557   1.267   7.127   3.797  0.4176 -0.1594 -0.6214
   33MOL    C94 6558   1.234   7.252   3.752 -0.0122  0.4044  0.6423
   33MOL    C95 6559   1.112   7.281   3.671  0.7003 -0.3224  0.8602
   33MOL    H96 6560   1.362   7.037   3.949 -3.7706  0.9257  0.1886
   33MOL    H97 6561   1.409   7.206   3.926  4.8319 -1.6340 -0.3319
   33MOL    H98 6562   1.209   7.040   3.769 -0.5231 -0.2050  1.4049
   33MOL    H99 6563   1.295   7.339   3.768 -0.0344  0.4963  0.2408
   33MOL   H100 6564   1.039   7.201   3.674  0.2038 -0.0331 -2.0162
   33MOL   H101 6565   1.149   7.274   3.568 -0.7184  0.6120  0.2602
   33MOL   C102 6566   1.048   7.422   3.693  0.7508 -0.1443 -0.4098
   33MOL   C103 6567   0.920   7.427   3.608 -0.4997 -0.8298 -0.2995
   33MOL   C104 6568   0.921   7.505   3.498 -0.2394 -0.5210  0.0665
   33MOL   C105 6569   0.800   7.534   3.408 -0.3259  0.1732 -0.6990
   33MOL   H106 6570   1.026   7.435   3.799 -0.7352  1.3416 -0.8713
   33MOL   H107 6571   1.108   7.510   3.670 -1.0503  1.7155  1.7316
   33MOL   H108 6572   0.834   7.370   3.639 -0.8616 -0.3794 -0.4669
   33MOL   H109 6573   1.019   7.543   3.472 -1.1265  3.0671  1.7131
   33MOL   H110 6574   0.730   7.452   3.426  0.8400 -1.0369 -1.5518
   33MOL   H111 6575   0.842   7.518   3.308  0.2399 -2.3185 -0.1055
   33MOL   C112 6576   0.739   7.672   3.429 -0.6430  0.0853 -0.3711
   33MOL   C113 6577   0.656   7.675   3.553 -1.2216 -0.0105 -0.9301
   33MOL   C114 6578   0.692   7.700   3.681 -0.9578  0.3450  0.1053
   33MOL   C115 6579   0.589   7.705   3.792 -0.2882  0.0236 -1.2605
   33MOL   H116 6580   0.824   7.737   3.452 -1.7835  1.5774 -0.2735
   33MOL   H117 6581   0.698   7.711   3.336  0.5017 -0.0387 -0.9370
   33MOL   H118 6582   0.553   7.659   3.524 -1.0822  0.1802 -1.5304
   33MOL   H119 6583   0.794   7.727   3.706 -0.7063 -0.7534  0.2994
   33MOL   H120 6584   0.484   7.705   3.764 -0.7568 -1.9447  0.3712
   33MOL   H121 6585   0.602   7.794   3.853 -1.1024 -0.8843  0.2700
   33MOL   C122 6586   0.624   7.594   3.890 -0.8734 -0.4249 -0.0783
   33MOL   C123 6587   0.535   7.598   4.013 -0.1848 -1.1519  0.3153
   33MOL   C124 6588   0.550   7.532   4.135 -0.2454 -0.3476  0.6915
   33MOL   C125 6589   0.442   7.538   4.245  0.6399  0.7832 -0.2991
   33MOL   H126 6590   0.595   7.498   3.848  0.6866 -1.1245  0.4153
   33MOL   H127 6591   0.731   7.591   3.911 -0.5602  3.6041 -0.6795
   33MOL   H128 6592   0.442   7.651   4.001 -0.9845 -2.7972 -0.9549
   33MOL   H129 6593   0.630   7.461   4.144  0.9297  0.8425 -0.1171
   33MOL   H130 6594   0.342   7.569   4.215  0.5385  0.6595 -0.0889
   33MOL   H131 6595   0.467   7.615   4.319 -0.7942  1.3935 -0.4451
   33MOL   C132 6596   0.424   7.406   4.319 -0.4733  0.6351  0.0830
   33MOL   C133 6597   0.340   7.412   4.444 -0.2938 -0.0842 -0.3937
   33MOL   C134 6598   0.376   7.372   4.564 -0.1299  0.0651 -0.8523
   33MOL   C135 6599   0.300   7.399   4.695  0.6408  0.3356  0.1765
   33MOL   H136 6600   0.366   7.334   4.261  0.5815 -1.7788  1.9307
   33MOL   H137 6601   0.522   7.365   4.344  0.8666  2.7723 -1.4442
   33MOL   H138 6602   0.238   7.447   4.437 -1.3196 -2.7899  0.2997
   33MOL   H139 6603   0.475   7.328   4.571 -0.0551  0.5505  1.4214
   33MOL   H140 6604   0.291   7.303   4.747  2.4896 -0.2323 -0.5124
   33MOL   H141 6605   0.196   7.425   4.675  1.5763  3.0597 -1.4760
   33MOL   C142 6606   0.374   7.507   4.778  0.2475 -0.2950 -0.2706
   33MOL   C143 6607   0.302   7.549   4.903  0.2900 -0.3140 -0.1770
   33MOL   C144 6608   0.368   7.569   5.017 -0.0087  0.0203 -0.1899
   33MOL   C145 6609   0.306   7.604   5.152  0.0873  0.0390  0.1119
   33MOL   H146 6610   0.477   7.477   4.798 -0.2188 -1.9828 -0.2863
   33MOL   H147 6611   0.368   7.591   4.710 -0.3226  0.8078  1.1116
   33MOL   H148 6612   0.195   7.565   4.905  0.3151 -0.1793  0.1157
   33MOL   H149 6613   0.475   7.559   5.027 -0.3634 -1.3732  2.9835
   33MOL   H150 6614   0.316   7.518   5.218  1.9927 -2.6642 -3.5028
   33MOL   H151 6615   0.205   7.632   5.124 -0.6882 -1.0933  1.6874
   33MOL   C152 6616   0.367   7.732   5.210 -0.5047 -0.4142  0.0353
   33MOL   C153 6617   0.357   7.846   5.109 -0.1683 -0.2986  0.0603
   33MOL   C154 6618   0.467   7.905   5.059  0.1605 -0.1567  0.2797
   33MOL   C155 6619   0.465   0.036   4.961 -0.7292  0.1805 -0.5304
   33MOL   H156 6620   0.318   7.754   5.305 -1.9354 -0.0607 -0.7759
   33MOL   H157 6621   0.470   7.719   5.243 -0.5243  1.2052  0.7552
   33MOL   H158 6622   0.257   7.885   5.094 -0.0219  0.6927  1.5188
   33MOL   H159 6623   0.567   7.868   5.077  0.8666  1.2733 -0.6445
   33MOL   H160 6624   0.377   0.045   4.898 -0.7844 -0.9621 -0.6391
   33MOL   H161 6625   0.539   0.019   4.882 -0.6698  0.4721 -0.5381
   33MOL   C162 6626   0.510   0.165   5.018 -0.3842 -0.4822  0.2489
   33MOL   C163 6627   0.489   0.278   4.917  0.0619  0.0624  0.1658
   33MOL   C164 6628   0.421   0.390   4.947 -0.2076  0.7859 -0.1093
   33MOL   C165 6629   0.411   0.508   4.861 -0.2975  0.0190 -0.7437
   33MOL   H166 6630   0.458   0.175   5.113 -0.1039  0.2262  0.3290
   33MOL   H167 6631   0.615   0.154   5.046  1.0200  0.3124 -4.3761
   33MOL   H168 6632   0.543   0.275   4.824  0.9183 -0.1145  0.6614
   33MOL   H169 6633   0.375   0.388   5.044 -0.2747 -3.6633 -0.1290
   33MOL   H170 6634   0.498   0.517   4.795 -0.1557  1.1124 -0.4112
   33MOL   H171 6635   0.422   0.587   4.935  1.8531 -0.9388 -0.0048
   33MOL   C172 6636   0.276   0.523   4.796 -0.1038  0.1549  0.6079
   33MOL   C173 6637   0.254   0.653   4.722  0.2189  0.0080  0.4090
   33MOL   C174 6638   0.161   0.683   4.630 -0.2668  0.0123 -0.3501
   33MOL   C175 6639   0.153   0.819   4.560  0.7694 -0.2758 -0.3966
   33MOL   H176 6640   0.277   0.447   4.718 -1.1848  0.1799  0.5552
   33MOL   H177 6641   0.197   0.495   4.866 -0.7947  0.1773 -0.1516
   33MOL   H178 6642   0.324   0.733   4.743 -0.2901  0.8376 -1.0328
   33MOL   H179 6643   0.085   0.609   4.610  0.6095 -0.1092 -3.5313
   33MOL   H180 6644   0.137   0.799   4.454  1.1938 -1.0175 -0.3199
   33MOL   H181 6645   0.248   0.873   4.572  2.4277 -3.3503  0.8600
   33MOL   C182 6646   0.034   0.896   4.614 -0.0478  0.1158 -0.0825
   33MOL   C183 6647   0.041   0.933   4.757 -0.2388 -0.8101 -0.1307
   33MOL   C184 6648   7.936   0.879   4.851 -0.4233  0.5793 -0.2405
   33MOL   C185 6649   7.956   0.906   4.994  0.5113  0.0144 -0.1295
   33MOL   H186 6650   0.036   0.981   4.547 -0.3480 -0.5161 -0.8918
   33MOL   H187 6651   7.924   0.832   4.602 -0.5005  0.5514  0.8298
   33MOL   H188 6652   0.121   0.997   4.793 -1.1805  1.0426 -1.2294
   33MOL   H189 6653   7.870   0.799   4.824  1.3887 -1.9049  2.3790
   33MOL   H190 6654   7.864   0.940   5.043  0.7599  0.9313 -0.2883
   33MOL   H191 6655   0.049   0.988   5.010 -0.4533  0.7805  0.2055
   33MOL   C192 6656   0.020   0.777   5.073 -0.3573  0.2062 -0.5635
   33MOL   C193 6657   0.059   0.811   5.216 -0.1016  0.4866 -0.0770
   33MOL   C194 6658   0.187   0.818   5.253  0.4860 -0.1685  0.4114
   33MOL   C195 6659   0.221   0.830   5.400 -0.3333 -0.3850  0.0524
   33MOL   H196 6660   7.925   0.696   5.082  2.4205 -2.6281 -2.4976
   33MOL   H197 6661   0.100   0.723   5.022  0.1766 -0.2640  0.7560
   33MOL   H198 6662   7.964   0.808   5.297  1.6618  0.3306  1.5025
   33MOL   H199 6663   0.271   0.806   5.185 -0.1042  1.7064 -0.6957
   33MOL   H200 6664   0.316   0.883   5.408 -0.5843  0.3270 -1.6036
   33MOL   H201 6665   0.230   0.736   5.455 -1.3092  0.9247  2.5421
   33MOL   H202 6666   0.149   0.896   5.448 -1.9255 -0.7688 -1.7281
   34MOL     C1 6667   2.022   3.243   5.182 -0.1212  0.0925 -0.1862
   34MOL     C2 6668   2.100   3.359   5.118  0.4042 -0.4887 -0.5774
   34MOL     C3 6669   2.043   3.481   5.109 -0.3382 -0.1827 -0.2021
   34MOL     C4 6670   2.116   3.599   5.038 -0.7043  0.4868 -0.5536
   34MOL     H5 6671   2.080   3.222   5.272  2.7594  1.9114 -1.5487
   34MOL     H6 6672   2.012   3.154   5.120  0.3929 -1.1965  1.5408
   34MOL     H7 6673   2.197   3.335   5.078 -0.1333  0.0283 -2.2408
   34MOL     H8 6674   1.945   3.495   5.153  0.5691 -1.0224  2.1464
   34MOL     H9 6675   2.058   3.641   4.956 -2.0231 -0.6038 -0.2004
   34MOL    H10 6676   2.205   3.560   4.988  0.8818  1.8277  1.1709
   34MOL    H11 6677   1.923   3.268   5.219  0.5470  0.9553  1.0912
   34MOL    C12 6678   2.158   3.709   5.129 -1.0535  0.6769  0.3025
   34MOL    C13 6679   2.249   3.815   5.061  0.3141  0.0021  0.1543
   34MOL    C14 6680   2.202   3.938   5.043 -0.6029  0.7768  0.0929
   34MOL    C15 6681   2.265   4.063   4.990 -0.4398 -0.0223  0.6382
   34MOL    H16 6682   2.078   3.748   5.191 -1.7479 -1.6901  0.9250
   34MOL    H17 6683   2.215   3.671   5.213 -1.6694  0.9862  0.8643
   34MOL    H18 6684   2.350   3.789   5.035  0.3643  1.1383 -0.8544
   34MOL    H19 6685   2.105   3.956   5.087 -0.9733  0.8649 -0.7408
   34MOL    H20 6686   2.372   4.041   4.992 -0.8280 -2.1095  0.1392
   34MOL    H21 6687   2.265   4.137   5.071 -1.3054 -0.2747  0.8739
   34MOL    C22 6688   2.206   4.122   4.867  0.6213 -0.9660  0.8240
   34MOL    C23 6689   2.273   4.254   4.827  0.6734 -0.7464  0.8726
   34MOL    C24 6690   2.343   4.265   4.711 -0.6632  0.1995 -0.4950
   34MOL    C25 6691   2.412   4.389   4.659 -0.3656  0.6173 -0.4813
   34MOL    H26 6692   2.207   4.052   4.783 -1.2140 -0.4635  0.3676
   34MOL    H27 6693   2.098   4.132   4.880  0.8925  1.1985  1.4736
   34MOL    H28 6694   2.272   4.341   4.891  0.4618 -0.9755  1.1777
   34MOL    H29 6695   2.354   4.181   4.644  0.3115  0.9982 -1.3533
   34MOL    H30 6696   2.515   4.355   4.645 -0.3651 -0.2259  1.3646
   34MOL    H31 6697   2.419   4.467   4.735  3.5481 -0.8465  0.7729
   34MOL    C32 6698   2.362   4.435   4.522  0.3746  0.3025  0.2483
   34MOL    C33 6699   2.442   4.547   4.460 -0.3509  0.4810 -0.5651
   34MOL    C34 6700   2.389   4.664   4.426  0.1971  0.1439 -0.0605
   34MOL    C35 6701   2.476   4.782   4.376 -0.5931 -0.6054 -0.7653
   34MOL    H36 6702   2.357   4.350   4.454 -0.6077  0.1142  0.5387
   34MOL    H37 6703   2.261   4.477   4.530 -0.2774 -1.3251  0.8229
   34MOL    H38 6704   2.548   4.542   4.443 -0.0273  0.2872  1.4039
   34MOL    H39 6705   2.281   4.668   4.426  0.1795 -0.1561 -0.7572
   34MOL    H40 6706   2.583   4.765   4.383 -0.6330 -0.1375  1.6751
   34MOL    H41 6707   2.457   4.858   4.452  1.2261  0.5165 -1.4147
   34MOL    C42 6708   2.445   4.840   4.232  0.1103  0.0906  0.2023
   34MOL    C43 6709   2.543   4.949   4.179 -0.7861 -0.2332 -0.1707
   34MOL    C44 6710   2.514   5.073   4.126  0.1309  0.7281  0.3980
   34MOL    C45 6711   2.615   5.170   4.069 -0.1168 -0.2464 -1.0407
   34MOL    H46 6712   2.437   4.761   4.157  2.5102  0.2078 -0.2202
   34MOL    H47 6713   2.351   4.891   4.250  0.1058  0.3708 -0.5904
   34MOL    H48 6714   2.644   4.916   4.163 -1.5430 -1.5276 -2.7120
   34MOL    H49 6715   2.411   5.106   4.127  0.1009  0.6869 -1.2818
   34MOL    H50 6716   2.593   5.208   3.969 -1.8108  1.9820  0.1117
   34MOL    H51 6717   2.711   5.121   4.064  0.8784  1.7746 -2.8638
   34MOL    C52 6718   2.612   5.301   4.151  0.0202 -0.2151 -0.0358
   34MOL    C53 6719   2.478   5.368   4.168  0.0369 -0.5695  0.2456
   34MOL    C54 6720   2.445   5.491   4.123  0.0338 -0.3129 -0.1478
   34MOL    C55 6721   2.313   5.559   4.150  0.2836  0.6614 -0.1352
   34MOL    H56 6722   2.658   5.290   4.250 -0.0696 -1.6283 -0.1330
   34MOL    H57 6723   2.681   5.368   4.101 -0.4571  0.3802  0.0972
   34MOL    H58 6724   2.400   5.316   4.221 -1.2715 -0.5636 -1.6148
   34MOL    H59 6725   2.513   5.551   4.065 -0.6470  0.4919 -0.1298
   34MOL    H60 6726   2.332   5.651   4.206  0.4548  1.8167 -2.0577
   34MOL    H61 6727   2.233   5.504   4.200 -1.4416  3.7875  0.7256
   34MOL    C62 6728   2.249   5.608   4.014 -0.2920 -0.2961  0.0350
   34MOL    C63 6729   2.127   5.691   4.041  0.3505  0.1702  0.2514
   34MOL    C64 6730   2.089   5.786   3.957 -0.0593 -0.0719  0.6781
   34MOL    C65 6731   1.967   5.871   3.979 -0.1747  0.4205 -0.4168
   34MOL    H66 6732   2.314   5.669   3.950  1.5343 -1.5402  0.6381
   34MOL    H67 6733   2.214   5.524   3.954 -1.0923 -0.2837  0.4826
   34MOL    H68 6734   2.067   5.662   4.125 -0.4814 -1.5512 -0.9013
   34MOL    H69 6735   2.146   5.807   3.867 -0.0496  1.7586  1.1016
   34MOL    H70 6736   1.997   5.958   4.039  0.5790  0.6338 -1.0824
   34MOL    H71 6737   1.911   5.820   4.057  1.4936  0.8652  1.1024
   34MOL    C72 6738   1.877   5.908   3.858 -0.5073  1.0459 -0.5730
   34MOL    C73 6739   1.747   5.975   3.892 -0.2066 -0.1396  0.3004
   34MOL    C74 6740   1.632   5.927   3.834  0.3253  0.0063 -0.6539
   34MOL    C75 6741   1.490   5.987   3.848 -0.5068 -0.3119  0.3117
   34MOL    H76 6742   1.932   5.963   3.781  1.7475  0.8746  0.8734
   34MOL    H77 6743   1.856   5.813   3.809 -0.8805  0.4670  0.6912
   34MOL    H78 6744   1.746   6.066   3.949 -0.1321  1.3692 -2.0694
   34MOL    H79 6745   1.632   5.829   3.790 -0.1406 -0.8398  1.1700
   34MOL    H80 6746   1.489   6.081   3.904  2.0892 -0.9726  1.5145
   34MOL    H81 6747   1.434   5.926   3.919 -0.0228  1.0690  1.9130
   34MOL    C82 6748   1.423   5.989   3.712  0.2778 -0.6078  0.5055
   34MOL    C83 6749   1.268   5.984   3.707 -0.1108  0.1560 -0.2961
   34MOL    C84 6750   1.187   6.084   3.685  0.4853 -0.6885  0.4847
   34MOL    C85 6751   1.031   6.072   3.690  0.2990  0.3245 -0.3181
   34MOL    H86 6752   1.467   6.066   3.649 -0.6910 -0.1606  0.3611
   34MOL    H87 6753   1.445   5.900   3.653 -0.0566 -0.4889  0.1958
   34MOL    H88 6754   1.235   5.888   3.744 -0.4800  0.8025  1.0946
   34MOL    H89 6755   1.228   6.178   3.652 -1.9003  0.2521  0.1266
   34MOL    H90 6756   1.004   5.969   3.668  1.0089  0.6041 -2.6419
   34MOL    H91 6757   0.987   6.124   3.605  0.1441 -1.2808 -1.2345
   34MOL    C92 6758   0.969   6.133   3.818 -0.6466  0.6407 -0.2463
   34MOL    C93 6759   1.005   6.052   3.949  0.1858  0.1913 -0.1354
   34MOL    C94 6760   1.046   5.928   3.958  0.3055 -0.5592  0.2226
   34MOL    C95 6761   1.090   5.852   4.085  0.0215 -0.0515  0.1107
   34MOL    H96 6762   1.015   6.230   3.834 -1.7073  0.9499  0.9846
   34MOL    H97 6763   0.866   6.164   3.799 -1.1929 -1.5466 -1.0823
   34MOL    H98 6764   0.995   6.098   4.047  0.9899 -0.8510  0.4490
   34MOL    H99 6765   1.067   5.864   3.873 -2.9573  0.3040 -1.2742
   34MOL   H100 6766   1.132   5.923   4.156  0.9022  0.8920 -1.3155
   34MOL   H101 6767   1.163   5.775   4.060  0.8187  1.0663 -1.0526
   34MOL   C102 6768   0.970   5.769   4.141  0.2081  0.1558 -0.0297
   34MOL   C103 6769   1.003   5.700   4.267  0.7295  0.5926 -0.7171
   34MOL   C104 6770   0.949   5.721   4.388 -0.6425  0.7025 -0.3212
   34MOL   C105 6771   0.989   5.641   4.511 -0.1056 -0.3846 -0.9254
   34MOL   H106 6772   0.892   5.841   4.165  0.1400 -0.4484  1.6021
   34MOL   H107 6773   0.938   5.696   4.066  2.8847 -0.8584 -0.2405
   34MOL   H108 6774   1.086   5.630   4.266  1.1799  1.0679  1.6852
   34MOL   H109 6775   0.868   5.790   4.404 -0.9700 -0.0968  1.5050
   34MOL   H110 6776   0.996   5.711   4.594 -0.7447 -1.6048  0.1691
   34MOL   H111 6777   1.093   5.608   4.505 -0.3481 -1.4968  0.7307
   34MOL   C112 6778   0.891   5.530   4.554 -0.0434  1.1295 -0.3387
   34MOL   C113 6779   0.907   5.470   4.693  0.3170  0.2226 -0.0907
   34MOL   C114 6780   0.809   5.455   4.779  0.1441  0.1013  0.7370
   34MOL   C115 6781   0.816   5.398   4.915  0.1184  0.7265  0.3439
   34MOL   H116 6782   0.791   5.571   4.549 -0.6949 -0.2846  0.9015
   34MOL   H117 6783   0.889   5.450   4.479 -2.3410  1.4554 -0.6518
   34MOL   H118 6784   1.006   5.432   4.714  0.1829  0.1664  0.4397
   34MOL   H119 6785   0.715   5.499   4.750  0.7688  0.2077 -1.2367
   34MOL   H120 6786   0.751   5.310   4.917  0.7462  0.2495 -0.0518
   34MOL   H121 6787   0.780   5.476   4.982  2.2280  1.6155  0.4699
   34MOL   C122 6788   0.955   5.356   4.962  0.4610  0.2445  0.2339
   34MOL   C123 6789   1.007   5.230   4.895  0.1546  0.0474 -0.4866
   34MOL   C124 6790   1.068   5.125   4.954 -0.5774 -0.2936 -0.2489
   34MOL   C125 6791   1.130   5.006   4.879  0.4342  0.0132  0.4130
   34MOL   H126 6792   1.029   5.436   4.959 -0.2692  0.8407 -3.6985
   34MOL   H127 6793   0.937   5.333   5.067  1.1166 -1.0154  0.0801
   34MOL   H128 6794   0.995   5.226   4.787  1.2755 -0.1495 -0.6068
   34MOL   H129 6795   1.066   5.121   5.062 -1.8951  0.3006 -0.2370
   34MOL   H130 6796   1.153   5.038   4.778 -1.1489  0.3412  0.1453
   34MOL   H131 6797   1.041   4.942   4.878  0.3520  0.1120  1.1833
   34MOL   C132 6798   1.250   4.946   4.953  0.2273 -0.0935  0.1655
   34MOL   C133 6799   1.274   4.796   4.926  0.4470  0.2697  0.4765
   34MOL   C134 6800   1.295   4.703   5.018 -0.2400 -0.7733 -0.0374
   34MOL   C135 6801   1.313   4.562   4.991 -0.3235 -0.4616 -0.4224
   34MOL   H136 6802   1.346   4.987   4.922  1.0521  0.2404  2.9982
   34MOL   H137 6803   1.238   4.972   5.058 -2.3921 -0.9727  0.1180
   34MOL   H138 6804   1.275   4.757   4.825 -1.2609 -0.2917  0.6689
   34MOL   H139 6805   1.289   4.733   5.122 -0.8747 -2.1446  0.3264
   34MOL   H140 6806   1.398   4.538   5.054  0.2097 -1.4007 -1.4781
   34MOL   H141 6807   1.343   4.533   4.890 -0.0544  0.7046 -0.6868
   34MOL   C142 6808   1.199   4.485   5.051 -0.2151 -0.2306 -0.3100
   34MOL   C143 6809   1.220   4.335   5.045 -0.0204 -0.0986 -0.2042
   34MOL   C144 6810   1.246   4.258   5.152 -0.0131 -0.7940 -0.3304
   34MOL   C145 6811   1.275   4.116   5.134 -0.3894 -0.0394 -0.0199
   34MOL   H146 6812   1.187   4.515   5.155 -0.0657 -0.4554 -0.2271
   34MOL   H147 6813   1.110   4.523   5.002  0.8990  0.4870 -1.8090
   34MOL   H148 6814   1.218   4.303   4.942  2.9430 -3.3202  0.5968
   34MOL   H149 6815   1.250   4.305   5.250 -0.3524 -1.5665  0.0555
   34MOL   H150 6816   1.375   4.094   5.173 -1.5804 -0.7252  2.7346
   34MOL   H151 6817   1.259   4.094   5.028  0.1995  3.3140 -0.8727
   34MOL   C152 6818   1.172   4.036   5.209 -0.5493 -0.0810  0.1465
   34MOL   C153 6819   1.186   3.884   5.189  0.4289 -0.1581  0.8272
   34MOL   C154 6820   1.186   3.793   5.294 -0.5873 -0.1419  0.6974
   34MOL   C155 6821   1.183   3.646   5.277 -0.6311 -0.2273 -0.2608
   34MOL   H156 6822   1.162   4.060   5.315 -0.2113 -3.3241  0.9730
   34MOL   H157 6823   1.081   4.059   5.154 -0.3512  0.6118  0.1050
   34MOL   H158 6824   1.203   3.853   5.087 -1.8022  0.6089  0.1709
   34MOL   H159 6825   1.174   3.826   5.396  0.7051 -0.9797  1.1300
   34MOL   H160 6826   1.226   3.619   5.181  0.4079 -0.0408  0.1430
   34MOL   H161 6827   1.079   3.616   5.268 -0.9312  0.2793  1.3609
   34MOL   C162 6828   1.252   3.569   5.394 -0.2214  0.3253 -0.6642
   34MOL   C163 6829   1.224   3.414   5.408 -0.4813  0.0872 -0.2006
   34MOL   C164 6830   1.140   3.339   5.336  0.2289 -0.5328 -0.0413
   34MOL   C165 6831   1.120   3.196   5.373 -0.0247  0.4647  0.6439
   34MOL   H166 6832   1.359   3.586   5.387 -0.1911 -0.0715 -1.2253
   34MOL   H167 6833   1.216   3.603   5.491  1.0945 -0.4069  0.0987
   34MOL   H168 6834   1.274   3.360   5.488  0.2856  0.7420 -0.2330
   34MOL   H169 6835   1.074   3.381   5.262  1.2787  0.3546 -0.4962
   34MOL   H170 6836   1.027   3.194   5.430  0.2633  0.3286  1.1059
   34MOL   H171 6837   1.193   3.154   5.441 -0.6697 -2.7999 -0.5646
   34MOL   C172 6838   1.103   3.102   5.252  0.3096  0.2670 -0.1238
   34MOL   C173 6839   1.229   3.079   5.177 -0.6252  0.8037  0.1033
   34MOL   C174 6840   1.277   2.962   5.124 -0.3612  0.0048 -0.2707
   34MOL   C175 6841   1.404   2.941   5.041 -0.0026 -0.7044 -0.8006
   34MOL   H176 6842   1.056   3.011   5.289  0.3281 -0.8742 -2.7918
   34MOL   H177 6843   1.028   3.151   5.188  0.0645  0.1418  0.0670
   34MOL   H178 6844   1.281   3.173   5.165  0.3751 -0.0347 -2.5646
   34MOL   H179 6845   1.228   2.869   5.149 -1.6111  0.6678 -0.2227
   34MOL   H180 6846   1.465   2.876   5.104  1.0317 -0.5035 -1.5858
   34MOL   H181 6847   1.463   3.033   5.045 -0.0363 -0.7675  3.0412
   34MOL   C182 6848   1.378   2.872   4.901  0.5319  0.1904 -0.0103
   34MOL   C183 6849   1.289   2.943   4.801 -0.3299  0.4449 -0.4267
   34MOL   C184 6850   1.156   2.917   4.789  0.0592  0.1532  0.4861
   34MOL   C185 6851   1.056   2.993   4.699 -0.4067  0.2963  0.8771
   34MOL   H186 6852   1.480   2.864   4.864  0.7083 -0.2046  0.5623
   34MOL   H187 6853   1.345   2.770   4.923 -0.8544  0.3627 -1.2050
   34MOL   H188 6854   1.340   3.015   4.739  2.5863  1.1514  2.6197
   34MOL   H189 6855   1.113   2.846   4.858  0.9227 -1.3349 -0.4739
   34MOL   H190 6856   1.039   2.933   4.610 -3.0040  1.0070  0.8427
   34MOL   H191 6857   1.110   3.086   4.679 -0.1825 -0.1430 -0.6056
   34MOL   C192 6858   0.924   3.015   4.768  0.6176 -0.5367  0.3619
   34MOL   C193 6859   0.928   3.104   4.886 -0.6940 -0.2051 -0.4128
   34MOL   C194 6860   0.852   3.210   4.908 -0.3807 -0.2412 -0.5184
   34MOL   C195 6861   0.866   3.293   5.039  0.2843 -1.2235 -0.5553
   34MOL   H196 6862   0.858   3.065   4.696  2.1658  2.0749  0.6726
   34MOL   H197 6863   0.878   2.919   4.791  1.0222 -0.8025  0.0583
   34MOL   H198 6864   1.000   3.080   4.963  0.7431  1.2212 -1.2806
   34MOL   H199 6865   0.777   3.244   4.837  2.2079 -1.2666 -3.8866
   34MOL   H200 6866   0.803   3.259   5.122  0.9394 -0.7398  0.1523
   34MOL   H201 6867   0.840   3.396   5.015  0.4965 -1.7554 -3.2397
   34MOL   H202 6868   0.967   3.294   5.078  0.5374  0.1307 -1.2157
   35MOL     C1 6869   2.814   1.577   0.703 -0.0825  0.4383 -0.0105
   35MOL     C2 6870   2.875   1.546   0.842  0.5273 -0.4376  0.1719
   35MOL     C3 6871   2.825   1.466   0.940 -0.3006 -0.1777  0.1399
   35MOL     C4 6872   2.899   1.434   1.063  0.1007  0.6900  0.1040
   35MOL     H5 6873   2.730   1.514   0.674  1.3635 -1.4242 -0.2922
   35MOL     H6 6874   2.889   1.561   0.626  1.2784 -0.0636  1.3699
   35MOL     H7 6875   2.965   1.597   0.875 -0.3164 -0.3480  2.4423
   35MOL     H8 6876   2.731   1.414   0.934 -0.8968  0.9107 -0.1062
   35MOL     H9 6877   2.994   1.486   1.062  1.2744 -1.3545 -2.9879
   35MOL    H10 6878   2.922   1.328   1.055 -0.3179  0.6154 -0.1390
   35MOL    H11 6879   2.784   1.681   0.694  0.7816  0.6635 -0.4167
   35MOL    C12 6880   2.820   1.467   1.188 -0.1943  0.3343 -1.1305
   35MOL    C13 6881   2.898   1.439   1.317  0.0476 -0.2888  0.2579
   35MOL    C14 6882   3.017   1.382   1.328  0.4455  0.0309 -0.4040
   35MOL    C15 6883   3.081   1.365   1.465 -0.2643  0.0168 -0.2310
   35MOL    H16 6884   2.798   1.573   1.200  1.6607  0.6498 -0.2873
   35MOL    H17 6885   2.719   1.426   1.183 -0.8877  1.7069  0.8953
   35MOL    H18 6886   2.846   1.471   1.406  1.9307  0.9999  0.9095
   35MOL    H19 6887   3.074   1.348   1.243  0.5003  0.1433 -0.4114
   35MOL    H20 6888   3.054   1.269   1.507 -0.6283 -0.9633 -2.6584
   35MOL    H21 6889   3.036   1.428   1.541  0.9126  1.6370 -0.8368
   35MOL    C22 6890   3.230   1.382   1.479 -0.3514  0.3254 -0.2031
   35MOL    C23 6891   3.284   1.318   1.608  0.8388  0.1962 -0.3701
   35MOL    C24 6892   3.389   1.234   1.622  0.2147  0.0595 -0.4123
   35MOL    C25 6893   3.425   1.178   1.752 -0.9321  0.5166 -1.1161
   35MOL    H26 6894   3.284   1.326   1.403  0.1483  0.6895 -0.1149
   35MOL    H27 6895   3.262   1.485   1.462 -0.5656  0.0081 -2.5600
   35MOL    H28 6896   3.218   1.335   1.692  0.8010 -0.8044 -0.1970
   35MOL    H29 6897   3.462   1.219   1.544  1.6646 -0.3633  1.0145
   35MOL    H30 6898   3.431   1.069   1.756  1.7119  0.6638  0.2218
   35MOL    H31 6899   3.359   1.195   1.836 -0.3807  0.1425 -0.6012
   35MOL    C32 6900   3.566   1.215   1.795 -0.2732  0.0324  0.1293
   35MOL    C33 6901   3.629   1.112   1.880  0.4075  0.1394 -0.7101
   35MOL    C34 6902   3.685   1.135   2.000  0.0358  0.2168  0.8713
   35MOL    C35 6903   3.755   1.018   2.075  1.0347 -0.1770  0.3579
   35MOL    H36 6904   3.633   1.222   1.710 -1.6971  2.9316 -0.8268
   35MOL    H37 6905   3.557   1.315   1.838  2.5221 -0.1176  1.1501
   35MOL    H38 6906   3.621   1.009   1.849  1.4175 -0.5421  1.1723
   35MOL    H39 6907   3.695   1.238   2.030  0.5891  0.2207  0.6755
   35MOL    H40 6908   3.862   1.024   2.057  1.4639  1.3155  3.0875
   35MOL    H41 6909   3.716   0.922   2.043 -0.6282  0.6393 -0.1677
   35MOL    C42 6910   3.751   1.044   2.230  0.3697 -0.4174 -0.2243
   35MOL    C43 6911   3.842   0.952   2.308  0.8970 -0.0532 -0.1602
   35MOL    C44 6912   3.786   0.872   2.404  0.3784  0.0827 -0.2891
   35MOL    C45 6913   3.859   0.778   2.499 -0.3963  0.0630  0.3135
   35MOL    H46 6914   3.793   1.144   2.237  0.0423 -0.1835 -1.5445
   35MOL    H47 6915   3.648   1.057   2.264  0.5335  0.9836 -0.2372
   35MOL    H48 6916   3.948   0.947   2.291  0.8841  1.1173 -0.6829
   35MOL    H49 6917   3.683   0.884   2.432  0.6927 -2.9491  2.6200
   35MOL    H50 6918   3.965   0.804   2.489 -1.0037  2.7604  0.4557
   35MOL    H51 6919   3.848   0.672   2.474 -1.1158  0.2629 -0.2537
   35MOL    C52 6920   3.809   0.791   2.640  0.3348 -0.5442 -0.3018
   35MOL    C53 6921   3.888   0.711   2.735 -0.7974 -0.0005 -0.3887
   35MOL    C54 6922   3.835   0.617   2.821  0.0174  0.2209 -0.1891
   35MOL    C55 6923   3.918   0.527   2.914  0.4597  0.2231 -0.1062
   35MOL    H56 6924   3.830   0.893   2.674 -0.5036 -0.6326  0.4956
   35MOL    H57 6925   3.705   0.760   2.644  0.5100 -1.0434  0.4836
   35MOL    H58 6926   3.996   0.718   2.724 -0.9663  1.7418 -1.1569
   35MOL    H59 6927   3.732   0.584   2.826 -0.6137  2.2813  0.9798
   35MOL    H60 6928   4.023   0.558   2.909  0.4481  0.2833  0.0227
   35MOL    H61 6929   3.919   0.425   2.875  1.4143 -0.0301  0.5571
   35MOL    C62 6930   3.868   0.523   3.071  0.1736 -0.6056 -1.0192
   35MOL    C63 6931   3.961   0.441   3.164 -0.6827  0.5941  0.3930
   35MOL    C64 6932   3.931   0.323   3.223 -0.1248  0.0401  0.5863
   35MOL    C65 6933   4.025   0.249   3.313 -0.4879 -0.1935 -0.6606
   35MOL    H66 6934   3.853   0.625   3.106 -2.0596 -0.5184 -2.1387
   35MOL    H67 6935   3.778   0.462   3.065  1.2708 -2.4761  0.9062
   35MOL    H68 6936   4.056   0.490   3.181 -0.3623 -0.6066  2.2204
   35MOL    H69 6937   3.832   0.280   3.211 -0.3377  0.4991  0.7025
   35MOL    H70 6938   3.967   0.207   3.396  1.1777  0.7319  1.0091
   35MOL    H71 6939   4.088   0.321   3.366 -1.0070 -0.8703  0.9060
   35MOL    C72 6940   4.118   0.152   3.238 -0.0336  0.2325  0.1638
   35MOL    C73 6941   4.184   0.208   3.111  0.8274  0.2581 -0.0789
   35MOL    C74 6942   4.317   0.235   3.109 -0.0711  0.3615  0.1922
   35MOL    C75 6943   4.384   0.286   2.985 -0.1575  0.2075  0.7247
   35MOL    H76 6944   4.196   0.102   3.296 -1.6328 -1.3676  1.0146
   35MOL    H77 6945   4.052   0.075   3.199 -2.2118  0.6088  2.8982
   35MOL    H78 6946   4.118   0.230   3.029 -0.3191  0.2527  0.8284
   35MOL    H79 6947   4.381   0.228   3.196  0.6140 -0.7623 -0.3906
   35MOL    H80 6948   4.313   0.308   2.905  0.1859 -2.4364 -0.3647
   35MOL    H81 6949   4.449   0.203   2.954 -0.0119  0.6558 -0.1981
   35MOL    C82 6950   4.461   0.418   3.019 -0.2858 -0.3684  0.3886
   35MOL    C83 6951   4.521   0.484   2.894 -0.3308  0.3359  0.4568
   35MOL    C84 6952   4.638   0.549   2.891 -0.2477 -0.0221  0.4119
   35MOL    C85 6953   4.695   0.613   2.767  0.0387  0.1667 -0.2285
   35MOL    H86 6954   4.386   0.483   3.063 -0.6873 -1.3934  1.2343
   35MOL    H87 6955   4.536   0.413   3.098  0.5448  2.6250 -0.1385
   35MOL    H88 6956   4.470   0.475   2.800  0.6776  1.6043 -0.2214
   35MOL    H89 6957   4.692   0.569   2.982  0.4137 -0.2383  0.0705
   35MOL    H90 6958   4.745   0.706   2.796 -2.8341  2.1019 -1.3602
   35MOL    H91 6959   4.614   0.639   2.700 -2.8301 -0.9583  2.6410
   35MOL    C92 6960   4.785   0.508   2.691  0.4672  0.1723 -0.5565
   35MOL    C93 6961   4.870   0.561   2.587 -0.3056  0.7279 -0.5657
   35MOL    C94 6962   4.994   0.605   2.611 -0.4925 -0.4896  0.3577
   35MOL    C95 6963   5.084   0.665   2.503  0.2141  0.2675 -0.1768
   35MOL    H96 6964   4.843   0.447   2.760  0.0071  0.7316  0.3439
   35MOL    H97 6965   4.716   0.440   2.642  1.3163  1.9531 -4.3534
   35MOL    H98 6966   4.824   0.561   2.490  0.7646  0.7506 -1.0750
   35MOL    H99 6967   5.020   0.607   2.716 -2.0954 -2.3413  0.8280
   35MOL   H100 6968   5.035   0.637   2.410 -1.8031 -0.3658  1.0403
   35MOL   H101 6969   5.182   0.618   2.493 -1.7414 -3.6027 -2.1309
   35MOL   C102 6970   5.099   0.817   2.520  0.3643  0.0764 -0.4210
   35MOL   C103 6971   5.181   0.885   2.417 -0.3670  0.3859 -0.2080
   35MOL   C104 6972   5.135   0.996   2.358  0.2233 -1.0745  0.5559
   35MOL   C105 6973   5.214   1.077   2.262 -0.5049 -0.0672  0.0393
   35MOL   H106 6974   5.005   0.872   2.532  0.8279  0.7729  0.0609
   35MOL   H107 6975   5.158   0.838   2.609 -0.3217  0.7152 -0.1139
   35MOL   H108 6976   5.278   0.848   2.390 -0.7391 -1.6634  1.1796
   35MOL   H109 6977   5.039   1.037   2.386 -0.0184 -2.0238  1.1185
   35MOL   H110 6978   5.303   1.020   2.237 -1.4875 -0.5581 -2.5118
   35MOL   H111 6979   5.260   1.169   2.299  2.5236 -1.4407 -0.2139
   35MOL   C112 6980   5.139   1.098   2.128  0.2211 -0.4585 -0.1448
   35MOL   C113 6981   5.231   1.176   2.029 -0.3852  0.1525 -0.0188
   35MOL   C114 6982   5.186   1.269   1.943  0.4502  0.5672  0.3736
   35MOL   C115 6983   5.267   1.329   1.828  0.1231  0.5234 -0.0556
   35MOL   H116 6984   5.116   1.004   2.079 -0.4724 -0.7841  0.8084
   35MOL   H117 6985   5.049   1.153   2.154  1.5266  0.1575  3.3545
   35MOL   H118 6986   5.334   1.147   2.018 -0.3567 -0.0657  0.7716
   35MOL   H119 6987   5.085   1.304   1.955  0.3525  0.1871  0.6792
   35MOL   H120 6988   5.234   1.289   1.733  0.3217  0.7927 -0.2367
   35MOL   H121 6989   5.369   1.293   1.836 -0.7174 -1.3723  3.0933
   35MOL   C122 6990   5.275   1.483   1.839  0.1839  0.2643  0.2515
   35MOL   C123 6991   5.144   1.550   1.801  0.3453 -0.1451  0.2117
   35MOL   C124 6992   5.131   1.661   1.731  0.2548  0.1739 -0.7863
   35MOL   C125 6993   5.002   1.726   1.694 -0.3139 -0.3484 -0.0506
   35MOL   H126 6994   5.287   1.517   1.942 -0.3486 -0.0729  0.4253
   35MOL   H127 6995   5.368   1.519   1.795  0.9085 -2.5465 -0.6239
   35MOL   H128 6996   5.055   1.498   1.834  0.4790 -0.3711  0.2113
   35MOL   H129 6997   5.219   1.715   1.696  0.6495  0.2405  0.3102
   35MOL   H130 6998   4.924   1.660   1.733 -1.4493  0.2330 -1.3334
   35MOL   H131 6999   4.982   1.726   1.587 -1.9070 -1.2724  0.2295
   35MOL   C132 7000   4.984   1.864   1.764  0.5042 -0.5093  0.1208
   35MOL   C133 7001   4.851   1.920   1.725 -0.3504  0.4152 -0.0768
   35MOL   C134 7002   4.749   1.927   1.807 -0.0923  0.2083 -0.4137
   35MOL   C135 7003   4.621   1.985   1.763  0.1531  0.2084 -0.8537
   35MOL   H136 7004   4.988   1.860   1.873  2.1579 -0.0463  0.0916
   35MOL   H137 7005   5.064   1.935   1.742 -0.2190  0.5241  0.7311
   35MOL   H138 7006   4.840   1.968   1.629 -1.3563  2.1296  0.8659
   35MOL   H139 7007   4.757   1.887   1.907 -2.5380 -1.4756 -0.8595
   35MOL   H140 7008   4.589   1.938   1.670 -0.3946 -0.7071 -0.2073
   35MOL   H141 7009   4.648   2.087   1.734  2.2717  0.5153  2.0802
   35MOL   C142 7010   4.520   1.984   1.880  0.7673 -0.2333 -0.3605
   35MOL   C143 7011   4.416   2.095   1.841 -0.3498  0.0959  0.2127
   35MOL   C144 7012   4.426   2.221   1.890  0.5349  0.5126 -0.0490
   35MOL   C145 7013   4.348   2.344   1.835  0.0199  0.8008  0.4501
   35MOL   H146 7014   4.479   1.883   1.889  0.4363 -0.0547  0.1548
   35MOL   H147 7015   4.568   2.000   1.976  2.7663 -3.0078 -0.8371
   35MOL   H148 7016   4.355   2.073   1.755  0.1798  0.6196 -0.3073
   35MOL   H149 7017   4.502   2.244   1.964  1.4303  2.7497 -1.6103
   35MOL   H150 7018   4.282   2.317   1.753  1.3595  1.6385 -0.9317
   35MOL   H151 7019   4.430   2.407   1.800 -0.0714  1.3204  1.1578
   35MOL   C152 7020   4.274   2.408   1.956  0.3073 -0.6607  0.0192
   35MOL   C153 7021   4.253   2.553   1.931 -0.6427 -0.1449 -0.5678
   35MOL   C154 7022   4.262   2.649   2.027  0.4549  0.7852  0.2405
   35MOL   C155 7023   4.219   2.793   1.996 -0.0294  0.3698  0.6354
   35MOL   H156 7024   4.177   2.363   1.973 -0.3159 -0.7328 -3.4430
   35MOL   H157 7025   4.328   2.392   2.050 -1.8836 -0.7078  1.3103
   35MOL   H158 7026   4.207   2.583   1.839  1.5093  2.4674 -0.8449
   35MOL   H159 7027   4.302   2.629   2.126 -0.2095 -1.1651  0.1339
   35MOL   H160 7028   4.118   2.799   2.035 -0.0458 -0.9733  0.8430
   35MOL   H161 7029   4.207   2.796   1.888  0.6724  2.5344  0.5928
   35MOL   C162 7030   4.312   2.912   2.042 -0.3220 -0.6849 -0.1447
   35MOL   C163 7031   4.257   3.049   2.031  0.4106  0.3876  0.6688
   35MOL   C164 7032   4.319   3.141   1.963 -0.4611 -0.4514 -0.2831
   35MOL   C165 7033   4.271   3.280   1.936 -0.9513  0.1395  0.3008
   35MOL   H166 7034   4.326   2.891   2.148  2.1781  0.6946 -0.1618
   35MOL   H167 7035   4.414   2.891   2.010  1.0815  0.1731  3.5286
   35MOL   H168 7036   4.162   3.069   2.078  0.0525  1.9760 -0.6650
   35MOL   H169 7037   4.416   3.128   1.918 -1.4790 -3.0648 -1.8146
   35MOL   H170 7038   4.312   3.301   1.837 -0.6736  0.9551  0.5884
   35MOL   H171 7039   4.305   3.351   2.011  0.2447 -0.8301  0.7002
   35MOL   C172 7040   4.111   3.286   1.934 -0.4096 -0.7510 -0.2023
   35MOL   C173 7041   4.058   3.419   1.879  0.7563 -0.8359  0.0924
   35MOL   C174 7042   3.972   3.502   1.944  0.1855 -0.4387 -0.1037
   35MOL   C175 7043   3.909   3.635   1.884  0.0381 -0.4281 -1.8084
   35MOL   H176 7044   4.081   3.207   1.866  3.0158  1.1664 -4.2099
   35MOL   H177 7045   4.066   3.263   2.031  1.1161  0.5545  0.8477
   35MOL   H178 7046   4.102   3.444   1.784  3.1872 -0.6081  1.2556
   35MOL   H179 7047   3.930   3.471   2.038  1.6198  0.2312  0.7792
   35MOL   H180 7048   3.831   3.611   1.812  1.5886 -2.0701 -2.9813
   35MOL   H181 7049   4.005   3.676   1.851 -0.1173 -0.7359 -2.6588
   35MOL   C182 7050   3.863   3.731   1.992 -0.7411 -0.2685  0.9189
   35MOL   C183 7051   3.740   3.685   2.057  0.0015 -0.7762  0.2896
   35MOL   C184 7052   3.618   3.738   2.035  0.3587  0.4803  0.2712
   35MOL   C185 7053   3.488   3.665   2.087 -0.4605  0.3171  0.5708
   35MOL   H186 7054   3.948   3.763   2.053 -0.2754  0.1493  0.0601
   35MOL   H187 7055   3.842   3.827   1.944  0.6608  0.3267  1.4646
   35MOL   H188 7056   3.747   3.597   2.120 -1.5823  0.2189  1.8812
   35MOL   H189 7057   3.608   3.817   1.962  1.8075  1.0489  0.6733
   35MOL   H190 7058   3.516   3.564   2.117 -0.8998 -0.1733 -0.6640
   35MOL   H191 7059   3.417   3.662   2.005  0.0614  3.1928 -0.0580
   35MOL   C192 7060   3.418   3.732   2.206  0.0009 -0.3489  0.7026
   35MOL   C193 7061   3.308   3.644   2.263 -0.6801  0.0323  0.3420
   35MOL   C194 7062   3.333   3.547   2.359  0.1992 -0.4399 -0.8703
   35MOL   C195 7063   3.231   3.450   2.419  0.1080  0.5007  0.2156
   35MOL   H196 7064   3.487   3.756   2.287  0.5626 -0.9229  0.4034
   35MOL   H197 7065   3.374   3.824   2.167  1.6843  0.4100  0.5616
   35MOL   H198 7066   3.205   3.656   2.235 -0.0649 -0.3913 -2.2458
   35MOL   H199 7067   3.430   3.540   2.406  0.5386  0.8136 -1.3587
   35MOL   H200 7068   3.209   3.481   2.522  1.9430 -1.3266  1.1993
   35MOL   H201 7069   3.260   3.345   2.423 -2.4576 -0.2518  0.6339
   35MOL   H202 7070   3.131   3.460   2.376 -0.1751  1.1398  0.9883
   36MOL     C1 7071   4.130   4.050   0.133  0.0187  0.1325  0.4090
   36MOL     C2 7072   4.243   4.143   0.166 -0.1285 -0.3155 -0.9189
   36MOL     C3 7073   4.345   4.099   0.235 -0.5123 -0.0349 -0.6014
   36MOL     C4 7074   4.454   4.192   0.288 -0.3436 -0.5378 -0.0698
   36MOL     H5 7075   4.154   3.944   0.127 -1.7501 -0.2643  0.0596
   36MOL     H6 7076   4.087   4.071   0.035  2.0356  0.4345 -0.4446
   36MOL     H7 7077   4.231   4.251   0.162 -1.1408 -0.3051  1.7194
   36MOL     H8 7078   4.349   3.992   0.250  0.5918  0.1871  0.8188
   36MOL     H9 7079   4.422   4.295   0.308 -0.0423 -0.2628 -0.9987
   36MOL    H10 7080   4.530   4.213   0.213  0.2310 -2.3718 -0.0172
   36MOL    H11 7081   4.043   4.066   0.196  0.4858  1.6804  0.6938
   36MOL    C12 7082   4.508   4.160   0.433 -0.5752  0.5404 -0.1765
   36MOL    C13 7083   4.625   4.248   0.467 -1.1346  0.1131  0.0381
   36MOL    C14 7084   4.711   4.313   0.390 -0.5170 -0.2835 -0.4430
   36MOL    C15 7085   4.815   4.407   0.448  0.4103  0.8406  0.0116
   36MOL    H16 7086   4.441   4.186   0.514 -0.9241 -1.4699  0.2011
   36MOL    H17 7087   4.535   4.055   0.439 -5.7062 -0.7525  2.7346
   36MOL    H18 7088   4.640   4.260   0.573  0.7806 -1.5021 -0.0255
   36MOL    H19 7089   4.700   4.316   0.282  0.0494  2.5503 -0.4689
   36MOL    H20 7090   4.817   4.409   0.557  0.5155  1.2105  0.0023
   36MOL    H21 7091   4.790   4.507   0.414  0.7665  0.4027 -1.6103
   36MOL    C22 7092   4.953   4.370   0.411 -0.2534  0.0511 -0.1111
   36MOL    C23 7093   5.052   4.460   0.487  0.1389  0.1785  0.0702
   36MOL    C24 7094   5.163   4.414   0.548  0.4569  0.1316 -0.3453
   36MOL    C25 7095   5.269   4.502   0.610  0.1500 -0.4565 -0.1099
   36MOL    H26 7096   4.978   4.266   0.431  0.7684  0.6514  1.8934
   36MOL    H27 7097   4.971   4.390   0.305  0.2801 -0.5509 -0.1402
   36MOL    H28 7098   5.029   4.565   0.481 -0.9000 -0.1094 -1.3088
   36MOL    H29 7099   5.188   4.309   0.547 -0.8639 -0.2065  0.5667
   36MOL    H30 7100   5.224   4.601   0.607 -1.9181 -1.3934 -0.9729
   36MOL    H31 7101   5.356   4.499   0.545  0.1603  1.6855 -0.2279
   36MOL    C32 7102   5.309   4.451   0.752  0.2808 -0.8161  0.0588
   36MOL    C33 7103   5.206   4.469   0.866 -0.4636 -0.0726 -0.2876
   36MOL    C34 7104   5.215   4.545   0.970 -0.4972  0.3655 -0.6174
   36MOL    C35 7105   5.108   4.555   1.076 -0.0358  0.4625  0.1705
   36MOL    H36 7106   5.347   4.349   0.755  3.1028  0.1019 -1.5631
   36MOL    H37 7107   5.392   4.514   0.785 -2.5288  2.0566  1.8877
   36MOL    H38 7108   5.126   4.397   0.865 -0.4730 -0.0943  0.9811
   36MOL    H39 7109   5.292   4.619   0.984 -0.4189  0.0707  0.5535
   36MOL    H40 7110   5.041   4.471   1.059  0.8789  0.0797 -1.7285
   36MOL    H41 7111   5.029   4.629   1.064 -0.2722  0.0802 -0.7052
   36MOL    C42 7112   5.179   4.555   1.212 -0.3906 -0.2320  0.3570
   36MOL    C43 7113   5.147   4.677   1.290  0.2664  0.1777 -0.1096
   36MOL    C44 7114   5.126   4.682   1.422 -0.0475  0.1175  0.0774
   36MOL    C45 7115   5.101   4.804   1.509  0.2959 -0.1034 -0.3485
   36MOL    H46 7116   5.164   4.460   1.264 -1.5626 -0.3335 -0.1541
   36MOL    H47 7117   5.287   4.561   1.200 -0.6392  0.9053 -1.4682
   36MOL    H48 7118   5.142   4.768   1.233  1.7784  0.6596  0.5023
   36MOL    H49 7119   5.137   4.587   1.472  0.5204  0.4376  0.5661
   36MOL    H50 7120   5.103   4.890   1.442  0.0309 -0.4629 -0.8185
   36MOL    H51 7121   5.172   4.829   1.588 -1.2077  1.4133  0.5723
   36MOL    C52 7122   4.961   4.810   1.583 -0.2348 -0.0364 -0.1539
   36MOL    C53 7123   4.923   4.948   1.636 -0.5136  0.3710  0.2463
   36MOL    C54 7124   4.809   5.010   1.603 -0.2101  0.2107  0.3374
   36MOL    C55 7125   4.764   5.135   1.669 -0.0634  0.5143 -0.2185
   36MOL    H56 7126   4.883   4.766   1.521  1.0252 -0.9201 -1.1247
   36MOL    H57 7127   4.960   4.744   1.669 -0.5978 -1.7128 -1.4220
   36MOL    H58 7128   5.002   4.983   1.701  1.5296 -0.6567 -1.6003
   36MOL    H59 7129   4.755   4.946   1.535  0.8535 -0.3777  0.0267
   36MOL    H60 7130   4.806   5.127   1.769 -2.7518 -0.2893  0.8920
   36MOL    H61 7131   4.656   5.135   1.661 -0.2704 -2.0344  1.9841
   36MOL    C62 7132   4.818   5.264   1.606 -0.4606 -0.0441 -0.2633
   36MOL    C63 7133   4.784   5.389   1.687 -0.4509  0.6423 -0.1976
   36MOL    C64 7134   4.865   5.438   1.784  0.3818  0.0299  0.0455
   36MOL    C65 7135   4.833   5.549   1.879  0.3021 -0.2968 -0.4853
   36MOL    H66 7136   4.926   5.261   1.596 -0.3012  0.8199  1.1182
   36MOL    H67 7137   4.774   5.276   1.507 -1.3895 -1.3068 -0.0137
   36MOL    H68 7138   4.685   5.429   1.669  0.5969  3.8924  1.0302
   36MOL    H69 7139   4.952   5.377   1.800 -0.3769 -0.8915  0.7226
   36MOL    H70 7140   4.729   5.583   1.878 -0.2230 -1.8290  0.0694
   36MOL    H71 7141   4.887   5.636   1.844  0.0863  0.6086  1.3846
   36MOL    C72 7142   4.877   5.525   2.021  0.3824  0.1964 -0.6629
   36MOL    C73 7143   4.853   5.647   2.104  0.3421  0.2844  0.7177
   36MOL    C74 7144   4.949   5.729   2.151 -0.3919  0.5618  0.3725
   36MOL    C75 7145   4.916   5.863   2.224 -0.4175 -0.7663  0.0910
   36MOL    H76 7146   4.815   5.445   2.061  2.1731 -1.7749 -1.7235
   36MOL    H77 7147   4.980   5.489   2.011  0.8371  1.1735  0.3724
   36MOL    H78 7148   4.749   5.672   2.119  0.2305  0.4304 -0.2646
   36MOL    H79 7149   5.050   5.711   2.118 -0.3640  0.5670  0.4557
   36MOL    H80 7150   4.942   5.845   2.328  0.8336 -0.9892 -0.2497
   36MOL    H81 7151   4.810   5.884   2.233 -0.1455  0.4589  0.4417
   36MOL    C82 7152   5.003   5.981   2.174 -0.4315  0.2488  0.6054
   36MOL    C83 7153   4.997   6.012   2.029  0.9261 -1.3183  0.6997
   36MOL    C84 7154   5.046   6.121   1.976  0.1962  0.0014  0.4245
   36MOL    C85 7155   5.046   6.136   1.828 -0.1643 -0.9562 -0.5256
   36MOL    H86 7156   4.993   6.070   2.237 -2.9195  1.9692 -2.1322
   36MOL    H87 7157   5.108   5.955   2.188 -0.8001 -1.3510  0.4842
   36MOL    H88 7158   4.950   5.940   1.964  0.8013 -1.6223  1.1228
   36MOL    H89 7159   5.098   6.189   2.042  1.0546 -0.6490  0.4379
   36MOL    H90 7160   5.010   6.239   1.825  0.0044 -0.7746  2.0865
   36MOL    H91 7161   4.979   6.063   1.782  1.0683 -2.4755  0.0603
   36MOL    C92 7162   5.179   6.149   1.764 -0.2751  0.6928  0.9992
   36MOL    C93 7163   5.155   6.170   1.616  0.8683 -0.0469  0.2872
   36MOL    C94 7164   5.202   6.273   1.546 -0.5907 -0.5293  0.1472
   36MOL    C95 7165   5.177   6.291   1.398 -0.1555 -0.2709  0.2983
   36MOL    H96 7166   5.235   6.231   1.810  0.5586 -0.7868  2.6882
   36MOL    H97 7167   5.226   6.053   1.786  0.4960  1.0080  0.7759
   36MOL    H98 7168   5.101   6.096   1.559  0.5753  1.6189 -1.6613
   36MOL    H99 7169   5.255   6.354   1.593 -2.7648  1.3527 -0.5025
   36MOL   H100 7170   5.081   6.251   1.364 -0.0047  0.0148 -0.4801
   36MOL   H101 7171   5.260   6.245   1.346  0.3512  0.5963  0.3339
   36MOL   C102 7172   5.171   6.435   1.353  0.0559 -0.1006  0.0964
   36MOL   C103 7173   5.110   6.462   1.211 -1.0015 -0.3348 -0.0051
   36MOL   C104 7174   5.174   6.529   1.109  0.9327 -0.4266 -1.3416
   36MOL   C105 7175   5.122   6.562   0.974  0.2045  0.1847 -0.6207
   36MOL   H106 7176   5.121   6.503   1.422 -0.0166  0.1548 -0.2082
   36MOL   H107 7177   5.273   6.474   1.358 -0.6373  1.7405  0.1005
   36MOL   H108 7178   5.008   6.433   1.190 -0.8640  0.0834 -1.3131
   36MOL   H109 7179   5.273   6.568   1.130  0.0616  2.0794 -1.6538
   36MOL   H110 7180   5.028   6.506   0.972 -0.1773  0.8120 -0.3137
   36MOL   H111 7181   5.173   6.504   0.896 -0.2834 -0.3926 -0.5158
   36MOL   C112 7182   5.112   6.710   0.934  0.7941 -0.1470  0.1418
   36MOL   C113 7183   5.046   6.742   0.801 -0.5321  0.3392 -0.1213
   36MOL   C114 7184   4.957   6.847   0.779 -0.7948  0.2213  0.1848
   36MOL   C115 7185   4.877   6.870   0.656 -0.3822 -0.3246 -0.6527
   36MOL   H116 7186   5.058   6.760   1.015  1.7346  1.3879 -0.1473
   36MOL   H117 7187   5.214   6.747   0.933  0.4362  0.8560 -0.9000
   36MOL   H118 7188   5.059   6.666   0.725 -1.1507  0.8540 -0.7591
   36MOL   H119 7189   4.964   6.917   0.860  0.1835  2.1197 -1.4987
   36MOL   H120 7190   4.874   6.778   0.598  0.7715 -2.3656  2.3775
   36MOL   H121 7191   4.925   6.950   0.600 -3.7199  2.7234  0.6325
   36MOL   C122 7192   4.732   6.917   0.682  0.6515  0.4902  0.0531
   36MOL   C123 7193   4.682   7.022   0.583 -0.4346  0.7561 -0.1718
   36MOL   C124 7194   4.611   6.979   0.481  0.9273  0.2713 -0.1166
   36MOL   C125 7195   4.573   7.066   0.363 -0.1332  0.0734  0.6483
   36MOL   H126 7196   4.651   6.844   0.686  0.4000  0.8579  2.3385
   36MOL   H127 7197   4.730   6.981   0.771  1.0645  0.2893  0.2046
   36MOL   H128 7198   4.721   7.122   0.597 -0.1809  0.4613  1.3848
   36MOL   H129 7199   4.568   6.880   0.480 -0.5459  0.8275  2.5521
   36MOL   H130 7200   4.618   7.026   0.273 -0.6856  0.4967  0.1810
   36MOL   H131 7201   4.605   7.170   0.373  1.7925 -0.5484  1.0206
   36MOL   C132 7202   4.426   7.061   0.343 -0.3118  0.6153 -0.5996
   36MOL   C133 7203   4.372   7.107   0.212  0.2584  0.1223  0.2690
   36MOL   C134 7204   4.372   7.037   0.090 -0.4916 -0.3262  0.4383
   36MOL   C135 7205   4.316   7.100   7.941  0.3179  0.2249  0.0369
   36MOL   H136 7206   4.386   6.960   0.355  0.7421  0.2132 -0.4247
   36MOL   H137 7207   4.375   7.113   0.424  0.3623 -0.2609  0.4051
   36MOL   H138 7208   4.327   7.205   0.214 -0.9351 -0.4234  2.4983
   36MOL   H139 7209   4.416   6.939   0.087  0.1327 -0.1348  2.5325
   36MOL   H140 7210   4.276   7.199   7.962 -0.4766 -0.1783  0.4510
   36MOL   H141 7211   4.222   7.050   7.915  1.1351 -0.9918 -0.5995
   36MOL   C142 7212   4.417   7.093   7.828 -0.6740  0.4098 -0.3401
   36MOL   C143 7213   4.354   7.157   7.702 -0.8196 -0.2044 -0.3203
   36MOL   C144 7214   4.398   7.126   7.578  0.4852  0.5069 -0.1419
   36MOL   C145 7215   4.343   7.180   7.453 -0.3593  0.3039  0.6739
   36MOL   H146 7216   4.512   7.140   7.854  0.1497 -1.0123 -0.7414
   36MOL   H147 7217   4.446   6.993   7.795  1.4138  2.0868 -3.8529
   36MOL   H148 7218   4.267   7.215   7.727 -0.3260  0.4244 -0.0510
   36MOL   H149 7219   4.481   7.057   7.574  0.6241  0.6502  0.2211
   36MOL   H150 7220   4.293   7.273   7.480  0.9428  1.1451  0.2556
   36MOL   H151 7221   4.271   7.112   7.407  2.4956 -0.9578 -2.1326
   36MOL   C152 7222   4.451   7.215   7.356  0.0992 -0.4290  0.1078
   36MOL   C153 7223   4.390   7.271   7.226  0.4569 -0.1934 -1.3051
   36MOL   C154 7224   4.410   7.395   7.185  0.1433 -0.2264  0.9321
   36MOL   C155 7225   4.343   7.469   7.074 -0.1120  0.1400 -0.0629
   36MOL   H156 7226   4.526   7.282   7.398 -2.4038  2.6522 -0.1324
   36MOL   H157 7227   4.506   7.123   7.335 -0.1955 -0.8003  0.9414
   36MOL   H158 7228   4.324   7.219   7.159 -0.8039  0.0747 -0.3060
   36MOL   H159 7229   4.477   7.460   7.239 -0.2446  0.0973  1.0324
   36MOL   H160 7230   4.280   7.549   7.114 -1.0725 -0.6121 -0.0467
   36MOL   H161 7231   4.263   7.418   7.020 -1.6197  2.0650  0.3026
   36MOL   C162 7232   4.445   7.547   6.985  0.5134  0.6303  0.2103
   36MOL   C163 7233   4.554   7.455   6.921  0.8374  0.4443  0.1155
   36MOL   C164 7234   4.588   7.454   6.792  0.2625 -0.6775  0.6385
   36MOL   C165 7235   4.719   7.400   6.742 -0.2312  0.4163  0.3603
   36MOL   H166 7236   4.389   7.607   6.914 -0.1435  0.1467  0.3178
   36MOL   H167 7237   4.492   7.616   7.056 -1.9897  1.5154  1.0653
   36MOL   H168 7238   4.616   7.393   6.985 -0.6481  0.0133  1.1559
   36MOL   H169 7239   4.543   7.520   6.719  0.3023 -0.7555  0.5429
   36MOL   H170 7240   4.760   7.334   6.818 -1.9071  0.5831  1.4335
   36MOL   H171 7241   4.792   7.480   6.731  0.1730  0.1366  0.9993
   36MOL   C172 7242   4.700   7.316   6.623 -0.2866 -0.1077  0.4568
   36MOL   C173 7243   4.827   7.256   6.574 -0.2135  0.5818 -0.2346
   36MOL   C174 7244   4.861   7.131   6.531 -0.6246  0.5639 -0.0628
   36MOL   C175 7245   4.997   7.084   6.481  0.4126 -0.5063  0.0364
   36MOL   H176 7246   4.635   7.231   6.643 -0.9933  0.5007  0.8124
   36MOL   H177 7247   4.643   7.378   6.553 -0.7989 -1.2179 -0.1330
   36MOL   H178 7248   4.907   7.328   6.579 -0.3392  0.6710  0.5278
   36MOL   H179 7249   4.784   7.056   6.525 -1.1011  1.0686 -0.3284
   36MOL   H180 7250   5.034   6.998   6.536  1.4677  0.2612  0.5389
   36MOL   H181 7251   5.063   7.168   6.500  0.9452 -0.5289 -1.6172
   36MOL   C182 7252   4.985   7.049   6.326 -0.2594  0.0955 -0.4101
   36MOL   C183 7253   4.913   7.152   6.245 -0.2353  0.4668  0.9292
   36MOL   C184 7254   4.804   7.128   6.163 -0.0451  0.0434 -0.4940
   36MOL   C185 7255   4.747   7.238   6.079 -0.0802  0.1954  0.1099
   36MOL   H186 7256   5.082   7.015   6.290 -0.8104 -0.3165 -1.5289
   36MOL   H187 7257   4.919   6.962   6.321 -1.3373  0.7011  2.5080
   36MOL   H188 7258   4.962   7.247   6.262  1.2641  0.2276 -1.7299
   36MOL   H189 7259   4.754   7.033   6.159 -3.1605  1.5674  0.4148
   36MOL   H190 7260   4.713   7.200   5.983 -3.4916 -2.9565  2.4245
   36MOL   H191 7261   4.828   7.306   6.053 -1.4813  1.4932 -0.9855
   36MOL   C192 7262   4.632   7.316   6.145  0.4704  0.2022  0.0490
   36MOL   C193 7263   4.613   7.435   6.050  0.0238  0.1493 -0.2305
   36MOL   C194 7264   4.536   7.543   6.070  0.2985 -0.8486  0.1622
   36MOL   C195 7265   4.519   7.668   5.976 -0.6054  0.2443  0.6236
   36MOL   H196 7266   4.539   7.259   6.146 -0.2787  1.4141  0.2461
   36MOL   H197 7267   4.647   7.351   6.247 -0.6614 -1.5144  0.8159
   36MOL   H198 7268   4.659   7.434   5.952  1.3585 -0.7391  0.3884
   36MOL   H199 7269   4.488   7.553   6.167  0.5020  0.1807  0.1528
   36MOL   H200 7270   4.615   7.708   5.944 -1.0193  1.0222  0.3156
   36MOL   H201 7271   4.467   7.754   6.019 -2.1566 -0.7399  0.7567
   36MOL   H202 7272   4.461   7.629   5.892  0.0757  1.0944 -0.2568
   37MOL     C1 7273   3.415   3.151   4.022 -0.6399 -0.3638  1.1145
   37MOL     C2 7274   3.338   3.204   4.141  0.8428  0.0548  0.1942
   37MOL     C3 7275   3.234   3.141   4.199 -0.0410  0.5862  0.1947
   37MOL     C4 7276   3.144   3.206   4.305 -0.6955  0.3984 -0.2559
   37MOL     H5 7277   3.383   3.212   3.937 -0.9655 -1.7495  0.2328
   37MOL     H6 7278   3.387   3.051   3.990  1.5912 -1.1079  1.3374
   37MOL     H7 7279   3.368   3.305   4.162 -0.6697  0.9325 -1.7139
   37MOL     H8 7280   3.211   3.039   4.171  1.6475  0.6186 -1.3999
   37MOL     H9 7281   3.192   3.282   4.366  1.9488 -2.0548  0.7944
   37MOL    H10 7282   3.120   3.122   4.370 -0.6960 -0.0488 -0.8328
   37MOL    H11 7283   3.524   3.143   4.015 -0.6514  1.1174 -2.0047
   37MOL    C12 7284   3.007   3.252   4.237 -0.2357 -0.3011  0.0332
   37MOL    C13 7285   2.897   3.309   4.334 -0.4431 -0.7028 -0.7026
   37MOL    C14 7286   2.893   3.434   4.380 -0.0135  0.3053  0.4424
   37MOL    C15 7287   2.790   3.491   4.477  0.8184 -0.0891  0.4569
   37MOL    H16 7288   3.033   3.327   4.162  3.0126 -0.1642  1.2007
   37MOL    H17 7289   2.971   3.170   4.174 -1.0873  0.4961 -0.5331
   37MOL    H18 7290   2.840   3.231   4.383 -2.6099  0.5272 -1.1991
   37MOL    H19 7291   2.969   3.494   4.332  1.2257 -0.4982  1.3870
   37MOL    H20 7292   2.823   3.593   4.499  0.2537  0.7030 -2.2112
   37MOL    H21 7293   2.799   3.434   4.569  0.7282 -2.3380 -0.8896
   37MOL    C22 7294   2.646   3.500   4.427  0.0662 -0.4551  0.3677
   37MOL    C23 7295   2.571   3.368   4.423  0.5937  0.5258  0.2740
   37MOL    C24 7296   2.555   3.290   4.313  0.1977 -0.5307  0.1596
   37MOL    C25 7297   2.501   3.148   4.325 -0.7643  0.4369 -0.4280
   37MOL    H26 7298   2.590   3.566   4.493  1.8532  0.6635  0.7860
   37MOL    H27 7299   2.645   3.538   4.325 -1.3058 -0.6277  0.3098
   37MOL    H28 7300   2.519   3.335   4.511  0.3187 -1.2330 -0.5216
   37MOL    H29 7301   2.606   3.314   4.221 -0.8795  0.9469 -0.0559
   37MOL    H30 7302   2.410   3.139   4.266  0.7664 -0.7451 -2.6848
   37MOL    H31 7303   2.484   3.127   4.431  1.0821  0.5132 -0.0992
   37MOL    C32 7304   2.600   3.048   4.261 -0.1487 -0.1024 -0.7396
   37MOL    C33 7305   2.570   3.043   4.115  0.3999  0.9359  0.3148
   37MOL    C34 7306   2.662   3.050   4.016 -0.2704  0.6669  0.1279
   37MOL    C35 7307   2.623   3.061   3.871 -0.4418  0.1239  0.3607
   37MOL    H36 7308   2.703   3.075   4.283 -0.5757 -0.0820  1.3471
   37MOL    H37 7309   2.581   2.952   4.309  0.4465  0.2019  0.1264
   37MOL    H38 7310   2.466   3.040   4.089  0.3498  2.0421  0.3393
   37MOL    H39 7311   2.766   3.075   4.029 -0.3096  0.8570  0.0834
   37MOL    H40 7312   2.518   3.040   3.853  0.0063 -0.7018 -1.4466
   37MOL    H41 7313   2.682   2.988   3.814 -0.9356 -0.4017  0.5200
   37MOL    C42 7314   2.655   3.198   3.808  0.1073  0.3239 -0.6349
   37MOL    C43 7315   2.809   3.230   3.791  0.6601  0.3125  0.6110
   37MOL    C44 7316   2.876   3.312   3.882 -0.6754 -0.1634  0.3047
   37MOL    C45 7317   3.025   3.339   3.865  0.2654 -0.3418  0.1687
   37MOL    H46 7318   2.618   3.198   3.705  3.4166  0.1117 -1.8808
   37MOL    H47 7319   2.598   3.282   3.847 -1.4546 -1.0669  0.1463
   37MOL    H48 7320   2.861   3.167   3.721  0.4762  0.2217  0.5593
   37MOL    H49 7321   2.822   3.353   3.966 -1.5245  1.2327 -0.8887
   37MOL    H50 7322   3.050   3.273   3.782 -2.9668 -0.2107 -0.9766
   37MOL    H51 7323   3.083   3.298   3.948  0.5678  0.1571  0.2104
   37MOL    C52 7324   3.060   3.485   3.849 -0.2986  0.7571 -0.0762
   37MOL    C53 7325   3.047   3.564   3.979 -0.6809  0.6064  0.2679
   37MOL    C54 7326   2.993   3.687   4.000  0.0340 -0.0470 -0.5986
   37MOL    C55 7327   2.981   3.761   4.137  0.5309 -0.1687  0.1608
   37MOL    H56 7328   3.158   3.490   3.801  0.7558 -0.6807  1.8730
   37MOL    H57 7329   2.992   3.520   3.771 -1.3635  2.1408  1.4524
   37MOL    H58 7330   3.088   3.518   4.068 -3.0619 -0.1962  1.0042
   37MOL    H59 7331   2.945   3.744   3.922 -4.1997 -0.0684  1.8222
   37MOL    H60 7332   3.038   3.854   4.126 -0.7094  0.3767 -2.1173
   37MOL    H61 7333   3.033   3.717   4.222 -1.3072 -0.1030  1.3460
   37MOL    C62 7334   2.845   3.798   4.175  0.0911  0.0648  0.3317
   37MOL    C63 7335   2.770   3.886   4.070  1.2100  0.2816 -0.3943
   37MOL    C64 7336   2.643   3.921   4.074 -0.8651  0.0003  0.5563
   37MOL    C65 7337   2.573   4.012   3.971  0.2441  0.9558  1.0568
   37MOL    H66 7338   2.795   3.708   4.212 -1.6232  1.2253  0.8682
   37MOL    H67 7339   2.867   3.857   4.264  2.1498  1.5185 -1.0999
   37MOL    H68 7340   2.830   3.931   3.992  0.4094  1.0174 -0.5926
   37MOL    H69 7341   2.583   3.898   4.160 -2.3179  1.2823 -0.0947
   37MOL    H70 7342   2.652   4.045   3.903  1.4087 -1.6322  1.1128
   37MOL    H71 7343   2.536   4.100   4.023 -3.1305 -0.5146  1.2182
   37MOL    C72 7344   2.475   3.922   3.883 -0.2119 -0.0670  0.7061
   37MOL    C73 7345   2.412   3.995   3.760 -0.5877 -0.5070 -0.0047
   37MOL    C74 7346   2.286   4.037   3.754  0.4248 -0.3620  0.2680
   37MOL    C75 7347   2.227   4.100   3.625  1.0524  0.0044 -0.1751
   37MOL    H76 7348   2.527   3.835   3.843 -0.0645  0.1956  0.3234
   37MOL    H77 7349   2.402   3.882   3.953 -0.6864 -1.4454 -0.5786
   37MOL    H78 7350   2.476   4.010   3.674 -0.1594  2.6037  0.7829
   37MOL    H79 7351   2.226   4.035   3.844  1.2593 -0.0966  0.8384
   37MOL    H80 7352   2.127   4.056   3.621  1.9658 -2.0891 -0.4262
   37MOL    H81 7353   2.280   4.065   3.536 -0.0959  0.0822 -0.9043
   37MOL    C82 7354   2.210   4.244   3.631 -0.5021  0.1297  0.3194
   37MOL    C83 7355   2.138   4.303   3.515 -0.2333  0.1149 -0.1269
   37MOL    C84 7356   2.192   4.397   3.436  0.6391  0.2580 -0.5609
   37MOL    C85 7357   2.134   4.453   3.310  0.4243  0.4050  0.0069
   37MOL    H86 7358   2.164   4.277   3.723 -0.8829  0.2183  0.0973
   37MOL    H87 7359   2.306   4.297   3.634 -1.2451  1.4326  1.8272
   37MOL    H88 7360   2.036   4.268   3.501 -1.0875  2.7527 -0.8045
   37MOL    H89 7361   2.282   4.448   3.467  1.9598 -0.9590 -2.2552
   37MOL    H90 7362   2.077   4.533   3.357  1.9601  0.1178  2.4851
   37MOL    H91 7363   2.062   4.374   3.290 -0.5517  0.9246  1.3746
   37MOL    C92 7364   2.226   4.497   3.197  0.4028  0.0138 -0.1642
   37MOL    C93 7365   2.339   4.586   3.241 -0.2491 -0.1306  0.2630
   37MOL    C94 7366   2.352   4.709   3.184 -0.2802 -0.0576 -0.5177
   37MOL    C95 7367   2.469   4.810   3.220 -0.0001  0.5142  0.7332
   37MOL    H96 7368   2.266   4.409   3.146  1.1451  0.1136  0.2349
   37MOL    H97 7369   2.157   4.550   3.131  0.5187  1.2889  0.7229
   37MOL    H98 7370   2.416   4.571   3.315  0.6874  2.6580 -0.1001
   37MOL    H99 7371   2.285   4.739   3.105 -1.6572 -1.8056 -0.0416
   37MOL   H100 7372   2.502   4.852   3.125  1.3189 -1.4796  0.2725
   37MOL   H101 7373   2.549   4.754   3.267  0.2114 -0.0290 -0.2652
   37MOL   C102 7374   2.426   4.935   3.301 -0.1434 -0.2646  0.2810
   37MOL   C103 7375   2.523   5.058   3.308 -0.3751 -0.3503  0.4146
   37MOL   C104 7376   2.576   5.112   3.418 -0.6722  0.7649 -0.6217
   37MOL   C105 7377   2.666   5.237   3.425 -0.7930  0.8772  0.2941
   37MOL   H106 7378   2.334   4.971   3.256  0.7158  0.4037 -0.9809
   37MOL   H107 7379   2.402   4.897   3.400 -2.6974  1.3148  0.3194
   37MOL   H108 7380   2.558   5.093   3.211  1.3250 -1.3654  0.6435
   37MOL   H109 7381   2.547   5.078   3.516 -0.4650 -0.2062 -0.8891
   37MOL   H110 7382   2.625   5.296   3.507 -2.3343  1.3349 -0.7793
   37MOL   H111 7383   2.653   5.289   3.330 -0.4053  0.3279 -0.0646
   37MOL   C112 7384   2.818   5.204   3.446  0.2791 -0.4604 -0.0730
   37MOL   C113 7385   2.911   5.325   3.452 -0.6087  0.4668 -0.6398
   37MOL   C114 7386   2.978   5.363   3.350 -0.7927 -0.4090  0.8544
   37MOL   C115 7387   3.070   5.483   3.345 -0.6638 -0.2263 -0.6326
   37MOL   H116 7388   2.823   5.148   3.540  0.9295  1.2932  0.9592
   37MOL   H117 7389   2.861   5.129   3.380  0.0774 -1.1184  0.5372
   37MOL   H118 7390   2.912   5.388   3.541  0.6512  0.9439 -0.9709
   37MOL   H119 7391   2.970   5.300   3.263  2.6449 -0.5635  0.5623
   37MOL   H120 7392   3.172   5.447   3.356 -0.0854  0.7616 -2.6491
   37MOL   H121 7393   3.055   5.550   3.430 -0.0991 -0.6039 -0.2323
   37MOL   C122 7394   3.066   5.564   3.210 -0.1818  0.2495  0.6102
   37MOL   C123 7395   3.183   5.655   3.193  0.3204  0.2529  0.2507
   37MOL   C124 7396   3.176   5.782   3.160  0.9986 -0.1311 -0.2216
   37MOL   C125 7397   3.291   5.868   3.130 -0.5661 -0.5427 -0.0305
   37MOL   H126 7398   3.072   5.493   3.128  1.9345  0.3484  0.6591
   37MOL   H127 7399   2.974   5.622   3.210 -0.1766  0.3336 -2.2948
   37MOL   H128 7400   3.281   5.610   3.195 -0.1525 -0.7554  1.4765
   37MOL   H129 7401   3.079   5.829   3.158  0.9921 -0.1724 -2.1367
   37MOL   H130 7402   3.365   5.799   3.089  1.8419  2.2330 -0.5786
   37MOL   H131 7403   3.323   5.907   3.227 -0.4426  0.8500 -0.6137
   37MOL   C132 7404   3.271   5.975   3.014 -0.2622 -0.0946  0.2584
   37MOL   C133 7405   3.186   6.097   3.056  0.3355  0.3864  0.4933
   37MOL   C134 7406   3.228   6.223   3.028 -0.0958  0.2095  0.4081
   37MOL   C135 7407   3.139   6.349   3.028 -0.0853  0.1740 -0.2667
   37MOL   H136 7408   3.365   6.007   2.968 -0.7379  0.5663 -0.2568
   37MOL   H137 7409   3.222   5.922   2.933  1.0849  1.6199 -1.7175
   37MOL   H138 7410   3.089   6.070   3.095  0.0745 -0.4933 -0.7191
   37MOL   H139 7411   3.328   6.231   2.990 -1.9178 -0.8100 -5.0156
   37MOL   H140 7412   3.134   6.379   2.924 -1.3373 -0.5476 -0.4276
   37MOL   H141 7413   3.190   6.427   3.084  3.1214 -0.7514 -1.7700
   37MOL   C142 7414   3.000   6.324   3.089  0.0258  0.3383 -0.2683
   37MOL   C143 7415   2.912   6.444   3.099  0.6929  0.5320 -0.3122
   37MOL   C144 7416   2.815   6.469   3.187  0.0132 -0.2235 -0.0958
   37MOL   C145 7417   2.712   6.578   3.183  0.5783  0.1881  0.4599
   37MOL   H146 7418   2.953   6.251   3.024  2.0274 -0.4939 -0.8265
   37MOL   H147 7419   3.004   6.274   3.185  0.6730  0.5003 -0.2026
   37MOL   H148 7420   2.925   6.508   3.013 -0.9924  1.9553  0.4608
   37MOL   H149 7421   2.788   6.395   3.262  0.3622 -0.1382  0.1165
   37MOL   H150 7422   2.612   6.535   3.180  0.2468  0.9947 -0.2850
   37MOL   H151 7423   2.719   6.633   3.089  0.0686  0.5851  0.6476
   37MOL   C152 7424   2.716   6.677   3.295  0.3098  0.2899  0.2883
   37MOL   C153 7425   2.717   6.610   3.429  0.0429  0.3069  0.3977
   37MOL   C154 7426   2.819   6.570   3.502 -0.0050 -0.9376  0.0253
   37MOL   C155 7427   2.814   6.490   3.629 -0.1789 -0.5583  0.2214
   37MOL   H156 7428   2.809   6.730   3.277 -0.7333  1.7957 -0.7486
   37MOL   H157 7429   2.643   6.758   3.296 -0.1373 -0.1043  1.5147
   37MOL   H158 7430   2.614   6.591   3.457 -0.1405  0.3769 -0.2228
   37MOL   H159 7431   2.919   6.581   3.463  0.8204 -2.9649  1.4532
   37MOL   H160 7432   2.746   6.406   3.627 -0.3451 -0.3972 -1.6289
   37MOL   H161 7433   2.782   6.570   3.695  0.6249 -1.2578  1.4708
   37MOL   C162 7434   2.944   6.428   3.667 -0.0379  0.9224 -0.1539
   37MOL   C163 7435   2.931   6.338   3.791 -0.2408  0.2487  0.1471
   37MOL   C164 7436   2.985   6.220   3.803 -0.0390  0.8842  0.1390
   37MOL   C165 7437   2.965   6.127   3.917 -0.3263  0.0412 -1.0811
   37MOL   H166 7438   2.976   6.361   3.587  1.3501  1.6066 -0.1756
   37MOL   H167 7439   3.016   6.508   3.683 -0.0892  1.3309 -1.8670
   37MOL   H168 7440   2.875   6.381   3.874 -0.2022 -1.2556  0.9525
   37MOL   H169 7441   3.041   6.163   3.731  1.8256  0.4892  1.8547
   37MOL   H170 7442   2.916   6.034   3.888  1.5987 -1.1020 -0.7246
   37MOL   H171 7443   2.892   6.168   3.987 -0.9622 -0.3524 -1.5130
   37MOL   C172 7444   3.094   6.098   3.989 -0.3941  0.0805 -0.1743
   37MOL   C173 7445   3.082   5.996   4.098  0.1875 -0.0656  0.5652
   37MOL   C174 7446   3.181   5.967   4.174 -0.3611 -0.3057  0.4055
   37MOL   C175 7447   3.184   5.849   4.268  0.1717  0.5488  0.0244
   37MOL   H176 7448   3.162   6.062   3.912 -0.9130 -1.6846  0.1725
   37MOL   H177 7449   3.122   6.192   4.036 -1.5264  0.7789 -0.8786
   37MOL   H178 7450   2.996   5.930   4.104 -0.9793  1.4505  0.9122
   37MOL   H179 7451   3.267   6.031   4.189 -1.2883  1.0033  0.2893
   37MOL   H180 7452   3.289   5.828   4.287  0.9502  2.0366 -2.3599
   37MOL   H181 7453   3.141   5.767   4.209  0.6940 -0.8958  1.6154
   37MOL   C182 7454   3.099   5.870   4.395 -0.3010 -1.3009  0.7771
   37MOL   C183 7455   3.084   5.737   4.466 -0.2481  0.2879 -0.1460
   37MOL   C184 7456   2.969   5.678   4.484 -0.2191  0.7401 -0.3859
   37MOL   C185 7457   2.961   5.535   4.532  0.8121 -0.3793  0.0703
   37MOL   H186 7458   3.151   5.942   4.458  1.2901 -1.7780  0.0437
   37MOL   H187 7459   3.001   5.912   4.379 -0.6750 -2.3117  0.3554
   37MOL   H188 7460   3.174   5.693   4.506 -0.6255 -1.5004 -1.2142
   37MOL   H189 7461   2.871   5.716   4.457  0.3354  0.5449 -2.7623
   37MOL   H190 7462   2.895   5.529   4.618  0.1226 -0.1342 -0.4428
   37MOL   H191 7463   3.060   5.493   4.551  0.8020 -0.6781 -0.5273
   37MOL   C192 7464   2.910   5.444   4.424 -0.2759 -0.4423  0.1755
   37MOL   C193 7465   2.869   5.305   4.461  0.0606 -0.2327 -0.2936
   37MOL   C194 7466   2.906   5.198   4.388 -0.5025  0.8128 -0.2301
   37MOL   C195 7467   2.852   5.063   4.421 -1.2565  0.7888  0.3995
   37MOL   H196 7468   2.817   5.491   4.389  0.0593  1.7938  2.1733
   37MOL   H197 7469   2.974   5.448   4.336  1.1350  2.9276  1.2565
   37MOL   H198 7470   2.811   5.299   4.551 -0.3429 -2.9720 -0.6941
   37MOL   H199 7471   2.964   5.200   4.296  0.8810 -1.7175  0.5599
   37MOL   H200 7472   2.938   4.996   4.426 -1.1086  0.9469  0.0256
   37MOL   H201 7473   2.782   5.037   4.342 -4.1769  3.1342  2.1117
   37MOL   H202 7474   2.797   5.056   4.515 -0.2716  1.0571  1.0103
   38MOL     C1 7475   5.946   2.338   3.373 -0.2461 -0.0819 -0.3368
   38MOL     C2 7476   5.893   2.316   3.233  0.0147 -0.4954  0.6683
   38MOL     C3 7477   5.936   2.370   3.117  0.8076  0.1432  0.0358
   38MOL     C4 7478   5.868   2.355   2.983  0.2087 -0.3563  0.5196
   38MOL     H5 7479   6.029   2.276   3.408 -1.1272 -1.0468  0.0758
   38MOL     H6 7480   5.863   2.336   3.444  1.2288 -1.3519  1.4012
   38MOL     H7 7481   5.812   2.245   3.227 -0.6583  0.3344 -0.1220
   38MOL     H8 7482   6.023   2.435   3.121  0.4880  0.5364  0.7305
   38MOL     H9 7483   5.796   2.274   2.994 -0.9347  0.4657 -0.6019
   38MOL    H10 7484   5.946   2.323   2.913  0.7202  2.5267 -0.3019
   38MOL    H11 7485   5.995   2.434   3.390  0.1094 -0.0984 -1.2686
   38MOL    C12 7486   5.801   2.487   2.946  0.5175  0.2927  0.3844
   38MOL    C13 7487   5.728   2.480   2.817 -0.5666  0.5861 -0.4346
   38MOL    C14 7488   5.597   2.460   2.795 -0.1973 -0.0129  0.2254
   38MOL    C15 7489   5.538   2.456   2.650  0.9883 -0.1736  0.3508
   38MOL    H16 7490   5.731   2.517   3.024  3.2096 -0.6183  3.3139
   38MOL    H17 7491   5.878   2.563   2.935  0.6261  0.4402  2.0047
   38MOL    H18 7492   5.794   2.497   2.733  1.2289 -3.1821  0.0924
   38MOL    H19 7493   5.538   2.426   2.880 -1.0190  0.1224 -0.2846
   38MOL    H20 7494   5.595   2.515   2.578  3.3486 -0.3485  2.0283
   38MOL    H21 7495   5.440   2.502   2.668  1.0184 -0.1070  0.3405
   38MOL    C22 7496   5.516   2.311   2.606 -0.3721  0.4206  0.2284
   38MOL    C23 7497   5.465   2.311   2.462  0.2580  0.4037 -0.7017
   38MOL    C24 7498   5.520   2.234   2.369 -0.4684  0.4422  0.2512
   38MOL    C25 7499   5.455   2.221   2.235 -0.3689  0.1017  0.0509
   38MOL    H26 7500   5.610   2.255   2.612 -1.7933 -2.0977 -0.3771
   38MOL    H27 7501   5.449   2.262   2.676  0.3988 -0.2564  0.5102
   38MOL    H28 7502   5.384   2.375   2.429 -0.8961 -0.5429  0.2664
   38MOL    H29 7503   5.606   2.173   2.392  0.1038  0.7228 -1.1089
   38MOL    H30 7504   5.349   2.244   2.233 -0.7596 -1.6997 -1.3016
   38MOL    H31 7505   5.456   2.115   2.208 -0.0166  0.5605 -1.8283
   38MOL    C32 7506   5.530   2.298   2.126 -0.1075 -1.2252  0.2729
   38MOL    C33 7507   5.430   2.326   2.011 -0.0206  0.1021  0.6061
   38MOL    C34 7508   5.450   2.297   1.879  0.6429  0.1115  0.1579
   38MOL    C35 7509   5.352   2.345   1.773  0.8424 -0.0439 -0.5402
   38MOL    H36 7510   5.563   2.394   2.166 -1.4023 -0.0183 -1.4404
   38MOL    H37 7511   5.613   2.236   2.093 -0.0243 -0.2264 -1.4940
   38MOL    H38 7512   5.338   2.371   2.043 -1.8024 -2.4376 -0.7675
   38MOL    H39 7513   5.533   2.240   1.841  1.7241 -0.6829  3.5467
   38MOL    H40 7514   5.408   2.426   1.728 -1.0463  0.7330 -1.5662
   38MOL    H41 7515   5.274   2.403   1.823  1.1628  0.5173 -0.6936
   38MOL    C42 7516   5.295   2.242   1.667 -0.6109  0.3307  0.1703
   38MOL    C43 7517   5.182   2.306   1.579  0.2316  0.1016  0.7135
   38MOL    C44 7518   5.059   2.256   1.580 -0.9974 -0.0598  0.3893
   38MOL    C45 7519   4.934   2.320   1.517 -0.6009  0.5612  0.0015
   38MOL    H46 7520   5.381   2.212   1.608 -1.2647 -1.2380 -0.0298
   38MOL    H47 7521   5.267   2.150   1.719  2.2917 -0.7740 -0.1140
   38MOL    H48 7522   5.213   2.388   1.516  0.0009 -0.4564 -0.1340
   38MOL    H49 7523   5.032   2.167   1.636  0.9397 -0.5422  0.6033
   38MOL    H50 7524   4.964   2.410   1.465 -0.9612 -0.2022 -1.5508
   38MOL    H51 7525   4.864   2.340   1.598 -0.0778  0.0604  0.5915
   38MOL    C52 7526   4.871   2.229   1.409 -0.3485 -0.0184  0.2367
   38MOL    C53 7527   4.778   2.319   1.333 -0.1276 -0.5089  0.0177
   38MOL    C54 7528   4.748   2.311   1.200 -0.6643 -0.8077 -0.4409
   38MOL    C55 7529   4.665   2.410   1.129 -0.1745 -0.3418 -1.0674
   38MOL    H56 7530   4.948   2.198   1.338  0.7849  0.2968  1.3226
   38MOL    H57 7531   4.820   2.138   1.442  2.0807 -1.2896  0.6286
   38MOL    H58 7532   4.735   2.396   1.396  0.8750 -0.3522  0.5346
   38MOL    H59 7533   4.801   2.239   1.140  0.6440  0.3570 -0.6928
   38MOL    H60 7534   4.651   2.504   1.182  0.1492 -1.5149  1.1397
   38MOL    H61 7535   4.571   2.364   1.098 -1.2231  1.9653 -1.3978
   38MOL    C62 7536   4.732   2.454   0.998  0.9588 -0.2645  0.6444
   38MOL    C63 7537   4.635   2.545   0.913 -0.0051  0.0493  0.7638
   38MOL    C64 7538   4.672   2.664   0.869  0.4533 -0.6417 -0.7530
   38MOL    C65 7539   4.571   2.748   0.786 -0.4160  0.0106  0.4949
   38MOL    H66 7540   4.830   2.502   1.006  0.3903  1.2663 -1.2668
   38MOL    H67 7541   4.749   2.368   0.933  1.5279  1.6479 -1.8104
   38MOL    H68 7542   4.541   2.502   0.883 -0.3646  0.7058  0.9251
   38MOL    H69 7543   4.771   2.703   0.892  1.2279 -1.7585 -2.1151
   38MOL    H70 7544   4.484   2.682   0.793  1.4432 -2.4952  0.6903
   38MOL    H71 7545   4.593   2.769   0.682  0.5531 -0.4697  0.6027
   38MOL    C72 7546   4.530   2.880   0.850  0.1712  0.4546  0.2225
   38MOL    C73 7547   4.471   2.857   0.988 -0.0136  0.0042  0.1655
   38MOL    C74 7548   4.489   2.914   1.107  0.2215 -0.2526 -0.8297
   38MOL    C75 7549   4.435   2.878   1.244  0.6333  0.7425  1.2902
   38MOL    H76 7550   4.615   2.948   0.843 -0.4305  1.2089  0.1602
   38MOL    H77 7551   4.447   2.922   0.792  0.7448  0.9122 -0.2662
   38MOL    H78 7552   4.407   2.770   0.994 -1.7831  1.3467  0.9806
   38MOL    H79 7553   4.553   3.001   1.117  1.7233 -1.4787  0.3007
   38MOL    H80 7554   4.339   2.829   1.225  0.8479  0.7133  0.2458
   38MOL    H81 7555   4.420   2.979   1.282  0.0534  1.7401 -1.4351
   38MOL    C82 7556   4.537   2.787   1.318  0.6585 -0.2203  0.3003
   38MOL    C83 7557   4.522   2.798   1.472 -0.0795 -0.2673  0.1192
   38MOL    C84 7558   4.621   2.815   1.556 -0.9708  0.2756  0.4886
   38MOL    C85 7559   4.606   2.835   1.704 -0.1125  0.1640 -0.1300
   38MOL    H86 7560   4.519   2.683   1.291  2.7518 -1.0749  2.0214
   38MOL    H87 7561   4.640   2.814   1.296  1.0837 -1.6868  0.4771
   38MOL    H88 7562   4.422   2.772   1.504 -0.1957 -1.9406 -1.5065
   38MOL    H89 7563   4.721   2.831   1.519 -0.6869 -0.0381  1.1180
   38MOL    H90 7564   4.510   2.871   1.740  0.9575  1.5319  1.4620
   38MOL    H91 7565   4.670   2.918   1.736 -2.3012  2.0736 -0.5789
   38MOL    C92 7566   4.624   2.703   1.778 -0.3503 -0.1297 -1.1252
   38MOL    C93 7567   4.649   2.720   1.933  0.1788  0.1640 -0.1079
   38MOL    C94 7568   4.612   2.628   2.025 -0.2475 -0.9934 -0.1582
   38MOL    C95 7569   4.619   2.645   2.173  0.0332 -0.6025  0.4712
   38MOL    H96 7570   4.544   2.632   1.755 -0.5088 -0.0202 -0.9095
   38MOL    H97 7571   4.715   2.662   1.733 -1.0884 -0.3384 -2.4367
   38MOL    H98 7572   4.705   2.801   1.977 -0.0883  0.2505  0.0722
   38MOL    H99 7573   4.563   2.538   1.991  0.2494 -1.5714  0.6437
   38MOL   H100 7574   4.553   2.729   2.196  1.8053  1.2949 -1.1516
   38MOL   H101 7575   4.717   2.675   2.211  0.8039 -0.7540 -1.3175
   38MOL   C102 7576   4.566   2.524   2.241 -1.0632 -0.1505  0.1351
   38MOL   C103 7577   4.572   2.526   2.389 -0.2365 -0.1450 -0.2931
   38MOL   C104 7578   4.637   2.430   2.463  0.1914 -0.0056 -0.2286
   38MOL   C105 7579   4.645   2.432   2.616 -0.1193 -0.4349 -0.2481
   38MOL   H106 7580   4.467   2.519   2.197 -0.7300  2.1689 -0.9835
   38MOL   H107 7581   4.614   2.430   2.213 -2.0956  0.3597 -3.5900
   38MOL   H108 7582   4.531   2.615   2.435 -1.4301 -1.7527  1.8681
   38MOL   H109 7583   4.674   2.341   2.415  0.4672 -0.9323  1.6460
   38MOL   H110 7584   4.562   2.495   2.647  1.4263  1.6836 -0.2908
   38MOL   H111 7585   4.741   2.465   2.658 -0.4264  0.0286  0.0908
   38MOL   C112 7586   4.614   2.297   2.683  0.3805 -0.7745  1.0266
   38MOL   C113 7587   4.586   2.304   2.835  0.3103 -0.4786 -0.3584
   38MOL   C114 7588   4.680   2.353   2.920  0.0797 -0.5993 -0.1805
   38MOL   C115 7589   4.666   2.345   3.072 -0.7220  0.6288 -0.7723
   38MOL   H116 7590   4.520   2.258   2.643  0.3905  1.1053 -0.9152
   38MOL   H117 7591   4.694   2.226   2.665  1.4656  0.4186  1.0343
   38MOL   H118 7592   4.496   2.264   2.880 -0.8487  2.7980  0.3847
   38MOL   H119 7593   4.773   2.386   2.876 -0.3483  0.8844  0.0166
   38MOL   H120 7594   4.566   2.309   3.095 -0.5206  0.5770  0.0435
   38MOL   H121 7595   4.678   2.450   3.099 -0.0454  0.0968  1.0671
   38MOL   C122 7596   4.780   2.251   3.130  0.0303 -0.0904  0.3254
   38MOL   C123 7597   4.913   2.315   3.102 -0.4435 -0.4114 -0.2472
   38MOL   C124 7598   5.014   2.244   3.043 -0.5674  0.8919 -0.2220
   38MOL   C125 7599   5.153   2.300   3.042  0.9846 -0.4263  0.2703
   38MOL   H126 7600   4.776   2.235   3.238 -1.8616 -0.8045  0.1688
   38MOL   H127 7601   4.778   2.154   3.080 -0.3714  0.7868 -1.4072
   38MOL   H128 7602   4.925   2.417   3.135  2.1457 -0.6716 -0.2412
   38MOL   H129 7603   5.000   2.140   3.016  0.6720  1.4004 -2.9676
   38MOL   H130 7604   5.218   2.250   3.113 -0.7381 -0.7633  1.6520
   38MOL   H131 7605   5.153   2.408   3.061 -1.0379  0.0535 -2.0828
   38MOL   C132 7606   5.220   2.279   2.896  0.1630 -0.8315 -0.5733
   38MOL   C133 7607   5.137   2.343   2.787  0.1141 -0.1091  0.3117
   38MOL   C134 7608   5.160   2.462   2.725  0.4131 -0.1973 -0.0487
   38MOL   C135 7609   5.069   2.532   2.625 -0.1590  0.4201 -0.6063
   38MOL   H136 7610   5.321   2.321   2.905  0.4512 -2.0583  2.7732
   38MOL   H137 7611   5.223   2.171   2.885  1.2339 -0.8128 -0.5079
   38MOL   H138 7612   5.044   2.298   2.757  1.4739 -2.3607 -0.6219
   38MOL   H139 7613   5.247   2.519   2.754  1.2634 -1.2294 -0.5199
   38MOL   H140 7614   5.035   2.625   2.670 -2.3368 -1.4710  1.8289
   38MOL   H141 7615   4.978   2.479   2.598 -0.5021  0.8586 -0.3032
   38MOL   C142 7616   5.159   2.564   2.500  0.0900 -0.6164  0.2682
   38MOL   C143 7617   5.077   2.558   2.373 -0.0847  0.3021 -1.1190
   38MOL   C144 7618   5.076   2.658   2.279 -0.3384 -0.0766 -0.0542
   38MOL   C145 7619   5.020   2.643   2.134  0.0192  0.4549  0.2178
   38MOL   H146 7620   5.203   2.663   2.513  0.7156 -1.1642  2.5278
   38MOL   H147 7621   5.242   2.493   2.501 -0.4959 -1.3317 -0.9777
   38MOL   H148 7622   5.029   2.462   2.358 -0.2894  0.5550 -2.1372
   38MOL   H149 7623   5.123   2.754   2.291  1.3559 -0.6022 -2.1892
   38MOL   H150 7624   4.959   2.731   2.115  0.0085  0.8203  1.8182
   38MOL   H151 7625   4.955   2.556   2.134 -2.3503  2.1533 -1.0818
   38MOL   C152 7626   5.138   2.649   2.033 -0.3496  0.6712 -0.3026
   38MOL   C153 7627   5.079   2.642   1.893 -0.7401  0.4236 -0.0403
   38MOL   C154 7628   5.064   2.749   1.815 -0.3191  0.0752 -0.0407
   38MOL   C155 7629   5.000   2.744   1.679  0.0028  0.4246  0.0606
   38MOL   H156 7630   5.202   2.737   2.035  2.3549 -1.1304 -2.8668
   38MOL   H157 7631   5.200   2.561   2.046  0.8515  1.5112 -0.3102
   38MOL   H158 7632   5.056   2.543   1.855  1.1589  0.0910 -0.3569
   38MOL   H159 7633   5.090   2.846   1.855  0.3539 -0.5796  1.1301
   38MOL   H160 7634   4.911   2.807   1.682 -0.8312 -0.5875 -2.0207
   38MOL   H161 7635   4.957   2.644   1.665 -2.0183  1.0570  1.4656
   38MOL   C162 7636   5.095   2.789   1.568  0.4876  0.1191  0.1993
   38MOL   C163 7637   5.194   2.682   1.540 -0.1282 -0.0805 -0.5881
   38MOL   C164 7638   5.320   2.713   1.517  0.2377 -0.1258  0.1148
   38MOL   C165 7639   5.423   2.622   1.451 -0.6913 -0.6341  0.3071
   38MOL   H166 7640   5.039   2.802   1.475  1.8027 -1.3991 -0.8207
   38MOL   H167 7641   5.132   2.889   1.589  0.6406 -0.3798  2.3910
   38MOL   H168 7642   5.152   2.583   1.527  1.7553 -0.8653 -0.8267
   38MOL   H169 7643   5.353   2.814   1.536 -2.4082  0.4202  2.2082
   38MOL   H170 7644   5.385   2.520   1.442 -0.2984 -0.6711 -1.1050
   38MOL   H171 7645   5.509   2.619   1.518 -0.0568 -5.2862 -0.5840
   38MOL   C172 7646   5.468   2.695   1.327  0.4845 -0.5288  0.2211
   38MOL   C173 7647   5.553   2.599   1.240  0.7108 -0.1658  0.2684
   38MOL   C174 7648   5.686   2.601   1.234  0.0980 -0.2805 -0.2149
   38MOL   C175 7649   5.764   2.508   1.148  0.3735 -0.1626 -0.6659
   38MOL   H176 7650   5.396   2.754   1.270  1.8878  0.3179 -0.7066
   38MOL   H177 7651   5.544   2.768   1.355 -1.0798  1.3607 -0.3315
   38MOL   H178 7652   5.506   2.523   1.178  1.5437 -1.2173  0.9087
   38MOL   H179 7653   5.746   2.663   1.299 -1.8981  2.5186 -0.9570
   38MOL   H180 7654   5.704   2.467   1.067 -2.8822  0.5544  1.2759
   38MOL   H181 7655   5.797   2.421   1.205 -2.4227 -1.5428 -1.0581
   38MOL   C182 7656   5.882   2.579   1.076  0.6773 -0.5167  0.1506
   38MOL   C183 7657   5.986   2.493   1.011 -0.4816  0.3876 -0.6597
   38MOL   C184 7658   6.007   2.496   0.881 -0.0983 -0.0267 -1.1512
   38MOL   C185 7659   6.115   2.419   0.808 -0.3636  0.0943 -0.3001
   38MOL   H186 7660   5.843   2.658   1.012  0.3542 -2.6150 -2.3429
   38MOL   H187 7661   5.942   2.641   1.142  0.8632 -1.0923  0.5196
   38MOL   H188 7662   6.052   2.436   1.075 -0.6803  1.2465  0.3214
   38MOL   H189 7663   5.938   2.563   0.832 -1.2901 -0.6970 -0.4144
   38MOL   H190 7664   6.179   2.359   0.873 -1.9327 -0.7635  0.4648
   38MOL   H191 7665   6.189   2.491   0.771 -0.4802  1.2900  1.7478
   38MOL   C192 7666   6.074   2.337   0.686 -0.4078  0.3136  0.0472
   38MOL   C193 7667   6.184   2.244   0.634  0.0316 -0.1164 -0.0755
   38MOL   C194 7668   6.252   2.263   0.519 -0.0170  0.4796 -0.0854
   38MOL   C195 7669   6.367   2.180   0.463 -0.3988 -0.2980  1.1409
   38MOL   H196 7670   5.992   2.268   0.704  0.5394 -0.7915  0.1601
   38MOL   H197 7671   6.047   2.403   0.604 -1.4663 -0.3046 -0.1029
   38MOL   H198 7672   6.214   2.153   0.684  2.4861 -1.2565 -3.4015
   38MOL   H199 7673   6.220   2.351   0.465  0.0829  0.2745 -0.4830
   38MOL   H200 7674   6.330   2.134   0.372  1.9562  1.4882 -0.7927
   38MOL   H201 7675   6.392   2.098   0.530 -0.0755 -1.1464 -0.0301
   38MOL   H202 7676   6.458   2.239   0.454 -0.0057 -1.2846 -1.8947
   39MOL     C1 7677   7.932   3.070   6.035 -0.0521 -0.3579 -0.4627
   39MOL     C2 7678   0.081   3.162   6.038  0.0921  0.3794  0.2361
   39MOL     C3 7679   0.090   3.274   5.961 -0.8020 -0.1720 -0.5790
   39MOL     C4 7680   0.218   3.352   5.935  0.1409 -0.4502  0.1385
   39MOL     H5 7681   7.895   3.075   6.137  0.5384  0.0890 -0.2638
   39MOL     H6 7682   7.961   2.967   6.018  0.5750 -0.5890  1.8111
   39MOL     H7 7683   0.159   3.131   6.106  1.7720  0.0559 -1.7829
   39MOL     H8 7684   0.003   3.293   5.900 -0.5085  1.6674 -0.4772
   39MOL     H9 7685   0.302   3.282   5.941 -0.3682 -0.9946  0.9978
   39MOL    H10 7686   0.238   3.436   6.002  0.6889 -0.5578  0.1115
   39MOL    H11 7687   7.856   3.095   5.961  0.6205  1.5058 -0.5590
   39MOL    C12 7688   0.215   3.404   5.788  0.1114 -0.8533  0.0210
   39MOL    C13 7689   0.337   3.487   5.755 -0.1206  0.5959 -0.8128
   39MOL    C14 7690   0.329   3.619   5.727 -0.0015 -0.0957 -0.3104
   39MOL    C15 7691   0.455   3.701   5.680  0.7122 -0.0972  0.1034
   39MOL    H16 7692   0.216   3.307   5.738  1.5488 -0.1718 -1.3358
   39MOL    H17 7693   0.122   3.459   5.774 -0.2405 -1.2911  0.5896
   39MOL    H18 7694   0.432   3.436   5.756  0.1276  1.0718  0.9588
   39MOL    H19 7695   0.228   3.657   5.731 -0.3165 -1.0239  0.6658
   39MOL    H20 7696   0.549   3.646   5.675  2.0186  2.0441  0.4070
   39MOL    H21 7697   0.465   3.777   5.758 -1.4637 -0.8127  1.1214
   39MOL    C22 7698   0.435   3.775   5.552 -0.5221 -0.5132 -0.7566
   39MOL    C23 7699   0.539   3.876   5.508 -0.0626 -0.4302  0.4409
   39MOL    C24 7700   0.653   3.908   5.572  0.5881  0.7946 -0.8452
   39MOL    C25 7701   0.764   3.988   5.507  0.2071 -0.0608 -0.5516
   39MOL    H26 7702   0.425   3.704   5.470 -2.0753 -1.2535  0.0592
   39MOL    H27 7703   0.337   3.821   5.560 -0.6612 -0.6183 -1.7840
   39MOL    H28 7704   0.529   3.906   5.405  1.6050 -1.1377  0.0664
   39MOL    H29 7705   0.680   3.872   5.670  2.3149 -1.9594 -2.2823
   39MOL    H30 7706   0.794   4.053   5.589 -0.7057  0.3511 -0.5377
   39MOL    H31 7707   0.724   4.048   5.425  3.1010  0.1903 -1.8277
   39MOL    C32 7708   0.881   3.902   5.475 -0.2565  0.2457 -0.1721
   39MOL    C33 7709   0.935   3.809   5.585 -1.0151 -0.4065 -0.6143
   39MOL    C34 7710   1.057   3.813   5.633  0.4095 -0.0367 -0.0815
   39MOL    C35 7711   1.123   3.742   5.748  0.4882 -0.2000  0.4069
   39MOL    H36 7712   0.859   3.842   5.387 -0.2603  2.4084 -1.6661
   39MOL    H37 7713   0.956   3.974   5.444  0.0699 -0.8822 -2.0667
   39MOL    H38 7714   0.864   3.737   5.623 -0.0665 -0.3670  1.3211
   39MOL    H39 7715   1.122   3.891   5.599  0.7431  0.7191  2.1871
   39MOL    H40 7716   1.165   3.816   5.816  0.1224  1.9309 -1.6242
   39MOL    H41 7717   1.212   3.692   5.711 -0.0911 -1.4634  0.6871
   39MOL    C42 7718   1.035   3.638   5.826 -0.4929 -0.5239  0.5826
   39MOL    C43 7719   0.942   3.701   5.928  0.3656 -0.4507 -0.6860
   39MOL    C44 7720   0.809   3.691   5.933 -0.6112 -0.3249  0.0511
   39MOL    C45 7721   0.707   3.764   6.023  0.1946  0.2263 -0.7038
   39MOL    H46 7722   0.971   3.580   5.760 -0.3844 -0.7698  0.6922
   39MOL    H47 7723   1.094   3.565   5.882  1.0994 -1.0883 -1.7543
   39MOL    H48 7724   0.973   3.780   5.996 -2.9288 -0.2066  0.6044
   39MOL    H49 7725   0.752   3.626   5.868  1.5215 -1.4806 -0.6859
   39MOL    H50 7726   0.662   3.841   5.960 -0.9372  0.3879  0.2803
   39MOL    H51 7727   0.752   3.819   6.105  2.3524 -0.9935 -1.0508
   39MOL    C52 7728   0.596   3.672   6.064 -0.3045 -0.9434 -0.3062
   39MOL    C53 7729   0.525   3.728   6.183  0.0312  0.5365 -0.0575
   39MOL    C54 7730   0.470   3.668   6.285  0.5494  0.8017 -0.3571
   39MOL    C55 7731   0.396   3.738   6.400 -0.5356  0.0005  0.0125
   39MOL    H56 7732   0.521   3.648   5.988 -0.9837 -2.5300  0.8251
   39MOL    H57 7733   0.635   3.572   6.083  1.2280  0.1266  2.4328
   39MOL    H58 7734   0.522   3.835   6.172 -1.2366  0.5762  0.5383
   39MOL    H59 7735   0.456   3.561   6.292  0.1342  0.9598  1.7968
   39MOL    H60 7736   0.295   3.696   6.408 -0.8109  0.7924  0.6335
   39MOL    H61 7737   0.380   3.844   6.386 -0.8937 -0.2778 -1.8470
   39MOL    C62 7738   0.469   3.718   6.534 -0.2076  0.3115  0.0743
   39MOL    C63 7739   0.405   3.782   6.651 -0.3102  0.1250 -0.2837
   39MOL    C64 7740   0.477   3.844   6.749  0.4798  0.0636 -0.0337
   39MOL    C65 7741   0.419   3.906   6.873  0.1724 -0.0774 -0.3144
   39MOL    H66 7742   0.456   3.614   6.564  2.9458 -0.3347 -0.6827
   39MOL    H67 7743   0.572   3.738   6.508 -0.5918 -1.8320 -3.3432
   39MOL    H68 7744   0.299   3.764   6.659 -0.2330 -0.3539 -0.3364
   39MOL    H69 7745   0.580   3.872   6.736  0.9649 -1.2580  0.9146
   39MOL    H70 7746   0.496   3.872   6.942 -0.3639 -2.7544 -0.9756
   39MOL    H71 7747   0.326   3.855   6.901 -0.9922  0.4266 -3.1228
   39MOL    C72 7748   0.405   4.063   6.861 -0.6392  0.0483 -0.2992
   39MOL    C73 7749   0.293   4.090   6.756  0.0691  0.8361  0.0507
   39MOL    C74 7750   0.316   4.160   6.646 -0.0143 -0.3155 -0.1045
   39MOL    C75 7751   0.205   4.194   6.551  0.3961  0.2028  0.0508
   39MOL    H76 7752   0.389   4.105   6.961  1.3099 -2.6830  1.2435
   39MOL    H77 7753   0.497   4.112   6.829 -0.2891 -0.1141  0.4477
   39MOL    H78 7754   0.194   4.055   6.782 -0.0260 -0.2438 -1.7437
   39MOL    H79 7755   0.418   4.188   6.624  0.2518 -1.9025 -0.9808
   39MOL    H80 7756   0.205   4.299   6.521 -0.9840 -0.1453 -1.2069
   39MOL    H81 7757   0.113   4.189   6.609  0.1998  1.6419 -0.1097
   39MOL    C82 7758   0.196   4.091   6.436 -0.0388  0.1736 -0.1999
   39MOL    C83 7759   0.099   4.139   6.331  0.2307 -0.3396  0.0783
   39MOL    C84 7760   7.956   4.087   6.311  0.3011  0.3992  0.4808
   39MOL    C85 7761   7.867   4.145   6.200 -0.5981  0.0346 -0.2646
   39MOL    H86 7762   0.294   4.078   6.390 -0.0102  0.3664 -0.1969
   39MOL    H87 7763   0.159   3.995   6.470  1.3564 -0.8719 -1.5664
   39MOL    H88 7764   0.136   4.226   6.278 -0.2293  1.2689  2.2775
   39MOL    H89 7765   7.914   4.006   6.369 -1.2689 -0.1276 -1.3456
   39MOL    H90 7766   7.888   4.099   6.104  0.0202 -2.7522  1.1511
   39MOL    H91 7767   7.889   4.252   6.191 -3.3902  0.7753  1.3199
   39MOL    C92 7768   7.722   4.137   6.240  0.1800 -0.2094  0.0593
   39MOL    C93 7769   7.652   4.243   6.159  0.4899  0.4426  0.0939
   39MOL    C94 7770   7.562   4.319   6.227  0.2243  0.5777  0.3520
   39MOL    C95 7771   7.472   4.419   6.160 -0.6602  0.5169 -0.4636
   39MOL    H96 7772   7.684   4.040   6.209  1.9391 -0.8477 -0.1695
   39MOL    H97 7773   7.698   4.146   6.346 -0.7714 -0.0275 -0.1731
   39MOL    H98 7774   7.669   4.240   6.052 -1.9336  0.7152 -0.3282
   39MOL    H99 7775   7.540   4.301   6.331 -1.1530  0.4288  0.0436
   39MOL   H100 7776   7.370   4.387   6.178  0.3669 -2.2269  0.7118
   39MOL   H101 7777   7.486   4.425   6.052 -2.9453  2.8096 -0.6848
   39MOL   C102 7778   7.486   4.561   6.210  0.3091  0.0986  0.1484
   39MOL   C103 7779   7.384   4.645   6.143 -0.0657 -0.6017 -0.2213
   39MOL   C104 7780   7.252   4.637   6.170  0.2817  0.1005  0.2610
   39MOL   C105 7781   7.149   4.730   6.094 -0.2599  0.4277  0.1714
   39MOL   H106 7782   7.482   4.585   6.317 -0.9502 -1.8485  0.5560
   39MOL   H107 7783   7.582   4.596   6.172  0.4588  1.1790  1.4613
   39MOL   H108 7784   7.414   4.725   6.077 -1.2791  0.9845  1.0725
   39MOL   H109 7785   7.197   4.566   6.229 -0.0652 -0.5010 -0.7875
   39MOL   H110 7786   7.196   4.775   6.006  0.2502 -0.5313 -0.0603
   39MOL   H111 7787   7.110   4.807   6.160  0.0471  1.6075 -1.0073
   39MOL   C112 7788   7.029   4.640   6.052  0.0576  0.0516  0.2763
   39MOL   C113 7789   6.937   4.715   5.952 -0.5493  0.9309  0.4169
   39MOL   C114 7790   6.837   4.791   5.991 -0.0996  0.6069  0.3366
   39MOL   C115 7791   6.750   4.854   5.891 -0.3332  0.4073 -0.2565
   39MOL   H116 7792   7.066   4.557   5.992 -0.2430  1.5525 -2.0495
   39MOL   H117 7793   6.969   4.606   6.137  1.0726  1.2204  1.4907
   39MOL   H118 7794   6.967   4.716   5.848 -0.6764  1.5472  0.3839
   39MOL   H119 7795   6.813   4.803   6.096 -2.3477 -1.0729  0.0479
   39MOL   H120 7796   6.645   4.826   5.902 -0.5583  1.5781  0.6979
   39MOL   H121 7797   6.786   4.819   5.794 -1.7517 -0.7016 -0.4014
   39MOL   C122 7798   6.747   5.007   5.889 -0.3307  0.3340 -0.3972
   39MOL   C123 7799   6.644   5.059   5.785 -0.0145  0.2784  0.0250
   39MOL   C124 7800   6.668   5.176   5.719  0.2140  0.0723 -0.7473
   39MOL   C125 7801   6.573   5.241   5.627  0.1191 -0.1745 -0.6384
   39MOL   H126 7802   6.722   5.050   5.985 -0.0406  2.9307 -1.4318
   39MOL   H127 7803   6.849   5.035   5.860 -0.0693  0.4778  0.6352
   39MOL   H128 7804   6.549   5.008   5.790 -0.0716  0.0864 -2.4078
   39MOL   H129 7805   6.758   5.236   5.730 -0.1266  0.2590  1.3645
   39MOL   H130 7806   6.567   5.346   5.652 -1.6084 -0.0087 -1.6880
   39MOL   H131 7807   6.474   5.196   5.624  1.3610 -3.1168  0.6268
   39MOL   C132 7808   6.624   5.217   5.482  0.6190  0.1294  0.2554
   39MOL   C133 7809   6.767   5.273   5.463 -0.6909  0.0258 -0.1455
   39MOL   C134 7810   6.784   5.404   5.435 -0.3908 -0.3900  0.2312
   39MOL   C135 7811   6.925   5.462   5.439  0.0236 -1.1154  0.3175
   39MOL   H136 7812   6.646   5.114   5.455  1.6322  0.4440 -0.1857
   39MOL   H137 7813   6.551   5.264   5.416 -0.4320 -1.9065 -0.0666
   39MOL   H138 7814   6.848   5.211   5.497  0.3388  1.8108  0.7671
   39MOL   H139 7815   6.700   5.467   5.409  0.5988  0.0977 -1.8974
   39MOL   H140 7816   6.907   5.565   5.406  1.0231 -1.4096 -1.1849
   39MOL   H141 7817   6.983   5.409   5.364  0.5485  1.4899 -1.1837
   39MOL   C142 7818   6.986   5.472   5.586 -0.7781 -0.7014 -0.2344
   39MOL   C143 7819   7.142   5.482   5.579 -0.2127 -0.4482 -1.5263
   39MOL   C144 7820   7.219   5.409   5.660  0.2317 -0.1089  0.2840
   39MOL   C145 7821   7.366   5.417   5.655 -0.1708  0.3002 -0.3737
   39MOL   H146 7822   6.947   5.561   5.635 -0.3902  0.3735 -1.8373
   39MOL   H147 7823   6.956   5.394   5.655  1.9633 -1.5111  0.1150
   39MOL   H148 7824   7.182   5.562   5.519 -1.0500  2.4548  1.6208
   39MOL   H149 7825   7.180   5.329   5.721 -0.6095 -1.0289 -1.4170
   39MOL   H150 7826   7.396   5.472   5.566  0.0120 -1.2068 -1.2526
   39MOL   H151 7827   7.395   5.313   5.639 -0.0656  0.1817  0.5539
   39MOL   C152 7828   7.444   5.459   5.782  0.7096  0.4968 -0.4640
   39MOL   C153 7829   7.561   5.365   5.810 -0.2545  0.1945  0.4606
   39MOL   C154 7830   7.692   5.399   5.826  0.0481  0.2369  0.7112
   39MOL   C155 7831   7.804   5.301   5.852  0.3475 -0.1125 -1.0438
   39MOL   H156 7832   7.474   5.564   5.774  1.4121  0.3079 -0.3355
   39MOL   H157 7833   7.392   5.452   5.878  1.6262 -2.0475 -0.1226
   39MOL   H158 7834   7.532   5.261   5.819  0.9625 -0.2827 -0.9021
   39MOL   H159 7835   7.714   5.503   5.809  2.5921 -0.6248 -1.7678
   39MOL   H160 7836   7.868   5.280   5.766  0.7517  1.7277 -1.2089
   39MOL   H161 7837   7.771   5.201   5.882 -1.1729  0.4820 -0.6929
   39MOL   C162 7838   7.886   5.349   5.974  0.2488  0.2431 -0.2333
   39MOL   C163 7839   7.814   5.325   6.102 -0.3000 -0.3612  0.4231
   39MOL   C164 7840   7.873   5.267   6.214 -0.2902  0.0749 -0.3128
   39MOL   C165 7841   7.803   5.226   6.346  0.4091 -0.1622 -0.4325
   39MOL   H166 7842   0.002   5.292   5.976  0.3313  0.4211  1.8331
   39MOL   H167 7843   7.901   5.453   5.947 -1.1786  0.3663 -0.6214
   39MOL   H168 7844   7.713   5.360   6.112 -0.3075 -0.0584 -0.6924
   39MOL   H169 7845   0.001   5.245   6.211  0.4049  3.2519 -1.0742
   39MOL   H170 7846   7.816   5.313   6.411  0.7448 -0.6207  0.1142
   39MOL   H171 7847   7.863   5.145   6.387  0.8189  0.3115 -0.0965
   39MOL   C172 7848   7.659   5.170   6.310  0.9191  0.3190 -0.5553
   39MOL   C173 7849   7.593   5.088   6.416 -0.1817 -0.1222  0.1313
   39MOL   C174 7850   7.647   5.066   6.536  0.5284 -0.0697 -0.4123
   39MOL   C175 7851   7.575   4.987   6.644 -0.0195 -0.5640  0.2425
   39MOL   H176 7852   7.584   5.240   6.275  1.7018  1.3056 -0.2891
   39MOL   H177 7853   7.673   5.110   6.220 -2.4080 -0.6273 -0.5113
   39MOL   H178 7854   7.495   5.052   6.388  0.0844 -0.4253 -0.4221
   39MOL   H179 7855   7.743   5.107   6.565  0.7735  0.1810 -1.5331
   39MOL   H180 7856   7.472   4.969   6.614  0.4459 -3.1355  0.0802
   39MOL   H181 7857   7.567   5.048   6.735 -0.3969 -1.5921  0.9106
   39MOL   C182 7858   7.639   4.853   6.680 -0.0943  0.2067  0.1027
   39MOL   C183 7859   7.749   4.846   6.785 -0.1808 -0.4263 -0.6539
   39MOL   C184 7860   7.745   4.773   6.897 -0.3876 -0.2800 -0.1551
   39MOL   C185 7861   7.859   4.774   6.997 -0.5557  0.4455  0.4923
   39MOL   H186 7862   7.556   4.798   6.724 -0.0682 -0.0510 -0.1711
   39MOL   H187 7863   7.676   4.788   6.601  1.7051  0.8534  0.3695
   39MOL   H188 7864   7.837   4.904   6.763  0.5878 -0.3822  2.4188
   39MOL   H189 7865   7.658   4.711   6.914 -0.4460  0.5584  2.8903
   39MOL   H190 7866   7.952   4.813   6.956 -1.3890  0.3273 -1.5549
   39MOL   H191 7867   7.884   4.670   7.015  0.1503  1.1474  3.9962
   39MOL   C192 7868   7.809   4.831   7.128 -0.1416 -0.4171  0.4227
   39MOL   C193 7869   7.913   4.832   7.234 -0.1944  0.0565  0.0730
   39MOL   C194 7870   7.906   4.755   7.341 -0.0695  0.3764 -0.5786
   39MOL   C195 7871   0.037   4.747   7.451 -0.3038 -0.7236  0.5460
   39MOL   H196 7872   7.766   4.928   7.104  0.2370  0.0500  1.5899
   39MOL   H197 7873   7.730   4.764   7.164 -0.1652  1.0551  3.2910
   39MOL   H198 7874   0.020   4.896   7.211 -0.7877  0.6896 -0.3380
   39MOL   H199 7875   7.820   4.692   7.354  1.2548 -1.4199 -0.2179
   39MOL   H200 7876   0.118   4.808   7.410 -1.1037  0.4939  0.7404
   39MOL   H201 7877   0.065   4.643   7.464 -0.2858 -0.8155 -0.2074
   39MOL   H202 7878   0.015   4.785   7.551 -1.4805  0.0253  0.0063
   40MOL     C1 7879   4.052   2.546   0.539 -0.4640  0.3692 -0.5314
   40MOL     C2 7880   4.087   2.505   0.398 -0.0804 -0.2870 -0.2339
   40MOL     C3 7881   4.209   2.512   0.345 -0.1411  0.2029  0.1217
   40MOL     C4 7882   4.259   2.468   0.204  0.5258  0.1653  0.5833
   40MOL     H5 7883   3.999   2.641   0.545 -0.9012  0.1420 -0.7167
   40MOL     H6 7884   4.145   2.549   0.596 -0.9061  0.3509  0.2007
   40MOL     H7 7885   4.012   2.465   0.331  1.2075 -1.4001 -1.0510
   40MOL     H8 7886   4.290   2.552   0.405  1.4856 -1.2701 -1.0336
   40MOL     H9 7887   4.277   2.555   0.141 -1.0872  0.2796  0.2471
   40MOL    H10 7888   4.178   2.412   0.158  0.3432 -0.5918  1.8113
   40MOL    H11 7889   3.989   2.470   0.585 -1.1882  1.5800  0.5164
   40MOL    C12 7890   4.387   2.384   0.216  0.0469 -0.5180 -0.1859
   40MOL    C13 7891   4.503   2.451   0.289  0.2616 -0.2044 -0.0647
   40MOL    C14 7892   4.562   2.395   0.400  0.0576  0.1734  0.3981
   40MOL    C15 7893   4.664   2.458   0.494 -0.1944 -0.4616  0.9188
   40MOL    H16 7894   4.376   2.283   0.257  2.0842 -1.1906 -1.2144
   40MOL    H17 7895   4.430   2.365   0.118  1.4602 -0.1545  0.3408
   40MOL    H18 7896   4.531   2.549   0.254 -2.1196  0.9502  1.0978
   40MOL    H19 7897   4.522   2.305   0.444  1.6507 -1.1258 -0.7711
   40MOL    H20 7898   4.650   2.433   0.600 -0.4539 -1.7180  0.5974
   40MOL    H21 7899   4.660   2.566   0.479  1.2815 -0.2770  1.7178
   40MOL    C22 7900   4.808   2.413   0.445 -1.4343 -0.4142 -0.5131
   40MOL    C23 7901   4.926   2.487   0.513 -0.7871  0.1142  0.7320
   40MOL    C24 7902   4.937   2.520   0.642 -0.0824 -0.3233  0.0158
   40MOL    C25 7903   5.050   2.590   0.704 -0.3430 -0.7943  0.0050
   40MOL    H26 7904   4.826   2.309   0.472 -1.0350 -0.3431 -0.5023
   40MOL    H27 7905   4.817   2.415   0.336  1.2031  0.7079 -0.3318
   40MOL    H28 7906   5.008   2.508   0.446 -0.3632  0.0586  1.2300
   40MOL    H29 7907   4.863   2.489   0.715 -0.9567 -0.3842 -0.8969
   40MOL    H30 7908   5.000   2.664   0.767  1.8802 -0.2935  1.2358
   40MOL    H31 7909   5.105   2.653   0.633 -0.0947 -0.1317  0.7810
   40MOL    C32 7910   5.136   2.499   0.789 -0.0024  0.3253  0.5362
   40MOL    C33 7911   5.219   2.400   0.713 -0.3345 -0.5029  0.6418
   40MOL    C34 7912   5.206   2.267   0.727  1.2688 -0.2119  0.1826
   40MOL    C35 7913   5.289   2.168   0.664  0.1148 -0.1255  0.3835
   40MOL    H36 7914   5.208   2.563   0.840  0.1671  0.6573 -0.1118
   40MOL    H37 7915   5.079   2.448   0.866 -0.3289  1.3786  1.0070
   40MOL    H38 7916   5.286   2.438   0.637  1.8263 -0.7501  2.3899
   40MOL    H39 7917   5.130   2.235   0.796 -0.5776  0.4793 -1.4761
   40MOL    H40 7918   5.383   2.213   0.633  0.5346 -1.0130  0.3703
   40MOL    H41 7919   5.233   2.141   0.574  0.5969  1.8583 -0.5439
   40MOL    C42 7920   5.311   2.050   0.760 -0.0925 -0.2405 -0.4314
   40MOL    C43 7921   5.378   1.936   0.687 -0.3655  0.0933 -0.0386
   40MOL    C44 7922   5.319   1.842   0.617  0.5702 -0.0434  0.1705
   40MOL    C45 7923   5.390   1.732   0.529  0.7516 -0.0118 -0.5827
   40MOL    H46 7924   5.377   2.075   0.844 -1.3398 -1.5394  0.9690
   40MOL    H47 7925   5.219   2.011   0.803 -0.0768 -0.6868 -0.7969
   40MOL    H48 7926   5.485   1.942   0.679 -0.1384  1.0924  3.1299
   40MOL    H49 7927   5.211   1.843   0.615  0.5316 -2.1576  0.3305
   40MOL    H50 7928   5.354   1.635   0.565  1.7942 -1.5266 -3.4594
   40MOL    H51 7929   5.497   1.724   0.547  0.8670 -0.9172 -1.6456
   40MOL    C52 7930   5.359   1.746   0.380 -0.2092  0.4822  0.0679
   40MOL    C53 7931   5.451   1.659   0.297 -0.0401 -0.4748  0.9069
   40MOL    C54 7932   5.403   1.597   0.186  0.5088 -0.2651  0.0341
   40MOL    C55 7933   5.491   1.527   0.086 -0.4578 -0.1181 -0.3137
   40MOL    H56 7934   5.257   1.716   0.356  0.3181 -0.1807 -1.3527
   40MOL    H57 7935   5.376   1.851   0.354 -0.4446  0.0981 -1.6827
   40MOL    H58 7936   5.555   1.652   0.328 -0.2366 -3.2929  1.0229
   40MOL    H59 7937   5.299   1.613   0.164  0.7807 -0.3568 -1.3733
   40MOL    H60 7938   5.461   1.423   0.096 -0.8435 -0.0257 -0.4906
   40MOL    H61 7939   5.594   1.548   0.113 -0.0793  1.4177 -2.8076
   40MOL    C62 7940   5.474   1.588   7.922 -0.1919 -0.4186 -0.1587
   40MOL    C63 7941   5.567   1.524   7.822  0.1302  0.7122  0.1325
   40MOL    C64 7942   5.569   1.539   7.685  0.2175  0.3801  0.5914
   40MOL    C65 7943   5.659   1.456   7.599  0.4668  0.4733 -0.2316
   40MOL    H66 7944   5.373   1.577   7.882 -0.1301  0.3899 -0.5350
   40MOL    H67 7945   5.492   1.695   7.931 -0.9874 -0.2196 -0.8423
   40MOL    H68 7946   5.641   1.458   7.865 -0.1025 -0.1819 -0.8176
   40MOL    H69 7947   5.498   1.606   7.638  1.5255 -0.4391 -2.6919
   40MOL    H70 7948   5.739   1.432   7.669  0.7727  2.5380  0.1416
   40MOL    H71 7949   5.711   1.520   7.528  1.4362  1.2399  1.1472
   40MOL    C72 7950   5.606   1.329   7.534 -0.4593  0.1501 -0.5468
   40MOL    C73 7951   5.708   1.262   7.442 -0.0879 -0.3966 -1.1784
   40MOL    C74 7952   5.692   1.267   7.312  0.4981  0.3367  0.1348
   40MOL    C75 7953   5.775   1.201   7.199 -0.9106  0.4492 -0.5791
   40MOL    H76 7954   5.591   1.258   7.616  0.3627  1.1065  0.4483
   40MOL    H77 7955   5.511   1.348   7.486 -0.4159  2.8834  0.3733
   40MOL    H78 7956   5.794   1.216   7.488 -2.7870 -2.6732  1.7538
   40MOL    H79 7957   5.604   1.316   7.273  0.0277 -1.4480 -1.1153
   40MOL    H80 7958   5.721   1.118   7.152 -1.7743  1.0271 -0.6180
   40MOL    H81 7959   5.852   1.168   7.268 -1.0328  3.3707  1.0389
   40MOL    C82 7960   5.849   1.300   7.106  0.4127  0.2491 -0.5444
   40MOL    C83 7961   5.936   1.245   6.997  0.0544 -1.0077 -0.7362
   40MOL    C84 7962   6.068   1.242   6.990  0.0514  0.2487 -0.9208
   40MOL    C85 7963   6.147   1.186   6.880  0.0999 -0.1423  0.4639
   40MOL    H86 7964   5.769   1.362   7.065 -0.1581 -0.9376 -1.2402
   40MOL    H87 7965   5.915   1.359   7.169 -0.9447 -0.1725  1.3099
   40MOL    H88 7966   5.875   1.206   6.917  0.2690  1.0561 -1.9474
   40MOL    H89 7967   6.119   1.283   7.076 -2.4891 -0.0672  0.7951
   40MOL    H90 7968   6.079   1.126   6.819 -1.0426  0.4143  1.1805
   40MOL    H91 7969   6.213   1.122   6.940  1.3148  0.1660 -0.5147
   40MOL    C92 7970   6.216   1.292   6.792 -0.2620 -0.2474  0.1970
   40MOL    C93 7971   6.305   1.223   6.687 -0.4554 -0.5936 -1.1825
   40MOL    C94 7972   6.332   1.260   6.561 -0.0496 -0.4659 -0.3307
   40MOL    C95 7973   6.421   1.184   6.457 -0.4895 -0.0844  0.0403
   40MOL    H96 7974   6.140   1.354   6.743 -2.2594 -0.2308  3.1630
   40MOL    H97 7975   6.271   1.369   6.846 -2.8682  2.0842 -0.3267
   40MOL    H98 7976   6.351   1.138   6.734 -0.2700 -0.3293 -0.8883
   40MOL    H99 7977   6.286   1.350   6.523 -0.1562  0.1881  1.3198
   40MOL   H100 7978   6.374   1.177   6.359  0.5313 -1.4382 -0.3589
   40MOL   H101 7979   6.424   1.082   6.495  0.2074 -0.1192 -0.0961
   40MOL   C102 7980   6.558   1.252   6.432  0.0807 -0.2733 -0.0897
   40MOL   C103 7981   6.651   1.165   6.358  0.1756 -0.9326  0.5663
   40MOL   C104 7982   6.705   1.200   6.240 -0.0412 -0.0074  0.8654
   40MOL   C105 7983   6.796   1.101   6.162  1.0097  0.0146 -0.3250
   40MOL   H106 7984   6.555   1.344   6.373 -1.7163  0.1663  0.6688
   40MOL   H107 7985   6.596   1.280   6.530 -0.6336  1.7104 -0.3738
   40MOL   H108 7986   6.684   1.077   6.411  1.3658 -1.2759 -0.7132
   40MOL   H109 7987   6.686   1.292   6.186  0.2779  0.4093  1.4553
   40MOL   H110 7988   6.738   1.030   6.104  0.5565 -0.7785  1.1119
   40MOL   H111 7989   6.852   1.045   6.237  1.1985  0.8886  0.1989
   40MOL   C112 7990   6.901   1.184   6.082 -0.4282  0.2228 -0.5706
   40MOL   C113 7991   7.012   1.090   6.040  0.1515 -0.0857  1.6492
   40MOL   C114 7992   7.143   1.105   6.053  0.3042  0.4360 -0.4416
   40MOL   C115 7993   7.242   1.008   6.004 -0.6914 -0.1061  0.0004
   40MOL   H116 7994   6.853   1.219   5.990 -1.3683 -1.1773 -0.6256
   40MOL   H117 7995   6.951   1.264   6.136 -0.7228  0.4985 -0.7034
   40MOL   H118 7996   6.981   0.992   6.006  1.2145  0.0574  0.2440
   40MOL   H119 7997   7.175   1.204   6.081  0.4373  0.0730  0.7120
   40MOL   H120 7998   7.187   0.921   5.969 -0.2911 -0.0039 -0.9027
   40MOL   H121 7999   7.305   0.992   6.092 -1.1535  2.6608  0.8792
   40MOL   C122 8000   7.324   1.056   5.887  0.4350  0.3209 -0.6523
   40MOL   C123 8001   7.249   1.101   5.756 -0.0211  0.6487  0.6999
   40MOL   C124 8002   7.304   1.073   5.634  0.8546  0.5490 -0.1595
   40MOL   C125 8003   7.225   1.113   5.511 -0.1530 -0.0424  0.5452
   40MOL   H126 8004   7.399   1.130   5.912  1.4094 -1.5790  2.4068
   40MOL   H127 8005   7.374   0.965   5.853 -0.3226  0.1328 -1.2916
   40MOL   H128 8006   7.162   1.163   5.769  0.5853  1.5914  0.3645
   40MOL   H129 8007   7.392   1.010   5.629 -0.0380 -0.6378 -1.3129
   40MOL   H130 8008   7.259   1.211   5.478 -3.1176  1.4677  1.8069
   40MOL   H131 8009   7.127   1.151   5.540  0.9040  2.1782  1.2958
   40MOL   C132 8010   7.224   1.003   5.399  0.6226  0.1644 -0.6511
   40MOL   C133 8011   7.170   1.059   5.272  0.7112  0.4638 -0.6951
   40MOL   C134 8012   7.060   1.010   5.213  0.2911  0.3100 -0.2838
   40MOL   C135 8013   6.990   1.077   5.097  0.2245  0.3537  0.1692
   40MOL   H136 8014   7.319   0.953   5.383 -0.1896 -0.5486 -3.6831
   40MOL   H137 8015   7.157   0.922   5.427  1.5973 -1.2758 -2.4215
   40MOL   H138 8016   7.228   1.136   5.223  1.0938 -0.1449 -1.2185
   40MOL   H139 8017   7.001   0.926   5.248 -2.2527  1.9896 -0.4247
   40MOL   H140 8018   7.026   1.176   5.070 -1.7371  0.5763 -1.8414
   40MOL   H141 8019   6.895   1.101   5.145  0.8413 -0.0255  1.6058
   40MOL   C142 8020   6.980   0.986   4.974  0.6344 -0.2570 -1.3060
   40MOL   C143 8021   6.903   1.053   4.866 -0.5474 -0.4327  0.5396
   40MOL   C144 8022   6.933   1.052   4.731 -0.9902 -0.4869 -0.2333
   40MOL   C145 8023   6.851   1.121   4.627 -0.1430 -0.2536 -0.4976
   40MOL   H146 8024   7.074   0.946   4.938 -0.6328 -2.0017 -2.7818
   40MOL   H147 8025   6.925   0.904   5.018  1.3748  0.7348  1.5514
   40MOL   H148 8026   6.817   1.110   4.899  0.7221  2.4337 -0.9022
   40MOL   H149 8027   7.012   0.987   4.697  0.4111  0.9054  0.2988
   40MOL   H150 8028   6.756   1.163   4.662  1.4961  3.9690 -0.7809
   40MOL   H151 8029   6.813   1.046   4.558 -0.3514 -0.3238 -0.3061
   40MOL   C152 8030   6.926   1.235   4.570 -0.1972 -0.1897  0.8015
   40MOL   C153 8031   6.837   1.329   4.478  0.4059  0.6931 -0.3111
   40MOL   C154 8032   6.805   1.461   4.500 -0.0702 -0.0135  0.4864
   40MOL   C155 8033   6.718   1.539   4.402 -0.5330  0.1700  0.3846
   40MOL   H156 8034   6.983   1.295   4.641  0.6341  1.5006 -1.2367
   40MOL   H157 8035   7.002   1.185   4.511 -0.8409 -0.3811  0.1187
   40MOL   H158 8036   6.808   1.277   4.388 -1.4572  1.0499  0.0831
   40MOL   H159 8037   6.832   1.501   4.596  1.1646 -0.0112  0.1557
   40MOL   H160 8038   6.724   1.518   4.295 -1.0967  1.3079  0.1210
   40MOL   H161 8039   6.740   1.646   4.413  0.6606  0.1574 -1.5568
   40MOL   C162 8040   6.575   1.513   4.435  0.0294  0.1049  0.2130
   40MOL   C163 8041   6.476   1.589   4.350 -0.2506  0.3394  0.5549
   40MOL   C164 8042   6.369   1.655   4.392  0.9678 -0.6239 -0.2836
   40MOL   C165 8043   6.274   1.717   4.296 -0.5312  0.3134  0.4407
   40MOL   H166 8044   6.550   1.408   4.420  0.9018 -0.3534  1.8119
   40MOL   H167 8045   6.542   1.541   4.535 -0.6804 -0.2513  0.0799
   40MOL   H168 8046   6.500   1.598   4.244 -0.2559  1.5669  0.6491
   40MOL   H169 8047   6.331   1.650   4.493  1.8029  1.4341  0.1569
   40MOL   H170 8048   6.317   1.745   4.200 -2.2665  2.2265  0.1996
   40MOL   H171 8049   6.238   1.814   4.332 -0.0118  0.1865  1.3135
   40MOL   C172 8050   6.159   1.621   4.269 -0.0596  0.2561  0.0657
   40MOL   C173 8051   6.069   1.677   4.161  0.1513 -0.3758 -0.2625
   40MOL   C174 8052   6.039   1.615   4.049  0.4920 -0.2284 -0.6813
   40MOL   C175 8053   5.951   1.665   3.929 -0.6278 -0.2508  0.4604
   40MOL   H176 8054   6.198   1.524   4.239  0.5559  1.0782 -1.8763
   40MOL   H177 8055   6.102   1.602   4.360  1.7080 -0.3706  1.0486
   40MOL   H178 8056   6.032   1.777   4.176 -1.4400 -0.6831 -1.9925
   40MOL   H179 8057   6.075   1.513   4.046  0.5775 -0.3107  1.6275
   40MOL   H180 8058   5.942   1.773   3.926 -1.4942 -0.3334 -0.0346
   40MOL   H181 8059   5.852   1.620   3.938 -0.8463  0.2794  0.7082
   40MOL   C182 8060   6.009   1.620   3.788 -0.0621  0.2658 -0.1206
   40MOL   C183 8061   5.908   1.597   3.672  0.3601  0.2183  0.8012
   40MOL   C184 8062   5.881   1.473   3.630  0.0368 -0.7489 -0.6826
   40MOL   C185 8063   5.801   1.439   3.506 -0.6026 -0.1008 -0.3014
   40MOL   H186 8064   6.071   1.699   3.743 -1.2050 -0.1197 -2.4840
   40MOL   H187 8065   6.078   1.539   3.808 -0.1427 -0.0477 -1.1067
   40MOL   H188 8066   5.869   1.677   3.611 -0.1580 -0.8758 -0.3238
   40MOL   H189 8067   5.925   1.397   3.693  0.5927  1.8541  2.2089
   40MOL   H190 8068   5.738   1.525   3.486 -0.2607  0.9010  2.6066
   40MOL   H191 8069   5.729   1.361   3.533  0.0897 -0.9093 -0.7764
   40MOL   C192 8070   5.883   1.400   3.388  0.6740  0.2029 -0.2304
   40MOL   C193 8071   5.810   1.315   3.282 -0.5109  0.1134 -0.3848
   40MOL   C194 8072   5.779   1.351   3.155 -0.7874  0.1184 -0.1326
   40MOL   C195 8073   5.689   1.274   3.058  0.4240  0.1899 -0.7976
   40MOL   H196 8074   5.920   1.495   3.349  0.0577  1.0662  1.2484
   40MOL   H197 8075   5.976   1.359   3.426  2.0345  2.0877 -1.4569
   40MOL   H198 8076   5.773   1.222   3.324 -2.8402  1.9998  1.9418
   40MOL   H199 8077   5.815   1.447   3.123 -0.0989 -0.5378 -1.3763
   40MOL   H200 8078   5.588   1.313   3.074 -0.1225 -0.5666 -2.2174
   40MOL   H201 8079   5.687   1.167   3.080  0.5982  0.2340 -0.5680
   40MOL   H202 8080   5.699   1.297   2.952 -0.1387 -0.1370 -0.9295
   41MOL     C1 8081   4.335   4.694   6.654 -0.6297  0.2356 -0.2655
   41MOL     C2 8082   4.209   4.760   6.600 -0.3176  0.1471  0.2293
   41MOL     C3 8083   4.204   4.884   6.545 -1.1423 -0.5788 -0.3814
   41MOL     C4 8084   4.086   4.951   6.472 -0.1121  0.5645  0.3758
   41MOL     H5 8085   4.329   4.636   6.746 -0.1928 -0.7633 -0.8576
   41MOL     H6 8086   4.423   4.757   6.661 -2.1810  2.2144  2.8345
   41MOL     H7 8087   4.119   4.702   6.589 -1.4311  1.8651  0.0391
   41MOL     H8 8088   4.291   4.949   6.545 -1.4110 -0.1925  1.3713
   41MOL     H9 8089   4.011   4.874   6.453  1.7479 -1.5994  1.6097
   41MOL    H10 8090   4.127   4.966   6.372  0.1237 -2.2631 -0.0093
   41MOL    H11 8091   4.347   4.619   6.576 -1.1608 -0.0793 -0.0536
   41MOL    C12 8092   4.039   5.078   6.532 -0.0389  0.7120 -0.0670
   41MOL    C13 8093   3.934   5.137   6.451 -0.4334 -0.8358  0.0852
   41MOL    C14 8094   3.914   5.271   6.435 -0.4487  0.8425  0.4080
   41MOL    C15 8095   3.821   5.335   6.336  0.5590 -0.7086  0.0755
   41MOL    H16 8096   4.025   5.053   6.638  3.6783 -1.7040 -0.0107
   41MOL    H17 8097   4.116   5.156   6.531 -0.4092  1.0675 -1.6386
   41MOL    H18 8098   3.867   5.075   6.392 -1.7357 -0.1209  0.7877
   41MOL    H19 8099   3.987   5.338   6.478  0.1671  0.2304  0.3312
   41MOL    H20 8100   3.770   5.267   6.268  1.9791 -1.8655  0.1424
   41MOL    H21 8101   3.885   5.402   6.278 -1.8953  2.3002  0.6850
   41MOL    C22 8102   3.712   5.422   6.402 -1.0592 -0.0429 -0.2725
   41MOL    C23 8103   3.610   5.477   6.302  0.4830 -0.7352 -0.1632
   41MOL    C24 8104   3.532   5.409   6.223  0.2940 -0.0964  0.8172
   41MOL    C25 8105   3.443   5.478   6.119  0.3466  0.5689  0.1880
   41MOL    H26 8106   3.649   5.350   6.454 -1.3934  0.5960  0.2052
   41MOL    H27 8107   3.752   5.487   6.480  0.3202 -1.1014 -0.0664
   41MOL    H28 8108   3.597   5.584   6.298  0.1504 -0.7740 -0.0508
   41MOL    H29 8109   3.541   5.301   6.221 -0.8176 -0.1830 -0.1786
   41MOL    H30 8110   3.484   5.460   6.019 -1.5018 -0.4985 -0.4058
   41MOL    H31 8111   3.465   5.584   6.129  4.1420 -0.1440  0.3382
   41MOL    C32 8112   3.299   5.445   6.123  0.2831 -0.4427  0.1560
   41MOL    C33 8113   3.228   5.503   6.244  0.7823 -0.2040  0.0850
   41MOL    C34 8114   3.094   5.525   6.251 -0.9451 -0.3669 -0.2234
   41MOL    C35 8115   3.027   5.587   6.374 -0.1623 -0.0341  0.4382
   41MOL    H36 8116   3.247   5.486   6.036  2.6332 -0.8482 -1.4887
   41MOL    H37 8117   3.273   5.339   6.120 -0.5167 -0.2139 -1.3704
   41MOL    H38 8118   3.294   5.522   6.328  1.5504  0.5376 -0.6876
   41MOL    H39 8119   3.022   5.487   6.180 -0.0543 -1.0657 -0.7679
   41MOL    H40 8120   2.946   5.655   6.349  0.3602  1.5625  2.9902
   41MOL    H41 8121   3.103   5.649   6.420  0.2813 -2.0475  2.4786
   41MOL    C42 8122   2.972   5.496   6.487  0.0262  0.1173  0.2250
   41MOL    C43 8123   2.915   5.577   6.602  0.3670  0.1033  0.5490
   41MOL    C44 8124   2.868   5.524   6.719 -0.2669  0.9118 -0.6128
   41MOL    C45 8125   2.793   5.597   6.824 -0.7047  0.3850 -0.0265
   41MOL    H46 8126   2.891   5.437   6.443  0.0582  0.2221  0.0214
   41MOL    H47 8127   3.044   5.428   6.533  1.3965 -0.0585 -2.0811
   41MOL    H48 8128   2.888   5.679   6.579  1.5162 -0.0549 -1.7016
   41MOL    H49 8129   2.877   5.419   6.743 -0.3790  1.3421  1.4374
   41MOL    H50 8130   2.824   5.701   6.821 -0.2696  0.2432 -0.6583
   41MOL    H51 8131   2.837   5.571   6.920  1.3120 -1.1074 -1.2907
   41MOL    C52 8132   2.645   5.580   6.803  0.1548 -0.0592 -0.1161
   41MOL    C53 8133   2.559   5.694   6.852  0.0544 -0.0578 -0.5905
   41MOL    C54 8134   2.465   5.681   6.942 -0.0570 -0.0419 -0.0770
   41MOL    C55 8135   2.371   5.791   6.980 -0.2730 -0.5767 -0.2639
   41MOL    H56 8136   2.628   5.567   6.696  0.7190  0.6566 -0.2962
   41MOL    H57 8137   2.611   5.492   6.857  0.2926  0.4919  0.8752
   41MOL    H58 8138   2.577   5.784   6.796 -1.2165 -0.3130 -1.4504
   41MOL    H59 8139   2.458   5.588   6.997 -2.6940  0.6185  0.7990
   41MOL    H60 8140   2.272   5.761   6.947  0.1271 -1.3375 -0.7847
   41MOL    H61 8141   2.399   5.880   6.924  1.9745  0.9717  3.1311
   41MOL    C62 8142   2.370   5.818   7.123 -0.2741  0.5893  0.2159
   41MOL    C63 8143   2.497   5.882   7.160 -0.5609  0.4411 -0.0785
   41MOL    C64 8144   2.585   5.837   7.254 -0.2638  0.2731  0.6067
   41MOL    C65 8145   2.713   5.908   7.297 -0.8980 -0.4704 -0.4255
   41MOL    H66 8146   2.293   5.886   7.158  0.2830  0.6469  1.3575
   41MOL    H67 8147   2.351   5.725   7.176 -1.2161  0.8231  0.2877
   41MOL    H68 8148   2.512   5.973   7.105  2.1397 -1.1211 -2.0631
   41MOL    H69 8149   2.579   5.737   7.296  3.4964  0.0383  0.7193
   41MOL    H70 8150   2.771   5.912   7.205  0.6473 -1.0346  0.5052
   41MOL    H71 8151   2.771   5.832   7.349 -1.7046  0.1403  1.4088
   41MOL    C72 8152   2.701   6.041   7.376 -0.0549  1.1174  0.5539
   41MOL    C73 8153   2.837   6.093   7.437 -0.4742 -0.7446  0.2783
   41MOL    C74 8154   2.919   6.194   7.391 -0.0708 -0.6430 -0.3849
   41MOL    C75 8155   3.052   6.240   7.454  0.3333 -0.0884  0.4732
   41MOL    H76 8156   2.655   6.120   7.317 -0.4729  0.0807 -0.5340
   41MOL    H77 8157   2.643   6.009   7.462 -3.0688 -2.5462 -2.6445
   41MOL    H78 8158   2.879   6.043   7.523 -2.5351  0.0372  1.7665
   41MOL    H79 8159   2.899   6.228   7.290  1.9969 -0.7566 -0.8469
   41MOL    H80 8160   3.069   6.180   7.544  0.7403 -0.7809 -0.0635
   41MOL    H81 8161   3.030   6.340   7.492  1.0072  0.2239  0.0416
   41MOL    C82 8162   3.171   6.242   7.353 -0.2591  0.7803  0.2248
   41MOL    C83 8163   3.200   6.104   7.307  0.0979 -0.2302  0.2770
   41MOL    C84 8164   3.235   6.076   7.181  0.3395  0.4263  0.6171
   41MOL    C85 8165   3.265   5.930   7.143  0.3839 -0.3376 -0.8363
   41MOL    H86 8166   3.143   6.307   7.269  0.3396 -0.7425 -1.1786
   41MOL    H87 8167   3.263   6.291   7.386 -0.5302  0.6824  1.1269
   41MOL    H88 8168   3.188   6.023   7.378  1.1467 -1.9203 -1.4323
   41MOL    H89 8169   3.256   6.152   7.107  2.7263  0.3871  1.2162
   41MOL    H90 8170   3.234   5.869   7.229  1.0942  0.1168 -0.2573
   41MOL    H91 8171   3.374   5.931   7.144  0.4264 -1.6385  1.0689
   41MOL    C92 8172   3.218   5.890   7.009  0.0491  0.6688 -0.3837
   41MOL    C93 8173   3.289   5.763   6.956  1.3536 -0.2719 -0.0664
   41MOL    C94 8174   3.277   5.695   6.841 -0.0853  0.3905  0.1831
   41MOL    C95 8175   3.364   5.576   6.802 -0.2827 -0.4809  0.4440
   41MOL    H96 8176   3.113   5.863   7.015  0.4636 -0.6257  1.5928
   41MOL    H97 8177   3.227   5.977   6.944 -0.0087 -0.0212 -1.3229
   41MOL    H98 8178   3.360   5.727   7.029 -0.4396 -0.7369  1.4930
   41MOL    H99 8179   3.221   5.735   6.757  1.7676  1.6022 -0.4884
   41MOL   H100 8180   3.402   5.525   6.890 -0.0710  0.4862  0.9182
   41MOL   H101 8181   3.449   5.619   6.749  0.2941 -1.5489  0.4932
   41MOL   C102 8182   3.276   5.476   6.722  0.2397 -0.1527 -0.0011
   41MOL   C103 8183   3.334   5.341   6.691  0.2813  0.4026 -0.2592
   41MOL   C104 8184   3.335   5.283   6.570 -0.8096  0.0052 -0.2404
   41MOL   C105 8185   3.390   5.145   6.533 -0.4819 -0.2554  0.1939
   41MOL   H106 8186   3.183   5.455   6.775  1.4016  2.3281  3.2307
   41MOL   H107 8187   3.253   5.518   6.625 -1.2926  0.4411  0.5938
   41MOL   H108 8188   3.378   5.289   6.775  0.6307 -0.8232 -1.1888
   41MOL   H109 8189   3.282   5.325   6.485 -0.8149 -1.0740 -0.7810
   41MOL   H110 8190   3.441   5.157   6.437 -0.2306  0.2295  0.3820
   41MOL   H111 8191   3.305   5.080   6.513 -2.2465  2.9691 -3.7906
   41MOL   C112 8192   3.487   5.072   6.631  0.2999 -0.4172 -0.2141
   41MOL   C113 8193   3.496   4.922   6.607 -0.3630 -0.1682 -0.5784
   41MOL   C114 8194   3.608   4.851   6.616 -0.4510  0.4496 -0.2465
   41MOL   C115 8195   3.614   4.704   6.586  0.8996  0.3390  0.2926
   41MOL   H116 8196   3.590   5.108   6.623 -0.4448  1.9272  0.4838
   41MOL   H117 8197   3.460   5.090   6.735 -0.6587 -2.0442 -0.1715
   41MOL   H118 8198   3.398   4.879   6.596 -0.5189 -0.0066  0.2028
   41MOL   H119 8199   3.705   4.899   6.625  0.3518 -1.1630 -0.2431
   41MOL   H120 8200   3.509   4.675   6.576  0.3326  2.2393  0.4621
   41MOL   H121 8201   3.643   4.647   6.674  1.7491 -0.5246 -0.5415
   41MOL   C122 8202   3.699   4.665   6.466 -0.4369  0.1590 -0.5190
   41MOL   C123 8203   3.694   4.516   6.443  0.5278 -1.0943  0.4451
   41MOL   C124 8204   3.798   4.433   6.463 -0.2915  0.5747  0.6166
   41MOL   C125 8205   3.783   4.285   6.445  0.6037 -0.5489 -0.3662
   41MOL   H126 8206   3.670   4.714   6.373 -0.2299  0.8138 -0.2426
   41MOL   H127 8207   3.801   4.699   6.485 -1.0079 -0.2005  3.5863
   41MOL   H128 8208   3.598   4.481   6.407  1.2590 -0.6021 -2.1381
   41MOL   H129 8209   3.892   4.465   6.504  2.2564 -2.3513 -2.6391
   41MOL   H130 8210   3.876   4.246   6.403  0.5494  0.7343 -1.7111
   41MOL   H131 8211   3.710   4.279   6.364 -1.6758 -0.7966  1.6694
   41MOL   C132 8212   3.731   4.222   6.573  0.0863  0.4638 -0.2067
   41MOL   C133 8213   3.734   4.072   6.576  0.7903  0.7142 -0.3368
   41MOL   C134 8214   3.813   4.001   6.665  0.5491  0.6173 -0.4065
   41MOL   C135 8215   3.814   3.851   6.663  0.8742 -0.8217 -0.5898
   41MOL   H136 8216   3.789   4.259   6.658 -0.5186 -0.5326  0.6515
   41MOL   H137 8217   3.632   4.247   6.611 -0.0177 -0.3118  0.0452
   41MOL   H138 8218   3.683   4.020   6.496  1.5359  1.1880 -1.1347
   41MOL   H139 8219   3.877   4.044   6.741  1.3977 -1.0028 -0.1826
   41MOL   H140 8220   3.723   3.821   6.613 -0.9126  0.1551  1.9439
   41MOL   H141 8221   3.823   3.819   6.767 -1.9474  0.1214 -0.0229
   41MOL   C142 8222   3.922   3.789   6.583  0.5539 -0.3502  0.0325
   41MOL   C143 8223   3.915   3.638   6.597 -0.5892 -1.0229 -0.2820
   41MOL   C144 8224   3.927   3.544   6.501 -0.2169  0.2440  0.3251
   41MOL   C145 8225   3.915   3.396   6.531  0.4545 -0.2365  0.0103
   41MOL   H146 8226   3.914   3.823   6.479 -0.6100 -2.8309 -0.7321
   41MOL   H147 8227   4.017   3.820   6.626  0.0335 -1.5405  2.1460
   41MOL   H148 8228   3.897   3.610   6.700  0.1822 -1.9747 -0.3991
   41MOL   H149 8229   3.950   3.578   6.401  1.9131 -0.9111  0.4010
   41MOL   H150 8230   3.825   3.379   6.589  0.5409 -0.3200  0.1206
   41MOL   H151 8231   3.997   3.358   6.593  2.2550  2.6372 -0.4904
   41MOL   C152 8232   3.916   3.318   6.401  1.0107 -0.2795  0.1560
   41MOL   C153 8233   3.944   3.173   6.426 -0.7430  0.1934  0.0161
   41MOL   C154 8234   4.050   3.107   6.377 -0.3710 -0.1118 -0.1613
   41MOL   C155 8235   4.097   2.969   6.422 -0.1310  0.3908  0.3031
   41MOL   H156 8236   3.829   3.343   6.340  0.8776  0.7057  0.7389
   41MOL   H157 8237   4.009   3.343   6.348  0.8602  0.5264  0.2685
   41MOL   H158 8238   3.882   3.131   6.504 -0.9248 -0.9892 -0.7705
   41MOL   H159 8239   4.122   3.158   6.314 -1.0030 -0.1907 -0.9587
   41MOL   H160 8240   4.192   2.985   6.473  2.1034 -0.5552 -3.4009
   41MOL   H161 8241   4.120   2.904   6.338 -0.2076  0.0978  0.5056
   41MOL   C162 8242   3.994   2.895   6.506  0.0063 -0.1434  0.1621
   41MOL   C163 8243   4.039   2.761   6.545  0.3326  0.2501 -0.1571
   41MOL   C164 8244   3.975   2.644   6.523  0.1800 -1.0067 -1.1493
   41MOL   C165 8245   4.025   2.514   6.575 -0.0944  0.2853  0.1113
   41MOL   H166 8246   3.975   2.951   6.598  0.3495 -0.6353  0.5332
   41MOL   H167 8247   3.898   2.889   6.456 -0.0269 -0.2042  0.2331
   41MOL   H168 8248   4.122   2.763   6.615 -0.6503  3.7518  0.9629
   41MOL   H169 8249   3.883   2.633   6.468  0.6475 -3.1443 -1.5566
   41MOL   H170 8250   3.938   2.455   6.605  0.1670 -0.2566 -0.1949
   41MOL   H171 8251   4.073   2.528   6.672 -0.8212 -1.2854  0.7224
   41MOL   C172 8252   4.111   2.435   6.467  0.5989  0.0774  0.3078
   41MOL   C173 8253   4.146   2.295   6.506 -0.1581  1.2247  0.7437
   41MOL   C174 8254   4.275   2.251   6.528  0.9176  0.7149  0.0659
   41MOL   C175 8255   4.314   2.108   6.561 -0.8526 -0.4645  0.1123
   41MOL   H176 8256   4.072   2.438   6.365 -0.4520  0.0101  0.7039
   41MOL   H177 8257   4.205   2.490   6.473  2.3396 -2.9873  2.4739
   41MOL   H178 8258   4.069   2.222   6.528  0.3346  0.7968  1.0462
   41MOL   H179 8259   4.357   2.322   6.529  0.0250  1.7503  0.1952
   41MOL   H180 8260   4.358   2.095   6.660  0.9462  0.5296 -0.5176
   41MOL   H181 8261   4.380   2.077   6.479 -1.7687  2.4792 -1.8127
   41MOL   C182 8262   4.188   2.011   6.560 -0.0199 -0.0162 -0.3707
   41MOL   C183 8263   4.223   1.863   6.573 -0.1631  0.2636 -0.1672
   41MOL   C184 8264   4.156   1.772   6.500  0.1787  0.1471  0.0414
   41MOL   C185 8265   4.163   1.624   6.526  0.6421 -0.7691 -0.5522
   41MOL   H186 8266   4.121   2.040   6.641 -0.8820 -0.8344 -0.7754
   41MOL   H187 8267   4.126   2.020   6.470 -1.7101  1.7590  0.9095
   41MOL   H188 8268   4.298   1.830   6.643 -1.3114 -1.4204  0.3041
   41MOL   H189 8269   4.071   1.798   6.438 -1.2304  1.6528  2.4640
   41MOL   H190 8270   4.200   1.615   6.628  1.4266  2.9183 -0.4371
   41MOL   H191 8271   4.241   1.588   6.458  1.5382 -1.7424  0.9688
   41MOL   C192 8272   4.026   1.562   6.493 -0.0591 -0.1815  0.1648
   41MOL   C193 8273   4.010   1.415   6.522 -0.1365  0.0526 -0.5589
   41MOL   C194 8274   3.944   1.328   6.452 -0.0329 -0.1215  0.3131
   41MOL   C195 8275   3.942   1.181   6.473  0.5661  0.2218  0.3452
   41MOL   H196 8276   3.946   1.602   6.555 -0.1588  0.3936 -0.3319
   41MOL   H197 8277   3.993   1.586   6.392 -1.3703 -1.3072  0.3116
   41MOL   H198 8278   4.063   1.372   6.606 -1.0909  0.9718  0.5312
   41MOL   H199 8279   3.902   1.361   6.358 -1.0749 -1.9414  0.1276
   41MOL   H200 8280   3.988   1.157   6.569  3.2961 -1.1697 -1.2583
   41MOL   H201 8281   3.978   1.124   6.388  2.1534 -1.0766  1.8487
   41MOL   H202 8282   3.833   1.172   6.472  0.7115 -1.7083 -1.5896
   42MOL     C1 8283   4.283   4.757   5.577 -0.9692 -0.6354  0.4010
   42MOL     C2 8284   4.313   4.669   5.458 -0.1453 -0.0598 -0.1328
   42MOL     C3 8285   4.413   4.578   5.446 -0.3052 -0.0659  0.1229
   42MOL     C4 8286   4.448   4.498   5.319  0.4504  0.2304 -0.3962
   42MOL     H5 8287   4.331   4.853   5.563  0.1756 -1.7058 -3.5658
   42MOL     H6 8288   4.319   4.703   5.665 -2.7344 -2.3846  0.0910
   42MOL     H7 8289   4.251   4.676   5.370  1.7267 -0.1414 -1.5024
   42MOL     H8 8290   4.477   4.573   5.532 -1.8702  0.4677  1.3474
   42MOL     H9 8291   4.503   4.561   5.249  0.2079  0.9350  0.0381
   42MOL    H10 8292   4.355   4.491   5.262 -0.7453  1.4159  1.3451
   42MOL    H11 8293   4.175   4.759   5.595 -1.1950  1.0264 -1.0190
   42MOL    C12 8294   4.502   4.357   5.339 -0.6718  0.6414 -0.8465
   42MOL    C13 8295   4.628   4.355   5.424 -0.0047 -0.5994 -0.4430
   42MOL    C14 8296   4.749   4.379   5.367 -0.3938 -0.4654  0.1550
   42MOL    C15 8297   4.881   4.395   5.444 -0.7766  0.5828 -0.5075
   42MOL    H16 8298   4.436   4.293   5.397  3.0272 -2.6482  0.0112
   42MOL    H17 8299   4.512   4.310   5.241  0.3762 -2.1105  0.5116
   42MOL    H18 8300   4.615   4.349   5.531  1.5761 -0.7830 -0.2386
   42MOL    H19 8301   4.753   4.384   5.259 -0.8145 -2.0406  0.0515
   42MOL    H20 8302   4.866   4.365   5.547  4.0876  0.1979  0.2020
   42MOL    H21 8303   4.905   4.501   5.446  1.5739  0.0571 -0.1661
   42MOL    C22 8304   4.988   4.305   5.374  0.0837  0.2248  0.2583
   42MOL    C23 8305   5.112   4.289   5.452 -0.7355  0.4915  0.8976
   42MOL    C24 8306   5.240   4.324   5.413  1.1979 -0.3724 -0.3136
   42MOL    C25 8307   5.368   4.272   5.479 -0.0151 -0.1365 -0.3992
   42MOL    H26 8308   4.940   4.208   5.361 -1.5931  1.0951 -0.2552
   42MOL    H27 8309   5.013   4.337   5.272  0.2544  0.3697  0.3456
   42MOL    H28 8310   5.102   4.223   5.537  0.8644 -1.4503 -0.3782
   42MOL    H29 8311   5.252   4.392   5.330  0.2556  1.6383  1.1866
   42MOL    H30 8312   5.333   4.237   5.576  1.8590 -0.8398  0.0519
   42MOL    H31 8313   5.435   4.354   5.507  0.4007 -0.2504 -1.0457
   42MOL    C32 8314   5.452   4.160   5.408 -0.4658 -0.0829  0.7519
   42MOL    C33 8315   5.380   4.031   5.398  0.3085  0.4134 -0.6396
   42MOL    C34 8316   5.423   3.907   5.413 -0.0013 -0.0549 -0.5031
   42MOL    C35 8317   5.336   3.781   5.414  0.2762  0.4449  0.4104
   42MOL    H36 8318   5.474   4.183   5.304  3.3013  0.7727  1.6680
   42MOL    H37 8319   5.549   4.144   5.455 -1.5827 -3.7418  2.0179
   42MOL    H38 8320   5.274   4.036   5.381  0.6374 -0.7277 -3.3934
   42MOL    H39 8321   5.528   3.889   5.428 -0.1360  0.8795  1.7727
   42MOL    H40 8322   5.231   3.800   5.390  0.5961  0.1482 -1.3036
   42MOL    H41 8323   5.331   3.748   5.518 -2.8939  1.6175  0.6906
   42MOL    C42 8324   5.390   3.660   5.324  0.3009 -0.3734 -0.4417
   42MOL    C43 8325   5.394   3.676   5.166  0.3669  0.0281 -0.1394
   42MOL    C44 8326   5.514   3.669   5.099  0.2995  0.6856  0.4030
   42MOL    C45 8327   5.526   3.662   4.949 -0.9004 -0.1755 -0.5959
   42MOL    H46 8328   5.489   3.636   5.364  0.5168  0.2594 -0.5921
   42MOL    H47 8329   5.323   3.575   5.334 -0.4706  0.0332 -1.9453
   42MOL    H48 8330   5.293   3.681   5.129  0.4774  1.5668 -0.2506
   42MOL    H49 8331   5.602   3.658   5.162  0.6257 -0.2112 -0.1974
   42MOL    H50 8332   5.432   3.636   4.900  1.0695 -2.9308 -3.0877
   42MOL    H51 8333   5.582   3.575   4.916  1.7426  1.2708 -0.1075
   42MOL    C52 8334   5.584   3.798   4.898  0.3802 -0.2200 -0.0070
   42MOL    C53 8335   5.573   3.799   4.746  1.1664  0.0119 -0.0059
   42MOL    C54 8336   5.661   3.841   4.657 -0.4143  0.4184 -0.2625
   42MOL    C55 8337   5.653   3.836   4.496 -0.6132 -0.2892  0.7193
   42MOL    H56 8338   5.525   3.878   4.943  1.5324 -0.3010  1.6486
   42MOL    H57 8339   5.687   3.804   4.932 -0.6524 -1.8253  3.5330
   42MOL    H58 8340   5.479   3.767   4.703  0.8530 -2.3324  2.2871
   42MOL    H59 8341   5.749   3.888   4.700 -1.7070  2.0469  0.6738
   42MOL    H60 8342   5.590   3.750   4.471 -0.3320 -0.2763 -0.0481
   42MOL    H61 8343   5.753   3.812   4.460 -0.8210  0.5746 -0.4526
   42MOL    C62 8344   5.617   3.976   4.440 -0.3019  0.9848 -0.0851
   42MOL    C63 8345   5.470   4.007   4.452  0.1633  0.5975  0.3236
   42MOL    C64 8346   5.412   4.081   4.545  0.1672  0.1087 -0.4991
   42MOL    C65 8347   5.262   4.100   4.541  0.2771  1.1657  0.1755
   42MOL    H66 8348   5.666   4.057   4.494  0.0646  1.0553 -0.5147
   42MOL    H67 8349   5.663   3.987   4.342  0.1788  1.3234  0.1743
   42MOL    H68 8350   5.412   3.968   4.369 -0.6329 -0.2389  1.2599
   42MOL    H69 8351   5.469   4.122   4.627  0.6768  2.5013 -2.0091
   42MOL    H70 8352   5.215   4.087   4.638 -0.6403 -4.0206 -0.8088
   42MOL    H71 8353   5.214   4.029   4.474  0.7229  0.5930  0.4596
   42MOL    C72 8354   5.221   4.242   4.486  1.1332 -0.0460 -0.1081
   42MOL    C73 8355   5.074   4.270   4.492  0.2376  0.2577 -0.2255
   42MOL    C74 8356   4.987   4.309   4.396  0.0267 -0.3107 -0.0118
   42MOL    C75 8357   4.843   4.332   4.413  0.0753  0.0959  0.0803
   42MOL    H76 8358   5.269   4.325   4.539 -0.7341  0.0442  1.4759
   42MOL    H77 8359   5.241   4.263   4.381 -1.6888  2.1502 -0.2754
   42MOL    H78 8360   5.033   4.247   4.590  1.6536 -1.2418  0.0378
   42MOL    H79 8361   5.018   4.337   4.296  1.1012 -2.0618 -0.1892
   42MOL    H80 8362   4.812   4.287   4.508 -0.0063 -0.0295 -0.0066
   42MOL    H81 8363   4.796   4.261   4.345 -0.3654 -0.4735  0.9596
   42MOL    C82 8364   4.794   4.472   4.401 -0.1194  0.2012  0.0056
   42MOL    C83 8365   4.663   4.499   4.469 -0.3188 -0.2598 -0.0510
   42MOL    C84 8366   4.586   4.611   4.456  0.1375  0.6062  0.5307
   42MOL    C85 8367   4.466   4.644   4.546  0.2937  0.6655 -0.3868
   42MOL    H86 8368   4.861   4.531   4.464 -0.7152 -1.7244  2.5295
   42MOL    H87 8369   4.790   4.498   4.296  0.3398 -2.6719 -0.7612
   42MOL    H88 8370   4.640   4.430   4.549 -2.2272  1.0951  0.5805
   42MOL    H89 8371   4.611   4.684   4.380  0.0917 -0.4657 -0.5277
   42MOL    H90 8372   4.465   4.750   4.572  1.0601  0.4859  0.3983
   42MOL    H91 8373   4.458   4.567   4.623 -1.4909  0.8570 -0.3555
   42MOL    C92 8374   4.334   4.607   4.474 -0.1521 -0.3905  0.6295
   42MOL    C93 8375   4.212   4.680   4.523 -0.1758 -0.6314 -0.5037
   42MOL    C94 8376   4.121   4.629   4.612  0.0862 -0.6705 -0.6739
   42MOL    C95 8377   4.009   4.711   4.660  0.3627 -0.3203 -0.2456
   42MOL    H96 8378   4.342   4.620   4.366 -0.8174 -0.9428  0.5104
   42MOL    H97 8379   4.311   4.501   4.470  0.6661 -0.5993  1.4728
   42MOL    H98 8380   4.201   4.785   4.502  0.1160 -0.0840  1.9098
   42MOL    H99 8381   4.139   4.533   4.657  3.1965  0.7412  1.2230
   42MOL   H100 8382   3.912   4.671   4.629  0.7244 -0.9838 -0.5112
   42MOL   H101 8383   4.020   4.813   4.623  1.6762 -0.1012  0.7369
   42MOL   C102 8384   4.011   4.728   4.813 -0.7246 -0.4593 -0.4009
   42MOL   C103 8385   3.986   4.594   4.880 -1.1195 -0.0366  0.5998
   42MOL   C104 8386   4.031   4.566   5.001 -0.1471 -0.5096 -0.0805
   42MOL   C105 8387   3.996   4.442   5.072 -0.4363  0.1991  0.3146
   42MOL   H106 8388   4.097   4.783   4.850  2.2886 -4.3024 -1.3096
   42MOL   H107 8389   3.930   4.792   4.848  0.0007  0.2383  0.0111
   42MOL   H108 8390   3.926   4.530   4.817 -1.9869  1.1354  0.2144
   42MOL   H109 8391   4.087   4.638   5.059 -0.1699 -1.0862  0.6634
   42MOL   H110 8392   4.096   4.413   5.105 -0.2751 -0.6511 -0.8943
   42MOL   H111 8393   3.957   4.363   5.009  0.1271  1.7449 -2.0307
   42MOL   C112 8394   3.904   4.456   5.197  0.1188 -0.3462  0.2524
   42MOL   C113 8395   3.897   4.333   5.284 -0.3856  0.4228  0.2372
   42MOL   C114 8396   3.921   4.340   5.412 -0.4663 -0.2419  0.3402
   42MOL   C115 8397   3.895   4.220   5.505  0.0820 -0.4491 -0.0254
   42MOL   H116 8398   3.939   4.539   5.257  0.5114 -0.4236  0.1305
   42MOL   H117 8399   3.800   4.475   5.169  0.5455  1.3220 -0.2309
   42MOL   H118 8400   3.861   4.244   5.234 -0.5691  1.8590 -2.2493
   42MOL   H119 8401   3.947   4.439   5.447 -0.6354 -0.6570  1.6642
   42MOL   H120 8402   3.879   4.130   5.446 -5.0242  0.1358  0.2614
   42MOL   H121 8403   3.804   4.233   5.563 -1.0670 -1.6604 -1.5570
   42MOL   C122 8404   4.014   4.192   5.600  0.0802 -0.3212  0.3803
   42MOL   C123 8405   3.974   4.106   5.717 -0.2370 -0.0242  0.5403
   42MOL   C124 8406   3.985   4.140   5.847  0.5257  0.3365 -0.1017
   42MOL   C125 8407   3.980   4.052   5.972  1.0510  0.0174 -0.0907
   42MOL   H126 8408   4.082   4.139   5.533  2.6064  0.9167  1.9067
   42MOL   H127 8409   4.072   4.276   5.636 -2.3065  0.7884  1.7996
   42MOL   H128 8410   3.945   4.007   5.685 -1.1154  0.2071  0.5988
   42MOL   H129 8411   4.017   4.239   5.875 -0.2863  0.9984 -1.4519
   42MOL   H130 8412   4.077   4.062   6.021  1.5452  1.9251 -1.4231
   42MOL   H131 8413   3.975   3.950   5.932 -3.6781 -0.0076  0.2498
   42MOL   C132 8414   3.865   4.063   6.077 -0.0122 -0.8227  0.4526
   42MOL   C133 8415   3.853   3.953   6.178 -0.3392  0.6042 -0.1393
   42MOL   C134 8416   3.749   3.870   6.168  0.0963  0.4335  0.5824
   42MOL   C135 8417   3.720   3.745   6.262  0.3163  0.0312  0.8857
   42MOL   H136 8418   3.888   4.151   6.138 -1.8093  0.0286 -0.0666
   42MOL   H137 8419   3.771   4.075   6.024  0.9090 -0.2170 -1.0793
   42MOL   H138 8420   3.924   3.939   6.258  0.9512 -1.1854 -1.5301
   42MOL   H139 8421   3.680   3.880   6.085  1.5452 -1.3645 -0.9092
   42MOL   H140 8422   3.795   3.741   6.341  0.5073  1.5881  0.7880
   42MOL   H141 8423   3.739   3.653   6.205  0.7875  0.5546  0.1826
   42MOL   C142 8424   3.581   3.759   6.332  0.7341  0.2491  0.0646
   42MOL   C143 8425   3.545   3.652   6.436 -0.2301  0.1557 -0.8059
   42MOL   C144 8426   3.428   3.587   6.447  0.1033 -0.3863  0.1871
   42MOL   C145 8427   3.400   3.486   6.557 -0.6299  0.6003 -0.5974
   42MOL   H146 8428   3.585   3.856   6.381  0.1239 -0.1915  1.0051
   42MOL   H147 8429   3.510   3.765   6.249  2.7821 -0.4854 -1.8046
   42MOL   H148 8430   3.623   3.641   6.510 -1.3883 -1.2399  0.2331
   42MOL   H149 8431   3.343   3.616   6.388  1.0723  3.4004  0.4689
   42MOL   H150 8432   3.486   3.464   6.620 -2.3988 -1.4546  1.1645
   42MOL   H151 8433   3.396   3.393   6.499 -0.9842  0.1993  0.0704
   42MOL   C152 8434   3.281   3.527   6.629 -0.3226  0.0668  0.4972
   42MOL   C153 8435   3.220   3.413   6.708 -0.7362  0.6499  0.0075
   42MOL   C154 8436   3.263   3.381   6.833 -0.0175 -0.8202  0.0500
   42MOL   C155 8437   3.214   3.284   6.928  0.5699  0.3789  0.0222
   42MOL   H156 8438   3.293   3.615   6.692  2.0953 -0.0487  0.2475
   42MOL   H157 8439   3.215   3.563   6.550 -1.4121 -0.6956  1.0562
   42MOL   H158 8440   3.136   3.364   6.660 -0.1344 -0.8400  0.4309
   42MOL   H159 8441   3.344   3.439   6.874 -0.9991  2.6148 -2.5962
   42MOL   H160 8442   3.289   3.218   6.973  1.0350  0.4087 -0.7098
   42MOL   H161 8443   3.142   3.221   6.874  0.1246 -0.5467  1.6470
   42MOL   C162 8444   3.155   3.349   7.048  0.1981 -0.4292  0.1253
   42MOL   C163 8445   3.120   3.249   7.156 -0.5359 -0.2614  0.9570
   42MOL   C164 8446   2.998   3.208   7.185 -0.2344 -0.1503  0.4713
   42MOL   C165 8447   2.949   3.102   7.289 -0.0327  0.0878  0.7913
   42MOL   H166 8448   3.226   3.412   7.102  0.2249  0.0633 -0.4707
   42MOL   H167 8449   3.068   3.407   7.015  0.4392 -0.8311 -1.2497
   42MOL   H168 8450   3.212   3.204   7.189 -0.7959 -1.6737 -0.1815
   42MOL   H169 8451   2.920   3.258   7.129 -0.8673 -2.7011 -1.0279
   42MOL   H170 8452   2.875   3.045   7.233  2.0536 -2.1119  0.2154
   42MOL   H171 8453   2.901   3.155   7.371  0.4753  1.4031  0.2429
   42MOL   C172 8454   3.055   3.006   7.346 -0.0814  0.1155  0.2346
   42MOL   C173 8455   2.994   2.903   7.438 -0.5497 -0.1993  0.2440
   42MOL   C174 8456   2.974   2.771   7.408  0.5309 -0.4507 -0.4769
   42MOL   C175 8457   2.924   2.666   7.502  0.1143 -0.6428 -0.2587
   42MOL   H176 8458   3.095   2.952   7.260 -2.1635  2.5962 -2.4095
   42MOL   H177 8459   3.128   3.073   7.392  0.7149 -2.5139  2.9614
   42MOL   H178 8460   2.968   2.941   7.536 -2.4114  0.4033 -0.4691
   42MOL   H179 8461   3.014   2.726   7.318  1.4980  0.0237 -0.2973
   42MOL   H180 8462   2.930   2.567   7.457 -2.1353 -1.7218  1.7210
   42MOL   H181 8463   2.821   2.687   7.530 -0.7597 -1.3468 -2.7589
   42MOL   C182 8464   3.007   2.674   7.631 -0.2885 -0.3732 -0.5523
   42MOL   C183 8465   2.949   2.598   7.749 -0.2392 -0.3812  0.2639
   42MOL   C184 8466   2.951   2.467   7.752 -0.2184 -0.8721 -0.0488
   42MOL   C185 8467   2.901   2.378   7.858 -0.1768  0.2194  0.6152
   42MOL   H186 8468   3.113   2.650   7.619  0.2148  1.5821 -0.0900
   42MOL   H187 8469   3.006   2.774   7.675 -1.4112 -0.1574 -1.0518
   42MOL   H188 8470   2.905   2.653   7.831 -1.8295  0.8473 -1.3681
   42MOL   H189 8471   2.984   2.408   7.668 -0.4269  0.5856 -1.1793
   42MOL   H190 8472   2.867   2.430   7.947 -1.9466  0.2976 -0.0942
   42MOL   H191 8473   2.994   2.330   7.890  0.8322  0.3274 -1.9801
   42MOL   C192 8474   2.785   2.284   7.812  0.0214  0.1329  0.3992
   42MOL   C193 8475   2.717   2.205   7.921  0.1980  0.0682  0.7535
   42MOL   C194 8476   2.727   2.075   7.946 -0.2907  0.3778 -0.6165
   42MOL   C195 8477   2.628   2.016   0.071  0.1142  0.8634  0.3877
   42MOL   H196 8478   2.707   2.348   7.771 -1.7037 -1.9946  0.2763
   42MOL   H197 8479   2.823   2.223   7.731  1.0649  2.2124 -0.7330
   42MOL   H198 8480   2.659   2.274   0.004  1.7660  0.9690  1.2817
   42MOL   H199 8481   2.794   2.014   7.888 -2.2551 -1.9923 -0.4694
   42MOL   H200 8482   2.569   1.932   0.036 -0.3534  1.3004  0.1229
   42MOL   H201 8483   2.549   2.087   0.095 -0.8687 -0.3639  0.8374
   42MOL   H202 8484   2.680   1.985   0.161 -0.1128  0.7310  0.4737
   43MOL     C1 8485   6.504   5.094   0.570  0.1100 -0.1674  0.5580
   43MOL     C2 8486   6.586   5.207   0.514 -0.0849  0.0508 -0.9213
   43MOL     C3 8487   6.623   5.314   0.593  0.0127  0.5771 -0.8013
   43MOL     C4 8488   6.715   5.424   0.544 -0.5141 -0.2237 -0.4337
   43MOL     H5 8489   6.495   5.099   0.678 -0.6197 -2.2665  0.6062
   43MOL     H6 8490   6.538   4.998   0.531 -0.8681  0.6092 -2.3913
   43MOL     H7 8491   6.607   5.195   0.409  1.4285 -0.0136 -0.6301
   43MOL     H8 8492   6.586   5.311   0.695 -1.1438  1.0378 -1.2104
   43MOL     H9 8493   6.773   5.371   0.468 -1.2390 -0.2318 -0.9951
   43MOL    H10 8494   6.777   5.458   0.626  2.8315 -0.8162 -2.6024
   43MOL    H11 8495   6.404   5.112   0.531  0.9367 -3.2626 -3.2799
   43MOL    C12 8496   6.634   5.537   0.477 -0.0094 -0.0700  0.7879
   43MOL    C13 8497   6.560   5.632   0.574 -0.4222 -0.2927 -0.4987
   43MOL    C14 8498   6.429   5.651   0.561 -0.3003 -0.0069  0.5502
   43MOL    C15 8499   6.350   5.728   0.663 -0.4265  0.3244 -0.0536
   43MOL    H16 8500   6.702   5.595   0.415 -1.2135  1.6151  1.0170
   43MOL    H17 8501   6.557   5.494   0.412  0.1964 -1.3086  1.3420
   43MOL    H18 8502   6.614   5.685   0.652 -4.3198 -0.5484  2.5496
   43MOL    H19 8503   6.367   5.615   0.480 -1.8220  1.0490  1.2217
   43MOL    H20 8504   6.426   5.775   0.725  0.6082 -0.7497 -0.4992
   43MOL    H21 8505   6.290   5.656   0.718  0.0502  0.0635  0.1276
   43MOL    C22 8506   6.260   5.839   0.614  0.2239  0.2155 -0.1869
   43MOL    C23 8507   6.180   5.907   0.726 -0.6977 -0.2325 -0.1152
   43MOL    C24 8508   6.060   5.865   0.768  0.5337  0.2078 -0.4268
   43MOL    C25 8509   5.980   5.916   0.881 -0.2201 -0.6825 -0.1031
   43MOL    H26 8510   6.319   5.916   0.563 -1.2124  0.8689 -0.8744
   43MOL    H27 8511   6.195   5.798   0.538  3.0583 -1.9198 -1.5561
   43MOL    H28 8512   6.236   5.989   0.768 -0.3507  0.5197 -2.0317
   43MOL    H29 8513   6.019   5.780   0.715 -0.5068  1.6099 -1.9159
   43MOL    H30 8514   5.895   5.965   0.834  2.1354  0.6488 -3.1494
   43MOL    H31 8515   6.037   5.991   0.937 -0.5116 -2.0247  2.0557
   43MOL    C32 8516   5.934   5.810   0.974 -1.1763 -0.8229  1.0689
   43MOL    C33 8517   6.055   5.754   1.046  0.2090  0.0684  0.4235
   43MOL    C34 8518   6.080   5.751   1.177 -0.4496  0.4146  0.2417
   43MOL    C35 8519   6.205   5.695   1.249  0.3444  0.1568 -0.0666
   43MOL    H36 8520   5.862   5.855   1.042 -1.0997 -1.2622  1.4472
   43MOL    H37 8521   5.886   5.735   0.911 -2.7377  2.1310 -1.4182
   43MOL    H38 8522   6.132   5.728   0.976 -0.6157 -1.3951  0.0397
   43MOL    H39 8523   6.009   5.800   1.242  0.2603  0.6628  0.8341
   43MOL    H40 8524   6.269   5.656   1.170  0.5967  1.0044 -0.2900
   43MOL    H41 8525   6.184   5.604   1.305 -1.3685  0.5350 -0.0670
   43MOL    C42 8526   6.293   5.806   1.320 -0.2562  0.0337 -0.1640
   43MOL    C43 8527   6.332   5.921   1.223 -0.2311 -0.4300 -0.2552
   43MOL    C44 8528   6.447   5.932   1.154  0.2400 -0.5490 -0.7899
   43MOL    C45 8529   6.453   6.049   1.049  1.2997 -0.0588  0.6560
   43MOL    H46 8530   6.229   5.835   1.403  1.6040 -2.8022  2.3654
   43MOL    H47 8531   6.385   5.763   1.360 -0.1159  0.8586  0.4080
   43MOL    H48 8532   6.252   5.993   1.211  2.2345  2.2444 -1.2117
   43MOL    H49 8533   6.529   5.862   1.167 -0.2547 -0.9520  0.2138
   43MOL    H50 8534   6.526   6.127   1.070  2.8108 -1.7061  1.6103
   43MOL    H51 8535   6.353   6.093   1.055  1.7953  1.0167  1.2025
   43MOL    C52 8536   6.472   6.003   0.899  0.5382 -0.1113 -0.3821
   43MOL    C53 8537   6.624   5.977   0.870  0.3464 -0.5974 -0.1855
   43MOL    C54 8538   6.684   5.860   0.871 -0.5736  0.1469  0.3813
   43MOL    C55 8539   6.836   5.844   0.853  0.9015 -0.2355 -0.9452
   43MOL    H56 8540   6.425   5.907   0.878  2.7446 -1.4257  0.5017
   43MOL    H57 8541   6.441   6.083   0.832 -2.9334 -1.9436 -1.0809
   43MOL    H58 8542   6.688   6.062   0.853  0.5115 -0.4060  1.2960
   43MOL    H59 8543   6.620   5.774   0.881  0.3667 -0.7616 -1.0659
   43MOL    H60 8544   6.890   5.801   0.938  1.3840  2.7109  0.2889
   43MOL    H61 8545   6.876   5.943   0.835 -0.8717  0.6056 -0.3132
   43MOL    C62 8546   6.875   5.757   0.736  0.2619 -0.4578  0.4667
   43MOL    C63 8547   7.024   5.765   0.711 -0.3651 -0.2989 -0.1043
   43MOL    C64 8548   7.078   5.782   0.591  0.4067  0.3600 -0.5680
   43MOL    C65 8549   7.226   5.790   0.583  0.3424  0.8123  0.0960
   43MOL    H66 8550   6.845   5.655   0.758  0.7588 -1.0235 -1.3783
   43MOL    H67 8551   6.813   5.778   0.649  1.1518 -0.1756 -0.1073
   43MOL    H68 8552   7.079   5.740   0.800 -0.6219 -0.6268 -0.0379
   43MOL    H69 8553   7.026   5.785   0.497  1.3826  1.0745 -1.0978
   43MOL    H70 8554   7.285   5.728   0.650  0.0525 -0.6315 -0.9592
   43MOL    H71 8555   7.250   5.894   0.605 -2.4495  1.4067  0.6086
   43MOL    C72 8556   7.279   5.742   0.448 -0.4414 -0.2170  0.1916
   43MOL    C73 8557   7.435   5.749   0.431 -0.0667 -0.2168  0.1015
   43MOL    C74 8558   7.518   5.639   0.430 -0.3886  0.2407  0.8125
   43MOL    C75 8559   7.673   5.631   0.403  0.2137  0.1174  0.0315
   43MOL    H76 8560   7.253   5.637   0.434  2.3551 -0.7181 -1.8139
   43MOL    H77 8561   7.231   5.803   0.372 -0.3517 -0.0934  0.2358
   43MOL    H78 8562   7.481   5.847   0.422 -1.8093  0.5904 -0.2260
   43MOL    H79 8563   7.466   5.545   0.435 -2.1139  1.1855  1.1118
   43MOL    H80 8564   7.683   5.550   0.331 -2.3851 -1.3223  1.2149
   43MOL    H81 8565   7.713   5.606   0.502 -1.2546 -0.7576  0.4079
   43MOL    C82 8566   7.744   5.761   0.365 -0.1367 -0.6488  1.0494
   43MOL    C83 8567   7.718   5.810   0.220  0.6438  0.0147 -0.0466
   43MOL    C84 8568   7.665   5.934   0.194  0.0018  0.2651  0.2314
   43MOL    C85 8569   7.621   5.973   0.058 -0.3204 -0.0772 -0.5107
   43MOL    H86 8570   7.736   5.845   0.435  1.3340  0.9498 -0.6567
   43MOL    H87 8571   7.850   5.738   0.360 -0.1823 -0.4812 -0.8840
   43MOL    H88 8572   7.746   5.742   0.141 -0.7720 -2.4997  1.5185
   43MOL    H89 8573   7.640   5.994   0.280 -1.0161 -0.8063  0.6871
   43MOL    H90 8574   7.631   5.892   7.963  1.1727  0.8321 -1.3582
   43MOL    H91 8575   7.673   6.056   0.009 -1.3231 -0.1010 -1.6476
   43MOL    C92 8576   7.472   6.023   0.053 -0.0396  0.6666 -0.8076
   43MOL    C93 8577   7.440   6.140   0.146 -0.2067  0.7723  0.5322
   43MOL    C94 8578   7.360   6.128   0.253 -0.1715  0.8959  1.0063
   43MOL    C95 8579   7.319   6.241   0.342  0.8786  0.8059  0.4783
   43MOL    H96 8580   7.455   6.063   7.930 -1.4127 -1.2742 -1.3822
   43MOL    H97 8581   7.401   5.942   0.067  0.6701  0.4671  1.8070
   43MOL    H98 8582   7.469   6.237   0.108 -0.9417  0.8678  0.2081
   43MOL    H99 8583   7.324   6.030   0.277 -1.0142  0.7787 -0.7371
   43MOL   H100 8584   7.315   6.327   0.275  1.7992  0.6712  0.2453
   43MOL   H101 8585   7.386   6.242   0.428  0.4651 -1.0175  0.8435
   43MOL   C102 8586   7.172   6.216   0.389  0.4138  0.6044  0.1368
   43MOL   C103 8587   7.124   6.309   0.493  0.7535  0.0880 -0.1375
   43MOL   C104 8588   7.005   6.299   0.563 -0.1346  0.7604 -0.3137
   43MOL   C105 8589   6.956   6.406   0.657 -0.0452 -0.0246  0.0540
   43MOL   H106 8590   7.108   6.238   0.303  0.4096  0.8257  0.1958
   43MOL   H107 8591   7.156   6.114   0.425 -0.7840  0.3471 -1.0346
   43MOL   H108 8592   7.188   6.394   0.511  0.3976  0.5496 -1.0523
   43MOL   H109 8593   6.931   6.222   0.544 -1.1845  1.6541  0.1617
   43MOL   H110 8594   7.047   6.464   0.670 -0.7599  0.5168  2.7857
   43MOL   H111 8595   6.940   6.354   0.752  1.9509 -0.0203  0.4291
   43MOL   C112 8596   6.822   6.484   0.625  0.6021  0.2855 -0.5440
   43MOL   C113 8597   6.792   6.586   0.729 -0.2193 -0.7457  0.2269
   43MOL   C114 8598   6.681   6.597   0.799 -0.3653 -0.1070 -0.3568
   43MOL   C115 8599   6.654   6.696   0.901 -0.0730 -0.2740  0.1988
   43MOL   H116 8600   6.830   6.527   0.525  0.8023 -0.2259 -0.7546
   43MOL   H117 8601   6.753   6.400   0.623  1.9840 -0.9103  0.5396
   43MOL   H118 8602   6.869   6.659   0.750 -1.0111  0.3289 -0.5216
   43MOL   H119 8603   6.605   6.522   0.786  0.3800 -0.8392 -0.5421
   43MOL   H120 8604   6.578   6.766   0.864 -0.1718  0.1647  1.2280
   43MOL   H121 8605   6.743   6.754   0.923 -1.1889  1.0252  1.3633
   43MOL   C122 8606   6.584   6.625   1.019  0.4650 -1.2879  0.3290
   43MOL   C123 8607   6.563   6.732   1.119  0.0874  0.4329 -0.2365
   43MOL   C124 8608   6.440   6.792   1.146  0.0563 -0.4877  0.0657
   43MOL   C125 8609   6.410   6.908   1.240 -0.1217 -0.0794  0.3329
   43MOL   H126 8610   6.490   6.574   1.000  0.3051 -0.0011 -2.5311
   43MOL   H127 8611   6.643   6.544   1.063 -0.8461 -2.2679  0.3036
   43MOL   H128 8612   6.644   6.757   1.187 -0.3585 -1.2338  0.9193
   43MOL   H129 8613   6.356   6.756   1.087  1.0095 -2.6788  0.0020
   43MOL   H130 8614   6.368   6.994   1.187 -0.4131  0.2028  1.0129
   43MOL   H131 8615   6.498   6.940   1.296 -0.4644  0.5242  0.5286
   43MOL   C132 8616   6.307   6.866   1.348 -0.0509  0.2316  0.7896
   43MOL   C133 8617   6.263   6.987   1.425 -0.2449  0.6099  0.2154
   43MOL   C134 8618   6.140   7.032   1.429 -0.0713  0.5137  0.2936
   43MOL   C135 8619   6.108   7.158   1.511  0.4073  0.3117 -0.5490
   43MOL   H136 8620   6.218   6.815   1.311  1.3240 -0.1281 -2.1398
   43MOL   H137 8621   6.354   6.800   1.420 -2.5307 -0.1284  2.1312
   43MOL   H138 8622   6.335   7.045   1.480 -2.1499  1.1950  2.1724
   43MOL   H139 8623   6.050   6.986   1.390  1.4965 -1.0914 -1.5004
   43MOL   H140 8624   6.185   7.213   1.565  1.6201 -1.2653 -0.6325
   43MOL   H141 8625   6.030   7.122   1.579 -0.8323  1.4966 -1.3246
   43MOL   C142 8626   6.039   7.264   1.428  0.1535 -0.0586 -0.3889
   43MOL   C143 8627   5.993   7.374   1.526  0.2609  0.2074 -0.1229
   43MOL   C144 8628   6.040   7.498   1.533 -0.5595  0.2847  0.5344
   43MOL   C145 8629   6.001   7.623   1.613 -0.1549  0.3795  0.9813
   43MOL   H146 8630   6.110   7.301   1.353  4.2761 -1.2620  2.7258
   43MOL   H147 8631   5.949   7.214   1.393  0.4515 -0.7401 -0.1924
   43MOL   H148 8632   5.911   7.345   1.590  1.7312 -1.4165  1.0622
   43MOL   H149 8633   6.109   7.516   1.452 -1.1373 -1.1016 -0.2829
   43MOL   H150 8634   5.902   7.600   1.653  0.0520 -1.1914  0.6408
   43MOL   H151 8635   6.003   7.712   1.550 -1.0743 -0.7788 -0.7413
   43MOL   C152 8636   6.098   7.625   1.729 -0.2571 -0.3227 -0.6808
   43MOL   C153 8637   6.117   7.769   1.776  0.3033 -0.1987 -0.4026
   43MOL   C154 8638   6.088   7.800   1.906  0.4565  1.5631  0.5583
   43MOL   C155 8639   6.120   7.935   1.970 -0.5492 -0.6531  0.5157
   43MOL   H156 8640   6.069   7.555   1.808 -1.1099  1.3565  0.5130
   43MOL   H157 8641   6.201   7.600   1.704  0.1259  2.3085 -1.8214
   43MOL   H158 8642   6.150   7.846   1.708 -1.2309  0.7658 -0.0619
   43MOL   H159 8643   6.044   7.733   1.977 -1.0407  0.1096 -1.6848
   43MOL   H160 8644   6.050   7.973   2.044 -2.4513  0.4691 -1.7886
   43MOL   H161 8645   6.124   0.035   1.892  1.6032  0.1179  1.3345
   43MOL   C162 8646   6.249   7.928   2.053  0.3331 -0.4649 -0.0766
   43MOL   C163 8647   6.365   7.915   1.959  0.4911  0.5915  0.1624
   43MOL   C164 8648   6.470   7.833   1.972  0.0102  0.2162 -0.0337
   43MOL   C165 8649   6.583   7.816   1.875 -0.2988 -0.1702 -0.1803
   43MOL   H166 8650   6.265   0.040   2.113 -0.9192  0.2990 -0.8690
   43MOL   H167 8651   6.239   7.845   2.124 -1.1670  0.1689  0.4627
   43MOL   H168 8652   6.362   0.015   1.883 -2.4721  0.1003 -0.2679
   43MOL   H169 8653   6.483   7.761   2.051  0.5847 -0.7694 -0.9980
   43MOL   H170 8654   6.547   7.835   1.774  1.5186  1.0551 -0.6218
   43MOL   H171 8655   6.613   7.712   1.877  1.8749  0.4476  1.2315
   43MOL   C172 8656   6.710   7.899   1.907  0.0466  0.5453  0.0449
   43MOL   C173 8657   6.819   7.874   1.807 -0.4782 -0.3496 -0.2265
   43MOL   C174 8658   6.840   7.955   1.707 -0.3504  0.0311 -0.5971
   43MOL   C175 8659   6.949   7.942   1.603 -0.2314  0.1996 -0.1411
   43MOL   H176 8660   6.683   0.028   1.910 -1.4123  0.1620  0.4584
   43MOL   H177 8661   6.751   7.873   2.004  0.9196  0.7393 -0.2614
   43MOL   H178 8662   6.871   7.780   1.813  2.7464  1.4090  0.4323
   43MOL   H179 8663   6.779   0.067   1.697  1.5131  1.2076 -1.6194
   43MOL   H180 8664   7.026   7.876   1.642 -1.5193  0.3778  2.7909
   43MOL   H181 8665   6.992   0.065   1.598 -0.0702  0.0718 -1.8241
   43MOL   C182 8666   6.893   7.912   1.462  0.1259  0.0524  0.8031
   43MOL   C183 8667   6.996   7.930   1.352 -0.1268  0.0192  0.1389
   43MOL   C184 8668   7.046   7.830   1.277  0.5082  0.0572 -0.0377
   43MOL   C185 8669   7.145   7.863   1.166  0.0704  0.1136 -0.1081
   43MOL   H186 8670   6.862   7.808   1.471  2.2032 -0.4103  3.1362
   43MOL   H187 8671   6.808   7.976   1.438 -0.1192 -0.5855 -0.0437
   43MOL   H188 8672   7.028   0.054   1.329  1.8362 -1.3270 -3.3647
   43MOL   H189 8673   7.007   7.730   1.291 -1.4688  0.8276  0.2072
   43MOL   H190 8674   7.171   7.969   1.165 -2.0089  0.6317 -1.1827
   43MOL   H191 8675   7.115   7.833   1.066  0.0212  0.8381 -0.3183
   43MOL   C192 8676   7.272   7.798   1.186 -0.4279  0.0514  0.0185
   43MOL   C193 8677   7.374   7.839   1.081  0.2351  0.7288 -0.0040
   43MOL   C194 8678   7.498   7.850   1.118 -0.4383  0.3921  0.1956
   43MOL   C195 8679   7.614   7.887   1.022  0.6139 -0.3011  0.4792
   43MOL   H196 8680   7.317   7.815   1.284  0.9677 -1.9194 -0.2486
   43MOL   H197 8681   7.261   7.689   1.183  2.7182 -0.3138 -0.2419
   43MOL   H198 8682   7.335   7.862   0.983 -0.2242  2.0284  0.4778
   43MOL   H199 8683   7.525   7.818   1.218 -0.7322 -2.1065 -0.4866
   43MOL   H200 8684   7.677   7.799   1.012  0.7824 -0.1491  0.1944
   43MOL   H201 8685   7.666   7.965   1.078  1.5338 -0.7358  0.2469
   43MOL   H202 8686   7.589   7.922   0.922  0.9295 -1.5055 -0.0169
   44MOL     C1 8687   4.636   0.017   6.144  0.1956 -0.6282 -0.0453
   44MOL     C2 8688   4.652   0.167   6.165 -0.0876  0.1762 -0.2346
   44MOL     C3 8689   4.768   0.234   6.184  0.5628 -0.1057  0.6217
   44MOL     C4 8690   4.771   0.385   6.196  0.9393 -0.7105 -0.0303
   44MOL     H5 8691   4.542   7.969   6.194 -1.1891  1.3561 -1.6094
   44MOL     H6 8692   4.718   7.929   6.175  1.0127 -0.1930 -1.2711
   44MOL     H7 8693   4.559   0.222   6.155 -0.9879 -1.4214 -0.9301
   44MOL     H8 8694   4.858   0.177   6.198  0.8780  0.4707  0.9715
   44MOL     H9 8695   4.674   0.429   6.175  2.2374  1.7414 -1.2469
   44MOL    H10 8696   4.828   0.429   6.113 -0.1386 -3.7742 -2.4687
   44MOL    H11 8697   4.633   7.971   6.038  0.2029  1.3862 -0.5028
   44MOL    C12 8698   4.810   0.419   6.344 -0.7632 -0.5700 -0.6952
   44MOL    C13 8699   4.962   0.404   6.357  0.2973 -0.7237 -0.3922
   44MOL    C14 8700   5.040   0.509   6.392 -0.0756 -0.2521  1.9383
   44MOL    C15 8701   5.189   0.501   6.416  0.1843  0.1487 -0.2172
   44MOL    H16 8702   4.784   0.523   6.364  0.7123  0.1070 -2.2369
   44MOL    H17 8703   4.756   0.347   6.406 -2.5157  1.6118  0.4164
   44MOL    H18 8704   5.004   0.306   6.342  3.6204  0.4803  0.6242
   44MOL    H19 8705   4.992   0.606   6.397  0.5658  0.1249  0.8615
   44MOL    H20 8706   5.231   0.561   6.335  0.4163  0.1819 -0.0746
   44MOL    H21 8707   5.225   0.398   6.406 -0.6276 -0.2563  0.9574
   44MOL    C22 8708   5.222   0.539   6.560 -0.2074 -0.0984  0.2417
   44MOL    C23 8709   5.256   0.686   6.568  0.2540 -0.7936 -0.0256
   44MOL    C24 8710   5.210   0.775   6.656  0.0070  0.1651  0.4772
   44MOL    C25 8711   5.275   0.905   6.681  0.2488 -0.4007  0.3201
   44MOL    H26 8712   5.135   0.523   6.623 -0.5535 -3.6845 -1.0327
   44MOL    H27 8713   5.304   0.476   6.594  1.9407  1.3437 -2.1010
   44MOL    H28 8714   5.331   0.713   6.494  0.1934  0.0328  0.2041
   44MOL    H29 8715   5.147   0.763   6.743  2.9933  1.4472  2.9058
   44MOL    H30 8716   5.200   0.984   6.689 -0.8535 -1.4214  0.1078
   44MOL    H31 8717   5.347   0.934   6.604 -1.2233  0.9909 -0.5786
   44MOL    C32 8718   5.349   0.909   6.815 -0.0242  0.7022 -0.7044
   44MOL    C33 8719   5.423   1.035   6.848 -0.0291 -0.0640 -0.1752
   44MOL    C34 8720   5.386   1.120   6.944 -0.2978 -0.1145  0.1373
   44MOL    C35 8721   5.465   1.244   6.976 -0.1194  0.0689  0.4170
   44MOL    H36 8722   5.273   0.893   6.892 -1.7319 -1.6720 -2.8117
   44MOL    H37 8723   5.415   0.825   6.833 -2.0213 -0.6132  0.7142
   44MOL    H38 8724   5.497   1.057   6.772  0.4940 -2.8919 -0.5396
   44MOL    H39 8725   5.304   1.106   7.013 -0.2536 -1.8973 -0.1340
   44MOL    H40 8726   5.542   1.270   6.904  0.6239 -0.7931  0.9033
   44MOL    H41 8727   5.522   1.209   7.062  0.1990  2.1313  1.0852
   44MOL    C42 8728   5.375   1.362   7.012 -0.0899 -0.1015  0.1724
   44MOL    C43 8729   5.304   1.357   7.145  0.6818 -0.1625 -0.4111
   44MOL    C44 8730   5.171   1.349   7.160  0.4632 -0.9268 -0.2845
   44MOL    C45 8731   5.102   1.345   7.296 -0.3828 -0.4442  0.5528
   44MOL    H46 8732   5.431   1.455   6.996 -1.1395  0.4436 -0.4568
   44MOL    H47 8733   5.293   1.372   6.941  0.9667  1.9750 -0.8086
   44MOL    H48 8734   5.366   1.341   7.231 -1.2963 -1.1028  0.8695
   44MOL    H49 8735   5.111   1.351   7.070 -0.5834  0.4430  0.4150
   44MOL    H50 8736   5.095   1.240   7.327 -0.0674 -0.9177 -0.9532
   44MOL    H51 8737   5.003   1.390   7.294  0.3610  1.2864 -4.5692
   44MOL    C52 8738   5.175   1.421   7.412 -0.0261  0.4352 -0.2542
   44MOL    C53 8739   5.094   1.451   7.536 -0.1872  0.0921  0.0248
   44MOL    C54 8740   5.103   1.550   7.628 -0.1202 -0.0460  0.2763
   44MOL    C55 8741   5.038   1.544   7.766 -0.1077 -0.2038 -0.4822
   44MOL    H56 8742   5.263   1.366   7.447 -0.6159 -1.4959 -1.6763
   44MOL    H57 8743   5.210   1.512   7.365  1.2514  1.2937  2.2927
   44MOL    H58 8744   5.014   1.382   7.558 -2.0668  1.4947 -2.1866
   44MOL    H59 8745   5.182   1.622   7.610  2.1562 -2.7697 -1.0153
   44MOL    H60 8746   5.128   1.539   7.827 -0.4897 -0.3210  0.0725
   44MOL    H61 8747   4.980   1.452   7.773 -0.0685 -0.1756  0.2199
   44MOL    C62 8748   4.955   1.666   7.799  0.1498  0.8739 -0.1386
   44MOL    C63 8749   5.021   1.792   7.855 -0.5242  0.3121  0.1754
   44MOL    C64 8750   5.159   1.814   7.860  0.2666  0.3928  0.3284
   44MOL    C65 8751   5.223   1.938   7.922 -0.2173 -0.3183  0.3274
   44MOL    H66 8752   4.888   1.698   7.719 -2.2012  1.5382  2.0006
   44MOL    H67 8753   4.882   1.635   7.874 -0.0696  1.6569 -0.0148
   44MOL    H68 8754   4.953   1.869   7.888 -0.2385  1.0318 -0.8689
   44MOL    H69 8755   5.229   1.735   7.836 -1.9331 -1.3642 -0.4648
   44MOL    H70 8756   5.291   1.894   0.018 -0.2636 -4.1136 -1.8135
   44MOL    H71 8757   5.147   1.999   7.972 -1.9818 -1.8659 -0.4171
   44MOL    C72 8758   5.312   2.035   7.831  0.1432  0.2510 -0.1732
   44MOL    C73 8759   5.385   1.950   7.727 -0.5871 -1.0301  0.2736
   44MOL    C74 8760   5.389   1.975   7.595  0.2801  0.1264  0.9450
   44MOL    C75 8761   5.479   1.885   7.496  0.2978 -0.1151 -0.5986
   44MOL    H76 8762   5.262   2.119   7.783 -0.9080  1.2249  2.5881
   44MOL    H77 8763   5.381   2.089   7.895 -0.2756  1.7973 -1.0076
   44MOL    H78 8764   5.447   1.866   7.754  0.6470 -0.8417 -1.9036
   44MOL    H79 8765   5.336   2.057   7.549  1.4864  0.0095 -0.7249
   44MOL    H80 8766   5.553   1.831   7.554  1.2943  2.7485  0.9306
   44MOL    H81 8767   5.530   1.951   7.426  0.2692 -1.1268 -1.5760
   44MOL    C82 8768   5.389   1.785   7.412  0.7336  0.7307  0.7910
   44MOL    C83 8769   5.451   1.709   7.301  0.3390 -1.1403  0.8433
   44MOL    C84 8770   5.567   1.739   7.244 -0.1304 -0.1998 -0.3282
   44MOL    C85 8771   5.648   1.645   7.157  0.2094  0.0974 -0.1992
   44MOL    H86 8772   5.351   1.706   7.477  0.9437  0.3886  0.4972
   44MOL    H87 8773   5.311   1.841   7.360  1.2964  1.4232  0.6759
   44MOL    H88 8774   5.403   1.616   7.274 -1.0734 -0.0123 -0.6152
   44MOL    H89 8775   5.619   1.829   7.272 -0.2613  0.1133 -1.0883
   44MOL    H90 8776   5.596   1.549   7.158 -0.9948  0.7244 -0.7774
   44MOL    H91 8777   5.746   1.630   7.203  0.0912 -1.1387 -0.3339
   44MOL    C92 8778   5.663   1.698   7.017  0.7224  0.2382  0.2694
   44MOL    C93 8779   5.738   1.598   6.924  0.3064 -0.0877  0.3999
   44MOL    C94 8780   5.686   1.536   6.819  0.3904  0.3406 -0.1394
   44MOL    C95 8781   5.759   1.436   6.725  0.6856 -0.3697  0.1588
   44MOL    H96 8782   5.562   1.716   6.978  0.2182 -0.8137  1.0384
   44MOL    H97 8783   5.721   1.789   7.018  0.5610  0.3499 -0.5054
   44MOL    H98 8784   5.842   1.576   6.947  0.8219  1.5136 -0.2791
   44MOL    H99 8785   5.583   1.548   6.791 -0.0093 -1.4678  0.4664
   44MOL   H100 8786   5.686   1.358   6.702  2.0130 -1.8082  0.7719
   44MOL   H101 8787   5.850   1.406   6.776 -0.7583 -0.5693  2.6875
   44MOL   C102 8788   5.795   1.496   6.588  0.0180  0.2394  0.3872
   44MOL   C103 8789   5.673   1.563   6.530  0.5962  0.3388 -0.3985
   44MOL   C104 8790   5.617   1.531   6.409 -0.2677  0.0192  0.0956
   44MOL   C105 8791   5.495   1.596   6.340 -0.2295 -0.0697  0.2465
   44MOL   H106 8792   5.873   1.571   6.594 -0.0026  0.4406 -1.6015
   44MOL   H107 8793   5.825   1.419   6.516 -1.8226 -1.3116  1.2469
   44MOL   H108 8794   5.638   1.649   6.584  1.3903  0.3706  0.0664
   44MOL   H109 8795   5.664   1.453   6.351  1.5618  1.2607 -0.1333
   44MOL   H110 8796   5.424   1.622   6.419 -1.8516  0.9634 -1.5110
   44MOL   H111 8797   5.445   1.511   6.294 -1.5045 -0.1677  1.7778
   44MOL   C112 8798   5.538   1.702   6.243 -0.4032  0.2359  0.1008
   44MOL   C113 8799   5.423   1.772   6.173 -0.4558 -0.1624  0.2155
   44MOL   C114 8800   5.297   1.735   6.192 -0.8528 -0.3809 -0.5845
   44MOL   C115 8801   5.183   1.813   6.122 -0.3935 -0.1441  0.0489
   44MOL   H116 8802   5.589   1.777   6.303  0.0822  0.9958 -1.2259
   44MOL   H117 8803   5.612   1.668   6.171  1.6967  1.5375  1.6081
   44MOL   H118 8804   5.449   1.839   6.093  1.3422 -0.9299  0.1377
   44MOL   H119 8805   5.280   1.662   6.271 -0.7043 -1.3973 -1.4805
   44MOL   H120 8806   5.115   1.746   6.070 -0.2841 -0.6146  0.5065
   44MOL   H121 8807   5.216   1.891   6.054  2.1290 -1.7389 -0.6400
   44MOL   C122 8808   5.103   1.893   6.227  0.4354  0.0787 -0.7556
   44MOL   C123 8809   4.990   1.984   6.178  0.7338  0.0739 -0.3875
   44MOL   C124 8810   4.878   1.998   6.254 -0.1208 -0.4251  0.4770
   44MOL   C125 8811   4.759   2.090   6.222  0.3751  0.2623  1.0377
   44MOL   H126 8812   5.075   1.829   6.311  0.8071  1.3887  0.3966
   44MOL   H127 8813   5.180   1.951   6.277  0.5818 -1.0036  0.3003
   44MOL   H128 8814   5.004   2.051   6.095 -0.0068 -0.2314 -0.7652
   44MOL   H129 8815   4.866   1.935   6.341 -0.5859 -1.9568 -0.6811
   44MOL   H130 8816   4.679   2.035   6.173  1.6854 -0.8611  0.1317
   44MOL   H131 8817   4.793   2.163   6.148 -1.5058  0.0809 -0.0399
   44MOL   C132 8818   4.706   2.163   6.339  0.5371 -0.1746 -0.1659
   44MOL   C133 8819   4.607   2.270   6.306 -0.1669  0.7182 -0.5151
   44MOL   C134 8820   4.608   2.396   6.369 -0.0367 -0.0596 -0.3669
   44MOL   C135 8821   4.521   2.516   6.334 -0.4692 -0.1856  0.1397
   44MOL   H136 8822   4.661   2.094   6.411 -0.3346 -0.3480 -0.8635
   44MOL   H137 8823   4.787   2.209   6.394 -0.2217  0.7714  0.1672
   44MOL   H138 8824   4.540   2.253   6.222 -2.4043 -0.0462  1.3820
   44MOL   H139 8825   4.681   2.410   6.447 -1.2772  0.4079  0.7366
   44MOL   H140 8826   4.454   2.552   6.412  0.0403  0.1651  0.4174
   44MOL   H141 8827   4.442   2.476   6.269 -0.2988 -0.9698  0.4110
   44MOL   C142 8828   4.600   2.634   6.279 -0.0829 -0.0430  0.4600
   44MOL   C143 8829   4.513   2.760   6.299  0.9963  0.8967 -0.2405
   44MOL   C144 8830   4.478   2.838   6.202 -0.4328 -0.0615  0.0071
   44MOL   C145 8831   4.386   2.958   6.208 -0.0027 -0.8381  0.6113
   44MOL   H146 8832   4.696   2.647   6.328  1.2375  0.0447 -2.1115
   44MOL   H147 8833   4.624   2.609   6.176  0.8692  1.7674  0.2360
   44MOL   H148 8834   4.484   2.774   6.402  1.9385 -0.4305  0.2182
   44MOL   H149 8835   4.506   2.809   6.101 -2.7784  0.4061 -0.8219
   44MOL   H150 8836   4.384   2.982   6.315  1.7607  0.4205  0.3870
   44MOL   H151 8837   4.287   2.935   6.169 -0.1880  0.8944  0.0084
   44MOL   C152 8838   4.452   3.077   6.137  0.5570 -0.7760 -0.3452
   44MOL   C153 8839   4.372   3.201   6.151 -0.5919  0.6207 -0.1064
   44MOL   C154 8840   4.393   3.311   6.224 -0.3861 -0.4145  0.8862
   44MOL   C155 8841   4.304   3.427   6.220  0.4935  0.2870 -0.1595
   44MOL   H156 8842   4.544   3.101   6.191 -1.2448 -0.6355  2.8420
   44MOL   H157 8843   4.479   3.049   6.036  4.4490 -2.8266  1.1708
   44MOL   H158 8844   4.297   3.207   6.074 -1.0797 -0.5578  0.2538
   44MOL   H159 8845   4.477   3.319   6.291  1.1465 -1.2877 -0.9035
   44MOL   H160 8846   4.269   3.448   6.321  0.2200 -0.5657 -0.0706
   44MOL   H161 8847   4.206   3.412   6.176  0.7363 -0.4459 -0.4579
   44MOL   C162 8848   4.369   3.550   6.170  0.0568 -1.4173  0.2028
   44MOL   C163 8849   4.337   3.668   6.255 -0.1013 -0.0485  0.0306
   44MOL   C164 8850   4.432   3.739   6.313  0.1685  0.0643 -0.4777
   44MOL   C165 8851   4.416   3.861   6.401 -0.5988  0.5901  0.5535
   44MOL   H166 8852   4.477   3.537   6.169  0.1019 -1.1107  0.7991
   44MOL   H167 8853   4.345   3.567   6.065  1.5714  1.4458  0.2672
   44MOL   H168 8854   4.232   3.684   6.276  0.0011 -1.9268  2.1447
   44MOL   H169 8855   4.533   3.711   6.286  0.1704 -1.7576  1.2848
   44MOL   H170 8856   4.312   3.879   6.431 -0.3279 -0.5620  2.2391
   44MOL   H171 8857   4.438   3.952   6.344 -0.5035  1.2801  1.6756
   44MOL   C172 8858   4.511   3.867   6.515 -0.0412 -0.0621  0.1973
   44MOL   C173 8859   4.474   3.984   6.594  0.4785  0.0305  0.1819
   44MOL   C174 8860   4.559   4.084   6.621  0.3267 -0.3279  0.6985
   44MOL   C175 8861   4.508   4.216   6.680 -0.6442  0.3523  0.4938
   44MOL   H176 8862   4.513   3.773   6.570 -1.5009  0.2361  0.7761
   44MOL   H177 8863   4.616   3.876   6.486  0.1672 -0.9673  0.6632
   44MOL   H178 8864   4.374   3.988   6.634  1.0159  1.9691  1.4056
   44MOL   H179 8865   4.656   4.082   6.575  0.3487  1.8093  0.5972
   44MOL   H180 8866   4.425   4.197   6.749  1.0928  0.2160  2.5903
   44MOL   H181 8867   4.466   4.270   6.595 -1.3599  0.3300  0.8284
   44MOL   C182 8868   4.630   4.289   6.752  0.1073  0.2303  0.5774
   44MOL   C183 8869   4.586   4.435   6.792  0.5512 -0.0201 -0.6092
   44MOL   C184 8870   4.674   4.535   6.818  0.5247 -0.1313  0.0382
   44MOL   C185 8871   4.632   4.674   6.868  0.3041  0.1059  0.1275
   44MOL   H186 8872   4.664   4.236   6.840 -1.3281 -0.9002  0.4653
   44MOL   H187 8873   4.716   4.296   6.686 -1.5018 -1.1229 -1.7185
   44MOL   H188 8874   4.484   4.454   6.821  0.3588 -0.6820 -0.8331
   44MOL   H189 8875   4.779   4.519   6.798  0.9761  0.9661  1.4222
   44MOL   H190 8876   4.523   4.678   6.869  0.2881  0.2062  3.3665
   44MOL   H191 8877   4.678   4.741   6.796  0.9866  0.9831  1.3641
   44MOL   C192 8878   4.682   4.700   7.008  0.2452  0.4380 -0.0234
   44MOL   C193 8879   4.644   4.840   7.057 -0.4514 -0.3641  0.3516
   44MOL   C194 8880   4.731   4.937   7.076  0.2362 -0.2008 -0.0966
   44MOL   C195 8881   4.698   5.073   7.144  0.7166 -0.2640 -0.3369
   44MOL   H196 8882   4.651   4.619   7.073 -0.2496  1.1160  0.5925
   44MOL   H197 8883   4.791   4.706   7.007  0.1825  1.9369  0.3009
   44MOL   H198 8884   4.538   4.859   7.055 -0.4381 -0.3161  0.0277
   44MOL   H199 8885   4.838   4.922   7.069  0.4996  1.7342 -0.5106
   44MOL   H200 8886   4.593   5.072   7.172  0.7994  0.4624  0.0192
   44MOL   H201 8887   4.699   5.152   7.069  0.6030 -1.3233 -1.4666
   44MOL   H202 8888   4.755   5.099   7.234 -0.2029 -0.2037  0.2325
   45MOL     C1 8889   3.104   4.592   5.090 -0.0023  0.2734  0.0382
   45MOL     C2 8890   3.248   4.544   5.094 -0.3004  0.4941 -0.7717
   45MOL     C3 8891   3.333   4.564   4.998 -0.0757  0.0931  0.7165
   45MOL     C4 8892   3.472   4.515   5.004 -0.0319 -0.5049 -0.8594
   45MOL     H5 8893   3.036   4.521   5.138 -0.9424  0.7655 -0.5448
   45MOL     H6 8894   3.073   4.621   4.990  0.5981  0.1115 -0.1967
   45MOL     H7 8895   3.277   4.490   5.183  0.2797  2.0862  0.0265
   45MOL     H8 8896   3.302   4.602   4.902 -0.5594 -2.1596 -0.0411
   45MOL     H9 8897   3.493   4.469   5.101 -0.4129 -0.0294 -0.5501
   45MOL    H10 8898   3.543   4.595   4.982  1.1222 -0.6052  2.2385
   45MOL    H11 8899   3.095   4.687   5.143 -2.1206 -0.3265  0.8594
   45MOL    C12 8900   3.510   4.411   4.892  0.0827  0.5177  0.1641
   45MOL    C13 8901   3.628   4.311   4.916 -0.5341 -0.2109 -0.1051
   45MOL    C14 8902   3.714   4.273   4.819  0.2306 -0.5862  0.0308
   45MOL    C15 8903   3.835   4.180   4.830  0.2075  0.0379 -0.8548
   45MOL    H16 8904   3.423   4.345   4.882  0.0901  0.5469 -0.0941
   45MOL    H17 8905   3.528   4.454   4.794 -0.9397  1.3023  0.3191
   45MOL    H18 8906   3.647   4.271   5.015 -1.6568 -3.8665 -1.2958
   45MOL    H19 8907   3.692   4.300   4.717  0.8607  0.5868  0.1984
   45MOL    H20 8908   3.818   4.112   4.913  3.7640  0.4516  0.3050
   45MOL    H21 8909   3.926   4.235   4.856 -1.3383  1.3623  2.0492
   45MOL    C22 8910   3.864   4.116   4.694  0.6075 -0.3240  0.4380
   45MOL    C23 8911   3.932   4.217   4.606 -0.4359 -0.3536  0.4761
   45MOL    C24 8912   4.000   4.183   4.499  0.4337 -0.5370  0.1637
   45MOL    C25 8913   4.069   4.264   4.399  0.4010 -0.0133 -0.0341
   45MOL    H26 8914   3.933   4.033   4.703  0.4424 -0.4038  0.9986
   45MOL    H27 8915   3.774   4.078   4.645  0.6952 -0.0489  0.0623
   45MOL    H28 8916   3.895   4.318   4.621 -0.3646 -0.4505  1.3266
   45MOL    H29 8917   4.006   4.076   4.482 -2.0435 -0.3428 -2.3300
   45MOL    H30 8918   4.079   4.364   4.441 -0.5615  0.4907 -0.9959
   45MOL    H31 8919   4.010   4.265   4.307  0.6233 -1.5431 -0.2105
   45MOL    C32 8920   4.206   4.195   4.371 -0.4329 -0.7065  0.1777
   45MOL    C33 8921   4.259   4.225   4.238 -0.3067 -0.1617  0.3065
   45MOL    C34 8922   4.248   4.150   4.129  0.2144  0.2630  0.0283
   45MOL    C35 8923   4.303   4.183   3.993 -0.0816 -0.1656  0.0494
   45MOL    H36 8924   4.277   4.234   4.444 -1.5107 -0.4399  1.0944
   45MOL    H37 8925   4.198   4.087   4.387 -0.1757 -0.4993  1.7457
   45MOL    H38 8926   4.305   4.321   4.224 -1.7053  0.0657 -3.1422
   45MOL    H39 8927   4.199   4.055   4.147 -3.5084  2.0389 -0.3262
   45MOL    H40 8928   4.214   4.181   3.930 -0.2816 -2.3482  0.3462
   45MOL    H41 8929   4.363   4.101   3.955 -1.3599 -0.2536 -1.8462
   45MOL    C42 8930   4.369   4.318   3.973  0.5221  0.2478 -0.0814
   45MOL    C43 8931   4.431   4.318   3.833  0.6272 -0.1267 -0.3174
   45MOL    C44 8932   4.553   4.363   3.802 -0.0004  0.0643 -0.2946
   45MOL    C45 8933   4.608   4.363   3.662  0.6526 -0.1994 -0.1030
   45MOL    H46 8934   4.289   4.390   3.986 -1.1411 -1.8549  1.6556
   45MOL    H47 8935   4.443   4.343   4.049  0.4806 -0.4080  0.1744
   45MOL    H48 8936   4.372   4.266   3.758 -0.8345 -1.0427  1.4236
   45MOL    H49 8937   4.606   4.418   3.878 -0.0026  0.5194 -0.6175
   45MOL    H50 8938   4.542   4.325   3.584  1.7606  0.2649 -1.2854
   45MOL    H51 8939   4.686   4.287   3.657 -0.0149 -0.8797 -0.3157
   45MOL    C52 8940   4.649   4.505   3.624  0.4288 -0.0796 -0.1867
   45MOL    C53 8941   4.706   4.520   3.484 -0.0953  0.1119  0.5205
   45MOL    C54 8942   4.824   4.573   3.451  0.1822 -0.0061  0.3673
   45MOL    C55 8943   4.884   4.591   3.309 -1.0630 -0.3170  0.3248
   45MOL    H56 8944   4.558   4.564   3.632 -0.2860 -1.1524 -0.1871
   45MOL    H57 8945   4.712   4.548   3.701  2.8036 -1.8996 -1.0411
   45MOL    H58 8946   4.649   4.471   3.406  0.1949  0.8281 -0.1557
   45MOL    H59 8947   4.871   4.627   3.532  0.6445  1.1264 -0.6434
   45MOL    H60 8948   4.908   4.694   3.282 -3.2880 -0.6779 -3.3497
   45MOL    H61 8949   4.806   4.574   3.235 -0.7711  0.1738 -0.0964
   45MOL    C62 8950   5.001   4.501   3.269  0.5959  0.0154  0.2749
   45MOL    C63 8951   4.967   4.354   3.294  0.8438 -0.0666  0.8190
   45MOL    C64 8952   4.970   4.257   3.196  0.6632  0.0235  0.3594
   45MOL    C65 8953   4.951   4.107   3.208  0.0945 -0.2785  0.2273
   45MOL    H66 8954   5.022   4.513   3.162  2.0907  1.3186  0.7014
   45MOL    H67 8955   5.086   4.541   3.324  0.0643 -0.0063  1.1261
   45MOL    H68 8956   4.959   4.330   3.399  0.3641 -1.6237  0.4397
   45MOL    H69 8957   4.980   4.292   3.094  2.5395 -0.2414  0.4460
   45MOL    H70 8958   4.863   4.096   3.145 -1.3610  3.3286  1.4898
   45MOL    H71 8959   4.931   4.074   3.310 -0.8333 -2.3089 -0.5946
   45MOL    C72 8960   5.064   4.037   3.131 -0.3636  0.2736  0.0238
   45MOL    C73 8961   5.062   3.891   3.135 -0.3467  0.6118  0.0395
   45MOL    C74 8962   4.963   3.808   3.173 -1.2471 -0.2099 -0.9618
   45MOL    C75 8963   4.972   3.653   3.182  0.1234  1.4073 -0.5246
   45MOL    H76 8964   5.064   4.070   3.026  0.6765 -0.9047 -0.3474
   45MOL    H77 8965   5.159   4.079   3.164 -1.1856  0.3537  2.3991
   45MOL    H78 8966   5.152   3.841   3.099 -0.6949 -0.1855  0.2579
   45MOL    H79 8967   4.879   3.859   3.218 -0.3492 -0.5727  1.1846
   45MOL    H80 8968   5.077   3.626   3.165 -0.2004 -0.8286  0.8499
   45MOL    H81 8969   4.910   3.602   3.108  1.2909 -2.7284  1.2020
   45MOL    C82 8970   4.937   3.602   3.326  0.3200 -0.5718 -0.3792
   45MOL    C83 8971   4.960   3.452   3.338 -0.1614 -0.2472  0.5062
   45MOL    C84 8972   4.872   3.368   3.398  0.6397 -0.8708  0.4022
   45MOL    C85 8973   4.885   3.216   3.403 -0.2032  0.1665  0.0445
   45MOL    H86 8974   5.008   3.654   3.391  0.6505  0.0165 -1.1983
   45MOL    H87 8975   4.838   3.628   3.362  0.2704 -1.1417 -0.1072
   45MOL    H88 8976   5.054   3.419   3.296 -0.2339  0.9463 -0.6569
   45MOL    H89 8977   4.794   3.422   3.448 -0.3217 -1.7976 -0.0762
   45MOL    H90 8978   4.908   3.198   3.509  0.1111 -0.8293 -0.1812
   45MOL    H91 8979   4.971   3.177   3.349 -0.1043 -0.2289  0.4786
   45MOL    C92 8980   4.759   3.134   3.364 -0.7932 -1.0198 -0.4194
   45MOL    C93 8981   4.764   3.002   3.426  0.0238  0.1939  0.7052
   45MOL    C94 8982   4.787   2.891   3.354 -0.4277  0.0553 -0.1304
   45MOL    C95 8983   4.810   2.750   3.401  0.1679 -0.0373 -0.0741
   45MOL    H96 8984   4.668   3.184   3.398 -0.4211 -0.6042 -0.0319
   45MOL    H97 8985   4.744   3.133   3.256  1.6807 -0.8072 -0.7917
   45MOL    H98 8986   4.764   2.986   3.532  0.3968 -0.5008  0.6045
   45MOL    H99 8987   4.812   2.893   3.249 -0.9834  0.9121 -0.2505
   45MOL   H100 8988   4.733   2.679   3.370  2.4266 -1.9360 -1.4610
   45MOL   H101 8989   4.792   2.747   3.508 -2.8768 -1.8056 -0.5638
   45MOL   C102 8990   4.950   2.708   3.349 -0.0752 -0.3048  0.7537
   45MOL   C103 8991   4.990   2.567   3.394  0.1114 -0.2110  0.0390
   45MOL   C104 8992   5.095   2.547   3.470 -0.2163 -0.3536  0.4471
   45MOL   C105 8993   5.145   2.407   3.525 -0.0485 -0.2102 -0.4868
   45MOL   H106 8994   4.950   2.718   3.241 -1.9797 -1.6953  0.6053
   45MOL   H107 8995   5.021   2.784   3.381  0.4934 -0.0246 -1.1099
   45MOL   H108 8996   4.932   2.487   3.350  0.9000  0.3040 -1.9906
   45MOL   H109 8997   5.165   2.625   3.492 -1.1608  0.1205  1.8694
   45MOL   H110 8998   5.219   2.357   3.463 -2.0523 -2.2856 -1.2815
   45MOL   H111 8999   5.056   2.343   3.526  0.0419 -0.3278  1.3500
   45MOL   C112 9000   5.220   2.411   3.664  0.1013  0.1789  1.3035
   45MOL   C113 9001   5.145   2.471   3.777  0.3861  0.1681 -0.3098
   45MOL   C114 9002   5.018   2.512   3.779  0.0675  0.9081 -0.8731
   45MOL   C115 9003   4.946   2.582   3.894  0.6127 -0.5275 -0.0526
   45MOL   H116 9004   5.256   2.309   3.680  2.2512  0.9511  1.5217
   45MOL   H117 9005   5.307   2.475   3.651 -1.3316  2.1418  1.0986
   45MOL   H118 9006   5.199   2.498   3.867 -0.4630  3.9587 -0.8474
   45MOL   H119 9007   4.956   2.483   3.696  1.4313 -0.4961 -1.4254
   45MOL   H120 9008   4.936   2.509   3.975 -2.2453  0.1726  0.2721
   45MOL   H121 9009   4.845   2.610   3.866  1.3863  1.0166 -1.3466
   45MOL   C122 9010   5.024   2.707   3.952  0.6187  0.1980 -0.3386
   45MOL   C123 9011   5.041   2.809   3.840  0.9140  0.0215  0.1253
   45MOL   C124 9012   5.156   2.827   3.769  0.3499  0.5426  0.6699
   45MOL   C125 9013   5.176   2.923   3.653  0.4198 -0.3516  0.3259
   45MOL   H126 9014   4.966   2.748   4.035  0.6954  2.1439 -1.2184
   45MOL   H127 9015   5.118   2.673   3.995  0.1158 -1.1133 -0.2243
   45MOL   H128 9016   4.960   2.871   3.804 -0.1226 -0.1092  2.1966
   45MOL   H129 9017   5.245   2.775   3.801 -0.8482 -1.9860  0.0207
   45MOL   H130 9018   5.078   2.952   3.614  0.8393  0.9690  0.2126
   45MOL   H131 9019   5.236   2.873   3.577  1.2965 -0.5175  1.1185
   45MOL   C132 9020   5.262   3.054   3.686  0.4244  0.7832 -0.3763
   45MOL   C133 9021   5.262   3.137   3.567 -0.8353  0.4882  0.1984
   45MOL   C134 9022   5.376   3.176   3.502  0.2017  0.4141 -0.2665
   45MOL   C135 9023   5.388   3.264   3.382 -0.5884 -0.0028 -0.2283
   45MOL   H136 9024   5.221   3.106   3.772  0.5675 -2.4938  1.7847
   45MOL   H137 9025   5.361   3.024   3.721  0.1777 -1.7194 -1.7085
   45MOL   H138 9026   5.167   3.165   3.524 -0.9478 -1.8164 -1.1306
   45MOL   H139 9027   5.466   3.128   3.538  0.0026 -1.0024 -1.5977
   45MOL   H140 9028   5.474   3.330   3.389 -1.5643  1.1265  1.5547
   45MOL   H141 9029   5.302   3.330   3.371  1.1900  2.1670 -1.6822
   45MOL   C142 9030   5.398   3.175   3.250 -0.2223  0.1939 -0.1340
   45MOL   C143 9031   5.276   3.086   3.233  0.0168 -0.1979  0.3663
   45MOL   C144 9032   5.194   3.100   3.131  0.0099 -0.1359  0.6855
   45MOL   C145 9033   5.074   3.018   3.115  0.7764  0.8669  0.4859
   45MOL   H146 9034   5.426   3.237   3.165 -0.9629  1.5059  0.5496
   45MOL   H147 9035   5.473   3.097   3.250 -1.6480 -1.2083  0.0379
   45MOL   H148 9036   5.264   3.011   3.309  0.6007 -0.7469 -0.0813
   45MOL   H149 9037   5.209   3.181   3.062  3.6149 -2.7458 -1.7356
   45MOL   H150 9038   4.990   3.082   3.142  0.7006  0.5973  0.9022
   45MOL   H151 9039   5.076   2.927   3.176  2.6528  0.6181  0.0625
   45MOL   C152 9040   5.049   2.972   2.973 -0.2478  0.0854 -0.3571
   45MOL   C153 9041   4.951   2.855   2.964 -0.5333 -0.0750 -0.7373
   45MOL   C154 9042   4.830   2.863   2.910 -0.5828 -0.2134  0.1163
   45MOL   C155 9043   4.731   2.746   2.889  0.2236 -0.7041 -0.5230
   45MOL   H156 9044   5.026   3.049   2.900  0.8005 -0.0278 -0.8130
   45MOL   H157 9045   5.145   2.930   2.941 -1.4846 -3.2969  0.1322
   45MOL   H158 9046   4.983   2.764   3.013  0.3409  0.5706 -0.0922
   45MOL   H159 9047   4.800   2.960   2.873 -1.0436  0.3136  1.8135
   45MOL   H160 9048   4.759   2.654   2.940 -1.4971 -0.6578  0.5716
   45MOL   H161 9049   4.705   2.742   2.783 -0.6294  0.8149 -0.3850
   45MOL   C162 9050   4.595   2.786   2.943  1.3885 -0.1787  0.4799
   45MOL   C163 9051   4.486   2.678   2.931 -0.3079  0.4122 -0.5798
   45MOL   C164 9052   4.377   2.698   2.853  0.0685  0.0388  0.2917
   45MOL   C165 9053   4.264   2.591   2.824 -0.3882 -0.0756  0.1885
   45MOL   H166 9054   4.591   2.831   3.042  0.7286 -0.9573  0.8158
   45MOL   H167 9055   4.560   2.866   2.878 -0.9137 -2.0444 -0.6729
   45MOL   H168 9056   4.489   2.578   2.970  0.3648  1.3791  1.9090
   45MOL   H169 9057   4.363   2.791   2.802  0.7177 -0.3343 -0.5855
   45MOL   H170 9058   4.185   2.614   2.895  0.5099  2.3212  0.4471
   45MOL   H171 9059   4.300   2.490   2.845  1.3426  0.9842  2.6603
   45MOL   C172 9060   4.205   2.590   2.680  0.3680  0.6603  0.2635
   45MOL   C173 9061   4.171   2.724   2.610  0.0613 -1.1921 -0.0542
   45MOL   C174 9062   4.046   2.765   2.588  0.2841 -1.0347  1.1702
   45MOL   C175 9063   4.010   2.897   2.518 -0.5723 -0.3016  0.7803
   45MOL   H176 9064   4.284   2.538   2.627 -2.8216 -0.9525 -3.1194
   45MOL   H177 9065   4.112   2.533   2.685  0.3532  0.7893  1.7939
   45MOL   H178 9066   4.253   2.785   2.576 -0.0608 -1.0070 -0.0135
   45MOL   H179 9067   3.968   2.703   2.630  0.2153 -2.8555 -1.5374
   45MOL   H180 9068   4.101   2.955   2.503 -1.9190  1.2645 -1.7332
   45MOL   H181 9069   3.953   2.950   2.595 -1.7281  2.7617 -2.0398
   45MOL   C182 9070   3.928   2.880   2.390  0.3495  0.5201  0.0010
   45MOL   C183 9071   3.894   3.006   2.321  0.4575 -0.3810 -0.3888
   45MOL   C184 9072   3.775   3.056   2.286 -0.0966 -0.3732 -0.3568
   45MOL   C185 9073   3.755   3.187   2.222 -0.4053  0.2491  0.4286
   45MOL   H186 9074   3.989   2.829   2.316  0.1967 -0.5696  0.6059
   45MOL   H187 9075   3.834   2.829   2.414  0.1810  0.8277 -0.0097
   45MOL   H188 9076   3.974   3.077   2.305  0.6768 -0.3477  0.8103
   45MOL   H189 9077   3.682   3.002   2.298  0.2474 -0.9865 -0.4371
   45MOL   H190 9078   3.743   3.167   2.115 -0.7580  0.8130  0.3609
   45MOL   H191 9079   3.840   3.256   2.224 -0.9172  0.8653  1.4300
   45MOL   C192 9080   3.631   3.261   2.268  0.3851  0.6771  0.3347
   45MOL   C193 9081   3.630   3.319   2.409 -0.9600  0.0961  0.3880
   45MOL   C194 9082   3.730   3.334   2.495  0.0200  0.2695  0.6108
   45MOL   C195 9083   3.693   3.382   2.634  0.0342 -0.2252  0.9745
   45MOL   H196 9084   3.595   3.333   2.194  0.9801  1.2400  0.5917
   45MOL   H197 9085   3.543   3.196   2.269  0.7180  0.2407  1.9213
   45MOL   H198 9086   3.531   3.349   2.439 -0.9074  0.0306  0.6306
   45MOL   H199 9087   3.833   3.312   2.470 -0.1586  0.7132 -0.5770
   45MOL   H200 9088   3.742   3.476   2.659  1.5428  0.4030 -3.7104
   45MOL   H201 9089   3.729   3.310   2.707 -1.2356  0.0771  1.9186
   45MOL   H202 9090   3.588   3.399   2.657 -0.0632 -0.9878  1.1119
   46MOL     C1 9091   2.924   1.250   0.340 -0.0284 -0.1842  0.1174
   46MOL     C2 9092   2.808   1.332   0.382 -0.3628 -1.1117  0.5765
   46MOL     C3 9093   2.780   1.456   0.342  0.2052 -0.0462 -0.1407
   46MOL     C4 9094   2.662   1.549   0.380  0.2880  0.9406 -0.6138
   46MOL     H5 9095   2.996   1.311   0.286 -0.3101  0.8791  0.9206
   46MOL     H6 9096   2.882   1.169   0.281 -1.9076  0.5694  0.3699
   46MOL     H7 9097   2.743   1.279   0.450  0.3866 -0.3329  1.9191
   46MOL     H8 9098   2.855   1.492   0.272  1.9758 -0.9864  1.2376
   46MOL     H9 9099   2.636   1.531   0.484  1.1937  1.1465 -0.3480
   46MOL    H10 9100   2.582   1.533   0.307 -0.6398 -0.3988  0.6676
   46MOL    H11 9101   2.977   1.205   0.424  0.3885  1.5272  0.8083
   46MOL    C12 9102   2.700   1.699   0.358 -0.6863  0.1285 -0.0564
   46MOL    C13 9103   2.588   1.786   0.410  0.2562 -0.4448 -0.9814
   46MOL    C14 9104   2.600   1.853   0.526  0.0494 -0.1796 -0.5071
   46MOL    C15 9105   2.507   1.947   0.593  0.7515 -0.3130  0.0894
   46MOL    H16 9106   2.795   1.715   0.410 -0.8674 -1.3102  0.7365
   46MOL    H17 9107   2.724   1.724   0.255  2.0951 -1.8900  0.0358
   46MOL    H18 9108   2.507   1.804   0.340 -0.1460  1.3560 -0.1050
   46MOL    H19 9109   2.685   1.832   0.590 -0.1571 -2.0153 -0.8070
   46MOL    H20 9110   2.479   1.908   0.691  3.4093 -2.6779 -0.0154
   46MOL    H21 9111   2.419   1.935   0.529  2.5268 -0.7823 -2.3693
   46MOL    C22 9112   2.564   2.081   0.605  0.5014 -0.9087 -0.5053
   46MOL    C23 9113   2.477   2.169   0.700  0.1292  0.3752  0.6795
   46MOL    C24 9114   2.527   2.252   0.795  0.2345  0.4965  0.9192
   46MOL    C25 9115   2.435   2.344   0.872  0.0803 -0.4553 -0.3735
   46MOL    H26 9116   2.670   2.086   0.630  0.4988  0.8805 -0.7248
   46MOL    H27 9117   2.566   2.134   0.510  0.6924 -2.0727 -1.1574
   46MOL    H28 9118   2.372   2.158   0.680 -0.1493 -1.4694  2.9604
   46MOL    H29 9119   2.632   2.269   0.811  0.1968  0.4757  1.1908
   46MOL    H30 9120   2.336   2.299   0.874 -0.2957  0.3836  0.2030
   46MOL    H31 9121   2.431   2.448   0.838 -1.2498  0.3935  2.2275
   46MOL    C32 9122   2.476   2.337   1.018  0.1639 -0.0068  1.2249
   46MOL    C33 9123   2.366   2.407   1.099  0.3183 -0.7078 -0.3984
   46MOL    C34 9124   2.385   2.530   1.161  0.8414 -0.0733  0.4402
   46MOL    C35 9125   2.276   2.610   1.229 -0.2059 -0.8373  0.5153
   46MOL    H36 9126   2.473   2.234   1.055 -1.3704 -0.1581  0.6753
   46MOL    H37 9127   2.574   2.384   1.030  1.2076 -0.9235 -2.9524
   46MOL    H38 9128   2.268   2.360   1.101  0.7008 -1.4733  1.8609
   46MOL    H39 9129   2.482   2.577   1.156  0.4195  1.0068  2.1443
   46MOL    H40 9130   2.312   2.633   1.329  1.6220  0.1407 -0.3423
   46MOL    H41 9131   2.192   2.542   1.246 -0.9693 -0.1325 -0.3563
   46MOL    C42 9132   2.218   2.719   1.143 -0.1507  0.0036 -0.2864
   46MOL    C43 9133   2.103   2.791   1.217  0.9299 -0.2805  0.7127
   46MOL    C44 9134   2.092   2.925   1.225 -0.1736 -0.9325  0.3025
   46MOL    C45 9135   1.969   3.000   1.286 -0.1927 -0.1760  1.1294
   46MOL    H46 9136   2.287   2.793   1.103 -1.1639  0.2636 -1.5700
   46MOL    H47 9137   2.175   2.675   1.053  0.9785  0.2957 -0.9695
   46MOL    H48 9138   2.018   2.734   1.253 -1.1162  0.6950 -2.3662
   46MOL    H49 9139   2.173   2.980   1.179 -1.3794 -0.4811 -1.2985
   46MOL    H50 9140   1.925   2.931   1.357 -0.5849  1.6717  2.7215
   46MOL    H51 9141   1.895   3.005   1.206  2.0550  0.5334 -0.9946
   46MOL    C52 9142   1.996   3.142   1.328 -0.5206  0.1708 -0.0666
   46MOL    C53 9143   1.865   3.200   1.366  0.1892  0.5055 -0.0634
   46MOL    C54 9144   1.780   3.161   1.464 -0.7024  0.1436  0.1595
   46MOL    C55 9145   1.654   3.234   1.496  0.3211  0.3568  0.0047
   46MOL    H56 9146   2.054   3.150   1.420  1.5553  2.2189 -1.5177
   46MOL    H57 9147   2.051   3.201   1.255  3.5478  0.5632  3.1590
   46MOL    H58 9148   1.839   3.292   1.317  1.1484  0.1182 -1.3284
   46MOL    H59 9149   1.793   3.069   1.518 -1.1339 -0.1992 -0.3188
   46MOL    H60 9150   1.575   3.159   1.504  2.5332 -2.0175  0.1994
   46MOL    H61 9151   1.634   3.289   1.404  0.7997 -0.9065 -0.8763
   46MOL    C62 9152   1.661   3.322   1.618  0.1788  0.9882 -0.1689
   46MOL    C63 9153   1.536   3.397   1.662  0.4464 -0.4699 -0.1447
   46MOL    C64 9154   1.418   3.403   1.593 -0.5497 -0.1827  0.2453
   46MOL    C65 9155   1.291   3.481   1.622 -0.3037  0.1015 -0.1285
   46MOL    H66 9156   1.704   3.270   1.704  1.1533 -0.1143 -1.2946
   46MOL    H67 9157   1.732   3.403   1.602  1.3146  0.2483  0.9705
   46MOL    H68 9158   1.534   3.457   1.752  1.1139  1.6999 -1.5194
   46MOL    H69 9159   1.416   3.351   1.499  1.0589  1.6999 -0.8604
   46MOL    H70 9160   1.301   3.530   1.719  0.3805 -1.7633  0.7514
   46MOL    H71 9161   1.205   3.414   1.622  0.0983 -0.4129 -0.1537
   46MOL    C72 9162   1.268   3.594   1.515 -0.1783 -0.5424 -0.4369
   46MOL    C73 9163   1.375   3.694   1.504 -0.6948 -0.1235 -0.6084
   46MOL    C74 9164   1.457   3.722   1.400 -0.4874 -0.0313  0.4978
   46MOL    C75 9165   1.567   3.827   1.395  0.2951 -0.0567 -0.3562
   46MOL    H76 9166   1.249   3.556   1.414  4.3273 -0.1911 -1.5270
   46MOL    H77 9167   1.173   3.642   1.540 -0.0874  0.9395 -2.8086
   46MOL    H78 9168   1.390   3.757   1.590  2.4177 -1.7088  0.0913
   46MOL    H79 9169   1.457   3.656   1.315  1.0178  0.6849 -0.0923
   46MOL    H80 9170   1.666   3.789   1.416  0.8288  0.0294 -2.5806
   46MOL    H81 9171   1.551   3.906   1.469 -0.8770 -1.0301  0.4474
   46MOL    C82 9172   1.596   3.894   1.257 -0.3526 -0.0252 -0.3879
   46MOL    C83 9173   1.687   4.006   1.265 -0.2770 -0.5885 -0.2621
   46MOL    C84 9174   1.656   4.131   1.234 -0.2413 -0.2432 -0.2258
   46MOL    C85 9175   1.759   4.244   1.226  0.5878 -0.4640 -0.2188
   46MOL    H86 9176   1.618   3.819   1.181 -0.7959  0.9134 -1.4481
   46MOL    H87 9177   1.505   3.941   1.219 -1.0546 -0.3928  0.7917
   46MOL    H88 9178   1.792   3.985   1.277 -0.5485 -1.5771  0.4208
   46MOL    H89 9179   1.554   4.154   1.208 -0.1290  1.6822  0.9907
   46MOL    H90 9180   1.829   4.204   1.153  0.9435  2.2732 -1.4275
   46MOL    H91 9181   1.817   4.256   1.318 -1.4424  0.3320  1.0083
   46MOL    C92 9182   1.695   4.382   1.187  0.5062 -0.6847  0.0992
   46MOL    C93 9183   1.791   4.492   1.208  0.3022  0.1478 -0.4248
   46MOL    C94 9184   1.750   4.597   1.280  0.5384  0.0227  0.1275
   46MOL    C95 9185   1.851   4.708   1.315  0.2229  0.6267 -0.0568
   46MOL    H96 9186   1.673   4.383   1.081 -0.2399 -1.3943  0.2374
   46MOL    H97 9187   1.596   4.400   1.230  0.2969  0.7942 -0.9962
   46MOL    H98 9188   1.893   4.474   1.180  0.8088  0.1152  1.3691
   46MOL    H99 9189   1.647   4.607   1.312  0.0672 -0.9854 -1.0241
   46MOL   H100 9190   1.949   4.680   1.275 -0.4060 -0.1506 -1.1129
   46MOL   H101 9191   1.858   4.711   1.423 -0.6427 -3.1405  0.1705
   46MOL   C102 9192   1.820   4.846   1.252  0.2081  0.5067  0.5271
   46MOL   C103 9193   1.924   4.945   1.293  0.1152 -0.3317  1.0122
   46MOL   C104 9194   1.972   5.039   1.210 -0.4773 -0.5416  0.5766
   46MOL   C105 9195   2.083   5.134   1.244  0.6502 -0.3754 -0.5131
   46MOL   H106 9196   1.804   4.838   1.145  0.2181 -1.8765  0.6682
   46MOL   H107 9197   1.732   4.900   1.288  0.2590  1.9594 -1.4836
   46MOL   H108 9198   1.968   4.935   1.391 -1.0326 -1.4195  1.4324
   46MOL   H109 9199   1.929   5.052   1.112  1.0940 -1.6135 -0.2753
   46MOL   H110 9200   2.069   5.232   1.199 -1.5535 -1.4734 -2.3603
   46MOL   H111 9201   2.177   5.090   1.210  0.3985 -0.0248 -1.6868
   46MOL   C112 9202   2.095   5.160   1.390 -0.1416  0.3519 -0.4566
   46MOL   C113 9203   2.169   5.288   1.419 -0.3895  0.6353 -0.2467
   46MOL   C114 9204   2.120   5.392   1.488 -0.4764 -0.6458 -0.0266
   46MOL   C115 9205   2.198   5.511   1.526  1.1475 -0.0387  0.2947
   46MOL   H116 9206   1.994   5.181   1.426 -0.6157 -2.0440 -0.3197
   46MOL   H117 9207   2.133   5.072   1.440 -3.2406 -0.6304  0.2763
   46MOL   H118 9208   2.266   5.290   1.371 -1.4283  3.1198 -2.4328
   46MOL   H119 9209   2.023   5.390   1.535  0.7367 -2.2678  2.5450
   46MOL   H120 9210   2.137   5.598   1.501  1.3304  0.2304  0.7840
   46MOL   H121 9211   2.285   5.527   1.463 -0.1854  1.4907 -1.2403
   46MOL   C122 9212   2.241   5.509   1.671  0.9487  0.1569  0.1272
   46MOL   C123 9213   2.125   5.522   1.773  0.1591  1.0231 -0.5173
   46MOL   C124 9214   2.077   5.435   1.861 -0.2221  0.2806 -0.6227
   46MOL   C125 9215   1.955   5.471   1.952  0.1954  0.6167  0.0718
   46MOL   H126 9216   2.286   5.411   1.687  2.1925  0.9832  1.8860
   46MOL   H127 9217   2.316   5.585   1.694 -0.7855  1.5269  1.4265
   46MOL   H128 9218   2.087   5.623   1.778 -2.1158  0.0850  1.8145
   46MOL   H129 9219   2.120   5.337   1.876  1.2063  0.5613 -2.6199
   46MOL   H130 9220   1.854   5.443   1.922  0.3528  0.6769 -0.5092
   46MOL   H131 9221   1.944   5.578   1.940  1.9900  0.9064  0.9036
   46MOL   C132 9222   1.991   5.424   2.098  0.7663 -0.6084  0.0825
   46MOL   C133 9223   1.968   5.273   2.104 -0.4287  0.1881  0.4402
   46MOL   C134 9224   1.927   5.208   2.213 -0.1422 -0.3043 -0.2138
   46MOL   C135 9225   1.918   5.058   2.232 -0.7696 -0.4537  0.0844
   46MOL   H136 9226   2.091   5.453   2.126  1.3522 -1.1311 -1.3876
   46MOL   H137 9227   1.933   5.473   2.176  0.4799 -1.4691  0.4143
   46MOL   H138 9228   1.989   5.218   2.014  3.0748  1.0129  0.6568
   46MOL   H139 9229   1.899   5.268   2.299 -1.4601 -1.3808  0.1445
   46MOL   H140 9230   1.942   5.063   2.338  0.9231  0.2059 -0.3097
   46MOL   H141 9231   1.989   5.000   2.173 -0.4888  0.5495 -0.5879
   46MOL   C142 9232   1.779   4.994   2.205  0.3742  0.0804 -0.0183
   46MOL   C143 9233   1.780   4.844   2.175  0.1416 -0.6652  0.0341
   46MOL   C144 9234   1.697   4.758   2.237  0.3331  0.3392  0.2060
   46MOL   C145 9235   1.702   4.609   2.208 -0.3995 -0.8096 -1.0094
   46MOL   H146 9236   1.716   5.010   2.292  0.3776  1.8232 -0.3249
   46MOL   H147 9237   1.738   5.048   2.120 -0.2259 -0.9001 -0.3554
   46MOL   H148 9238   1.850   4.812   2.099  2.1537  1.0939  1.1042
   46MOL   H149 9239   1.631   4.789   2.316  0.3664 -1.4538  0.9564
   46MOL   H150 9240   1.787   4.590   2.142  1.1079 -0.1750  0.6771
   46MOL   H151 9241   1.616   4.584   2.147  0.1796  1.2139 -2.6765
   46MOL   C152 9242   1.699   4.525   2.333  0.4919  0.3505  0.3068
   46MOL   C153 9243   1.715   4.377   2.301  0.1545  0.2388 -0.3347
   46MOL   C154 9244   1.833   4.313   2.283  0.5365  0.0368  0.1663
   46MOL   C155 9245   1.862   4.180   2.217 -0.5807  0.1298 -0.5643
   46MOL   H156 9246   1.788   4.549   2.391  1.6419 -2.5958 -0.1533
   46MOL   H157 9247   1.610   4.548   2.393 -2.2985 -2.9786 -2.3686
   46MOL   H158 9248   1.619   4.334   2.274 -0.5313  0.7957  1.1958
   46MOL   H159 9249   1.918   4.375   2.307  1.0385 -0.4239 -0.3822
   46MOL   H160 9250   1.762   4.154   2.181 -0.5067  1.9306 -2.1658
   46MOL   H161 9251   1.901   4.108   2.289  0.2755  1.0567 -0.0965
   46MOL   C162 9252   1.950   4.200   2.094 -0.1749  0.2139  0.6783
   46MOL   C163 9253   2.023   4.079   2.032 -0.3030  0.0934  0.3028
   46MOL   C164 9254   2.149   4.053   2.059  0.0095 -0.8418 -0.2832
   46MOL   C165 9255   2.235   3.953   1.987 -0.2230 -0.2647 -0.5699
   46MOL   H166 9256   1.883   4.233   2.014  4.0324  2.3331 -2.1968
   46MOL   H167 9257   2.025   4.279   2.100 -1.3864  1.4101  0.4915
   46MOL   H168 9258   1.974   4.012   1.964  0.3776  0.0166 -0.1178
   46MOL   H169 9259   2.206   4.126   2.116  2.8304 -3.5512  0.5146
   46MOL   H170 9260   2.154   3.890   1.948 -1.1779 -1.0207  2.5018
   46MOL   H171 9261   2.281   3.889   2.062  0.3574  2.3205  1.3535
   46MOL   C172 9262   2.325   4.014   1.885  0.1500  0.1740  0.6662
   46MOL   C173 9263   2.379   3.921   1.776  0.4942 -0.0623 -0.6792
   46MOL   C174 9264   2.332   3.913   1.650  0.8449  0.8821 -0.1640
   46MOL   C175 9265   2.370   3.801   1.557  0.4637 -0.0218  0.2808
   46MOL   H176 9266   2.269   4.094   1.837 -0.8193 -1.1553 -0.4741
   46MOL   H177 9267   2.406   4.074   1.927 -0.2263 -0.3244  2.1364
   46MOL   H178 9268   2.427   3.835   1.820 -1.0666 -0.0639  1.0537
   46MOL   H179 9269   2.271   3.996   1.617 -0.4011  0.5748  1.2557
   46MOL   H180 9270   2.301   3.718   1.576  0.4695 -0.0351  0.2424
   46MOL   H181 9271   2.473   3.770   1.572 -0.3175 -2.3263  1.0269
   46MOL   C182 9272   2.350   3.840   1.406  0.6144  0.4582  0.0402
   46MOL   C183 9273   2.423   3.748   1.310  0.1401 -0.9650  0.0499
   46MOL   C184 9274   2.531   3.778   1.237  0.6131  0.3307  0.3863
   46MOL   C185 9275   2.583   3.683   1.133 -0.4872  0.6920 -0.0841
   46MOL   H186 9276   2.243   3.841   1.382  0.8691  2.2459 -1.0542
   46MOL   H187 9277   2.375   3.944   1.390  0.7102 -0.0122 -3.2545
   46MOL   H188 9278   2.367   3.656   1.297  1.4721 -1.5392 -1.8023
   46MOL   H189 9279   2.581   3.873   1.237 -1.3458  1.4023 -2.1810
   46MOL   H190 9280   2.579   3.712   1.028  0.9443 -0.1027 -0.3736
   46MOL   H191 9281   2.517   3.596   1.145 -1.5962  1.1497 -2.6126
   46MOL   C192 9282   2.740   3.668   1.146 -0.0702 -0.0961 -0.0328
   46MOL   C193 9283   2.792   3.531   1.104  0.2973 -0.4525 -0.9270
   46MOL   C194 9284   2.880   3.456   1.171 -0.3054  0.2292 -0.0024
   46MOL   C195 9285   2.926   3.310   1.117  0.2740 -0.4095  0.2668
   46MOL   H196 9286   2.805   3.735   1.089  0.4974  1.2308  2.1452
   46MOL   H197 9287   2.766   3.686   1.250  0.2432 -1.3717  0.1088
   46MOL   H198 9288   2.756   3.493   1.009  0.5705  0.9350 -1.6036
   46MOL   H199 9289   2.927   3.486   1.263 -2.5782  2.3452  0.5151
   46MOL   H200 9290   3.026   3.314   1.073  0.1950  1.6234  0.2185
   46MOL   H201 9291   2.844   3.291   1.047  0.8212  0.4156 -0.6052
   46MOL   H202 9292   2.927   3.239   1.200 -1.2193 -0.3705  0.3332
   47MOL     C1 9293   3.222   7.761   6.912 -0.4224 -0.3315  0.4400
   47MOL     C2 9294   3.201   7.653   7.017 -0.5517  0.6356 -1.3636
   47MOL     C3 9295   3.293   7.598   7.098  0.1267  0.1574 -0.6044
   47MOL     C4 9296   3.276   7.494   7.206  0.7579  0.3532  0.4869
   47MOL     H5 9297   3.327   7.791   6.913 -0.3656 -0.5376  0.5977
   47MOL     H6 9298   3.167   7.852   6.938 -1.1307  0.1558 -2.6436
   47MOL     H7 9299   3.102   7.611   7.014 -0.9500  1.2984  1.6363
   47MOL     H8 9300   3.394   7.635   7.094 -0.4823  1.8745 -0.3247
   47MOL     H9 9301   3.353   7.421   7.184 -0.0289 -0.0593 -0.9409
   47MOL    H10 9302   3.181   7.444   7.186  0.9149  1.0071 -2.0305
   47MOL    H11 9303   3.203   7.742   6.807 -0.6645 -0.7381  0.5561
   47MOL    C12 9304   3.275   7.545   7.349 -0.3240 -0.4595  0.6463
   47MOL    C13 9305   3.274   7.429   7.445 -0.3995  0.1788 -0.3045
   47MOL    C14 9306   3.176   7.401   7.530 -0.1051  0.1544  0.2649
   47MOL    C15 9307   3.165   7.274   7.619 -1.2439 -0.1668  0.0703
   47MOL    H16 9308   3.365   7.606   7.349 -1.1026  0.7644 -1.8764
   47MOL    H17 9309   3.199   7.620   7.370  0.5998  1.1793 -1.6329
   47MOL    H18 9310   3.356   7.362   7.427 -0.5605 -0.0020 -0.3626
   47MOL    H19 9311   3.091   7.467   7.525  1.5798  2.2169 -2.0537
   47MOL    H20 9312   3.248   7.212   7.586 -0.0755  1.3160  0.1654
   47MOL    H21 9313   3.082   7.215   7.581 -1.4526  0.0444  0.1980
   47MOL    C22 9314   3.155   7.306   7.764  0.1476 -0.1791 -0.2137
   47MOL    C23 9315   3.145   7.183   7.844  0.5635 -0.1553  0.0730
   47MOL    C24 9316   3.044   7.097   7.837 -1.2165 -0.7277 -0.2223
   47MOL    C25 9317   3.038   6.962   7.912 -0.2032  0.0445  0.1414
   47MOL    H26 9318   3.242   7.366   7.789  0.0491 -0.0741 -0.1242
   47MOL    H27 9319   3.066   7.367   7.780 -0.0823 -0.9532  1.5768
   47MOL    H28 9320   3.218   7.166   7.921 -0.6712  0.0542  1.3118
   47MOL    H29 9321   2.965   7.124   7.767  0.3684  1.4252 -1.2312
   47MOL    H30 9322   3.135   6.920   7.937  0.1169  1.5643  1.5240
   47MOL    H31 9323   2.991   6.895   7.839 -0.6290 -1.3000  1.6398
   47MOL    C32 9324   2.952   6.971   0.063  0.2135 -0.5526 -0.0870
   47MOL    C33 9325   2.813   7.013   0.018  0.4218 -0.6749  0.3779
   47MOL    C34 9326   2.700   6.941   0.034 -0.4149 -0.2434  0.0706
   47MOL    C35 9327   2.556   6.983   0.016 -0.4763 -0.1636  0.0838
   47MOL    H36 9328   2.933   6.874   0.108 -0.3865  0.1834  1.2479
   47MOL    H37 9329   2.999   7.042   0.130  0.3582 -0.8829  0.1625
   47MOL    H38 9330   2.801   7.110   7.950 -0.7807 -0.4197  1.2134
   47MOL    H39 9331   2.713   6.840   0.068 -2.4897 -1.3833 -2.3474
   47MOL    H40 9332   2.498   6.892   0.033  0.3715 -1.1298 -2.0139
   47MOL    H41 9333   2.537   7.024   7.894 -0.7721 -2.1914 -0.7243
   47MOL    C42 9334   2.520   7.091   0.127  0.7253 -0.1558  0.1290
   47MOL    C43 9335   2.381   7.151   0.107  0.0992  0.4547 -0.5758
   47MOL    C44 9336   2.283   7.146   0.200  0.7649 -0.1584 -0.1944
   47MOL    C45 9337   2.154   7.227   0.210 -0.5402  0.1566  0.0462
   47MOL    H46 9338   2.545   7.046   0.223  1.4549 -1.7197 -0.7727
   47MOL    H47 9339   2.595   7.170   0.129  0.7132 -0.1804  1.9120
   47MOL    H48 9340   2.370   7.196   0.009  0.7928 -1.3514 -1.5128
   47MOL    H49 9341   2.310   7.090   0.288  0.3091 -1.7856 -1.0717
   47MOL    H50 9342   2.075   7.163   0.250  0.6942 -0.2785  1.8406
   47MOL    H51 9343   2.122   7.260   0.111  1.4637 -3.5261 -1.9209
   47MOL    C52 9344   2.162   7.350   0.299 -0.0098  0.2746 -0.8972
   47MOL    C53 9345   2.031   7.405   0.344 -0.9165  0.0872 -0.2456
   47MOL    C54 9346   1.981   7.385   0.465 -0.4032 -0.4514  0.0477
   47MOL    C55 9347   1.844   7.426   0.520  0.0111  0.3719 -0.7183
   47MOL    H56 9348   2.219   7.317   0.386  2.3172  3.2910 -1.2064
   47MOL    H57 9349   2.221   7.425   0.245 -0.1414  0.2831 -1.0269
   47MOL    H58 9350   1.986   7.458   0.261  3.2013  1.6837 -1.6121
   47MOL    H59 9351   2.044   7.331   0.535 -0.0953 -0.5123 -0.2763
   47MOL    H60 9352   1.846   7.487   0.610  0.1050  0.4208 -0.7543
   47MOL    H61 9353   1.799   7.331   0.551  0.5659  0.2365 -0.3283
   47MOL    C62 9354   1.757   7.501   0.419  0.3520  0.7542 -0.0991
   47MOL    C63 9355   1.614   7.539   0.466  0.5043 -0.1081  1.0821
   47MOL    C64 9356   1.565   7.529   0.591  0.5160  0.2985  0.0098
   47MOL    C65 9357   1.427   7.557   0.639  0.6040  0.0639 -0.1602
   47MOL    H66 9358   1.804   7.597   0.396 -0.0363  0.7568 -0.9090
   47MOL    H67 9359   1.753   7.448   0.324 -0.2445  1.1069 -0.2777
   47MOL    H68 9360   1.541   7.561   0.390  0.9941  0.2220  0.7087
   47MOL    H69 9361   1.636   7.500   0.667  1.5593 -0.3748 -1.1963
   47MOL    H70 9362   1.371   7.464   0.653 -2.8806  2.0391 -0.4123
   47MOL    H71 9363   1.372   7.610   0.560 -1.4443 -0.1986  1.0548
   47MOL    C72 9364   1.418   7.646   0.762 -0.4100  0.1615  0.2954
   47MOL    C73 9365   1.461   7.794   0.742 -0.8128  0.3765 -0.4489
   47MOL    C74 9366   1.387   7.898   0.781 -0.5697  0.1252 -0.2351
   47MOL    C75 9367   1.432   0.063   0.758 -0.2467  0.1661 -0.1208
   47MOL    H76 9368   1.316   7.645   0.799 -0.4909 -0.0830  0.0665
   47MOL    H77 9369   1.478   7.595   0.838  1.3794  1.5050 -0.1858
   47MOL    H78 9370   1.556   7.809   0.692 -0.0235 -1.1027  0.5730
   47MOL    H79 9371   1.293   7.878   0.830 -0.6165 -0.4267 -0.5383
   47MOL    H80 9372   1.511   0.071   0.684 -0.6738 -2.7500 -0.9400
   47MOL    H81 9373   1.463   0.093   0.858 -0.2919 -1.2296  0.3276
   47MOL    C82 9374   1.313   0.143   0.700 -0.4249 -0.3647 -1.0144
   47MOL    C83 9375   1.360   0.279   0.643 -0.0559  0.4237 -0.1921
   47MOL    C84 9376   1.335   0.333   0.523  0.2854 -0.2371 -0.3109
   47MOL    C85 9377   1.366   0.470   0.488 -0.3574 -0.5847 -0.6697
   47MOL    H86 9378   1.255   0.096   0.621 -0.6871 -1.4466 -0.1865
   47MOL    H87 9379   1.245   0.169   0.782 -1.0001 -1.0747 -1.2571
   47MOL    H88 9380   1.423   0.340   0.705  1.4000 -2.7865  1.5806
   47MOL    H89 9381   1.273   0.273   0.458 -0.4820  0.4875 -0.2602
   47MOL    H90 9382   1.460   0.467   0.432  0.3553  1.9666  0.3463
   47MOL    H91 9383   1.376   0.527   0.580 -3.5794 -2.1460  0.7173
   47MOL    C92 9384   1.268   0.542   0.400 -0.3891  0.1956  0.3445
   47MOL    C93 9385   1.320   0.683   0.390  0.1101  0.2082 -0.3784
   47MOL    C94 9386   1.240   0.791   0.376  0.2662  0.1807  0.3280
   47MOL    C95 9387   1.296   0.929   0.352  1.0767 -0.6047  0.0330
   47MOL    H96 9388   1.271   0.496   0.301 -1.5006  0.6353  0.1011
   47MOL    H97 9389   1.166   0.544   0.437  0.4290  0.1302  2.6957
   47MOL    H98 9390   1.428   0.687   0.385  0.2267  1.4943  2.0950
   47MOL    H99 9391   1.133   0.774   0.379  0.2050  0.6500  1.1147
   47MOL   H100 9392   1.389   0.928   0.410  0.6971  0.2704  0.6649
   47MOL   H101 9393   1.225   1.002   0.390  1.7166 -0.5285  1.0993
   47MOL   C102 9394   1.324   0.944   0.205 -0.2793  0.5789 -0.4676
   47MOL   C103 9395   1.358   1.085   0.165  0.8093 -0.3424 -0.4005
   47MOL   C104 9396   1.470   1.154   0.193 -0.1608 -0.0273  0.0348
   47MOL   C105 9397   1.507   1.295   0.168 -0.1390  0.0345 -0.5343
   47MOL   H106 9398   1.418   0.891   0.184 -0.8372 -0.6500  0.0788
   47MOL   H107 9399   1.243   0.898   0.149 -0.4586 -0.7627  0.8713
   47MOL   H108 9400   1.279   1.138   0.114  2.1515 -0.3756 -2.5510
   47MOL   H109 9401   1.539   1.095   0.252 -2.4005 -0.5238  2.2415
   47MOL   H110 9402   1.509   1.306   0.060  3.1822  0.0465 -0.5376
   47MOL   H111 9403   1.608   1.313   0.205 -0.2022  0.9520 -0.8060
   47MOL   C112 9404   1.408   1.392   0.237 -0.0639  0.9483  0.6734
   47MOL   C113 9405   1.428   1.532   0.190 -0.4402 -0.1330 -0.2102
   47MOL   C114 9406   1.415   1.631   0.276  0.6479 -0.4308 -0.2903
   47MOL   C115 9407   1.433   1.781   0.245  0.2565  0.4283 -0.6068
   47MOL   H116 9408   1.306   1.364   0.210  0.4136  0.0601 -0.2663
   47MOL   H117 9409   1.398   1.371   0.343  0.3455  2.2708  0.9762
   47MOL   H118 9410   1.440   1.564   0.088 -1.8983  0.9003 -0.0783
   47MOL   H119 9411   1.405   1.599   0.379 -0.4935 -1.3584 -0.6843
   47MOL   H120 9412   1.333   1.822   0.262  1.5175  3.3486 -0.0143
   47MOL   H121 9413   1.467   1.801   0.143 -0.0365  0.3877 -0.7150
   47MOL   C122 9414   1.536   1.842   0.346 -0.3091  0.0815 -0.6671
   47MOL   C123 9415   1.585   1.982   0.310  0.1391  0.1298 -0.3235
   47MOL   C124 9416   1.579   2.088   0.392  0.3183 -0.3564  0.1270
   47MOL   C125 9417   1.652   2.220   0.354  0.7590 -0.2005 -0.1298
   47MOL   H126 9418   1.503   1.836   0.450  0.5559  2.8808 -0.1822
   47MOL   H127 9419   1.624   1.779   0.333 -1.2688 -1.3541 -0.2623
   47MOL   H128 9420   1.639   1.994   0.218 -2.3769  0.9935 -1.7440
   47MOL   H129 9421   1.537   2.075   0.490 -1.6814 -1.1894 -0.8152
   47MOL   H130 9422   1.706   2.203   0.261  2.2232  0.8894  0.5061
   47MOL   H131 9423   1.719   2.238   0.438 -0.3439 -1.8231  1.1250
   47MOL   C132 9424   1.559   2.346   0.339  0.1756 -0.2156 -0.4894
   47MOL   C133 9425   1.635   2.474   0.354  0.1411  0.5604  0.0912
   47MOL   C134 9426   1.625   2.563   0.254  0.2190  0.1572 -0.3003
   47MOL   C135 9427   1.691   2.700   0.265  0.0895 -0.1294 -0.6659
   47MOL   H136 9428   1.504   2.347   0.245 -0.6397  0.4483 -0.0108
   47MOL   H137 9429   1.477   2.349   0.411  0.5066 -1.2654 -0.0696
   47MOL   H138 9430   1.703   2.482   0.438 -0.5540 -3.5968  1.1769
   47MOL   H139 9431   1.559   2.542   0.172 -0.7207  1.7783  0.0177
   47MOL   H140 9432   1.767   2.710   0.188 -2.0598  0.7361 -2.7319
   47MOL   H141 9433   1.740   2.706   0.362 -0.5262 -0.0905 -0.3518
   47MOL   C142 9434   1.580   2.805   0.247 -0.1196  0.0985  0.5218
   47MOL   C143 9435   1.625   2.947   0.230 -0.0119 -0.4409  0.1374
   47MOL   C144 9436   1.593   3.035   0.126  0.0833 -0.3657 -0.5177
   47MOL   C145 9437   1.634   3.183   0.112  0.1995  0.4258 -0.0121
   47MOL   H146 9438   1.523   2.777   0.159  2.2527  3.2943 -2.1648
   47MOL   H147 9439   1.513   2.803   0.333 -0.1742 -2.4903  0.4506
   47MOL   H148 9440   1.690   2.986   0.307 -0.0562 -0.5390  0.2257
   47MOL   H149 9441   1.519   3.005   0.053 -1.4445  0.2106  0.7442
   47MOL   H150 9442   1.630   3.239   0.205 -3.6279  1.4560 -0.7155
   47MOL   H151 9443   1.558   3.235   0.055  0.2089 -0.1619 -0.5665
   47MOL   C152 9444   1.762   3.207   0.037 -0.7611 -0.1050 -1.0699
   47MOL   C153 9445   1.759   3.143   7.873 -0.2057 -0.2697  0.3680
   47MOL   C154 9446   1.758   3.219   7.763 -0.2910  0.0462  0.1947
   47MOL   C155 9447   1.759   3.164   7.619  0.2858 -0.2206 -0.4085
   47MOL   H156 9448   1.786   3.313   0.029  0.6291 -0.2592  0.5515
   47MOL   H157 9449   1.837   3.159   0.101  1.9120  1.9022 -2.6149
   47MOL   H158 9450   1.768   3.036   7.869 -0.6020 -0.2457 -1.2946
   47MOL   H159 9451   1.756   3.326   7.778  1.6395  0.1490 -0.2107
   47MOL   H160 9452   1.680   3.221   7.570 -1.0605 -0.6940  1.1805
   47MOL   H161 9453   1.714   3.065   7.621  1.4185 -0.8502 -3.1529
   47MOL   C162 9454   1.900   3.168   7.551 -0.3703 -0.4492 -0.6132
   47MOL   C163 9455   1.918   3.090   7.430 -0.0664  0.1777  0.5753
   47MOL   C164 9456   1.826   3.045   7.345 -0.5072 -0.3578  0.3878
   47MOL   C165 9457   1.850   2.955   7.222  0.1355 -0.4953  0.7049
   47MOL   H166 9458   1.926   3.270   7.523 -1.0505  0.6098  2.3590
   47MOL   H167 9459   1.985   3.133   7.609  0.8331  1.2266 -1.3406
   47MOL   H168 9460   2.024   3.083   7.410 -0.0734 -0.6709  0.7814
   47MOL   H169 9461   1.727   3.057   7.387 -0.3612 -0.2444  0.7045
   47MOL   H170 9462   1.835   2.849   7.243  2.4490 -1.0214 -0.0524
   47MOL   H171 9463   1.956   2.961   7.194 -0.5835 -2.2645 -2.6068
   47MOL   C172 9464   1.767   3.000   7.105  0.1594 -0.5182  0.3600
   47MOL   C173 9465   1.796   2.912   6.986 -0.0403 -0.4133 -0.6921
   47MOL   C174 9466   1.714   2.888   6.888 -0.3885 -0.2808  0.1717
   47MOL   C175 9467   1.733   2.807   6.764 -0.6100  0.1558  0.2844
   47MOL   H176 9468   1.664   2.982   7.138 -0.2500  1.0888  0.0441
   47MOL   H177 9469   1.780   3.105   7.079 -1.5822  0.0025  1.4888
   47MOL   H178 9470   1.900   2.881   6.980 -0.2106 -1.3401  0.9316
   47MOL   H179 9471   1.613   2.924   6.901  0.2645  0.9739  2.0362
   47MOL   H180 9472   1.683   2.854   6.679 -1.8563  0.9687  1.4472
   47MOL   H181 9473   1.700   2.705   6.783  0.6369  0.0852  2.1997
   47MOL   C182 9474   1.878   2.785   6.715  0.7992 -0.2854  0.1830
   47MOL   C183 9475   1.865   2.711   6.586  0.2380  0.2771 -0.1168
   47MOL   C184 9476   1.912   2.583   6.565  0.2930 -0.1900 -0.0339
   47MOL   C185 9477   1.892   2.505   6.433 -0.4322  0.4153  0.3748
   47MOL   H186 9478   1.928   2.880   6.695 -0.2468  0.2598  0.1106
   47MOL   H187 9479   1.928   2.725   6.791 -1.6612 -0.9444  1.3437
   47MOL   H188 9480   1.811   2.760   6.507 -0.3818 -1.3789 -0.7378
   47MOL   H189 9481   1.962   2.531   6.645  1.1483 -1.0701 -1.1255
   47MOL   H190 9482   1.828   2.564   6.368 -0.3598  0.4968  0.3774
   47MOL   H191 9483   1.837   2.414   6.458 -0.7582  0.3931 -0.4103
   47MOL   C192 9484   2.026   2.461   6.365  0.2798 -0.4115 -0.1740
   47MOL   C193 9485   2.018   2.373   6.239 -0.6939 -0.7071  0.3745
   47MOL   C194 9486   1.908   2.342   6.173 -0.0333  0.2673  0.2012
   47MOL   C195 9487   1.897   2.238   6.063  0.3324 -0.1144 -0.0845
   47MOL   H196 9488   2.071   2.558   6.343 -0.9560 -0.0824 -1.3520
   47MOL   H197 9489   2.086   2.411   6.441 -1.8452 -2.3374  0.2554
   47MOL   H198 9490   2.113   2.332   6.206 -0.4227 -0.5628  0.9528
   47MOL   H199 9491   1.811   2.372   6.210  0.6200  1.2029  1.1884
   47MOL   H200 9492   1.885   2.139   6.106 -1.3806 -1.6167 -3.8709
   47MOL   H201 9493   1.971   2.235   5.983  0.9293  0.2863  0.4366
   47MOL   H202 9494   1.806   2.258   6.008  0.8165 -0.7341 -1.1097
   48MOL     C1 9495   4.572   7.744   4.951  0.0789  0.0035  0.0438
   48MOL     C2 9496   4.505   7.796   5.072 -0.2993  0.3053 -0.6186
   48MOL     C3 9497   4.489   7.928   5.088  0.6186  0.1373  0.0564
   48MOL     C4 9498   4.433   0.011   5.209  0.1508  1.4423 -0.0401
   48MOL     H5 9499   4.679   7.730   4.966  0.5947  3.3334 -0.1231
   48MOL     H6 9500   4.560   7.814   4.869 -1.5511 -0.1115  0.1546
   48MOL     H7 9501   4.482   7.724   5.150  2.9367  0.0526  0.1742
   48MOL     H8 9502   4.525   0.027   5.020  1.6754  0.5550  1.0648
   48MOL     H9 9503   4.523   0.019   5.270 -0.0079  1.7175  0.1526
   48MOL    H10 9504   4.371   7.914   5.259  1.7158  1.8769  2.6427
   48MOL    H11 9505   4.529   7.649   4.920  0.3024 -0.3209  0.7113
   48MOL    C12 9506   4.343   0.128   5.177 -0.5697 -0.1427  0.7352
   48MOL    C13 9507   4.269   0.189   5.297 -0.4408 -0.1506  0.1736
   48MOL    C14 9508   4.276   0.320   5.333  0.2211  0.2659 -0.0246
   48MOL    C15 9509   4.213   0.379   5.456  0.0255 -1.0781 -0.4902
   48MOL    H16 9510   4.402   0.205   5.127 -1.3025  0.3918  0.7022
   48MOL    H17 9511   4.274   0.088   5.103  1.2283 -2.1660  0.0834
   48MOL    H18 9512   4.196   0.129   5.350 -2.6437 -0.0037 -2.5551
   48MOL    H19 9513   4.358   0.374   5.287  0.0406  1.5550  1.1417
   48MOL    H20 9514   4.210   0.301   5.532 -0.7006 -1.0960 -0.5366
   48MOL    H21 9515   4.108   0.401   5.435  0.3613 -1.5697 -2.8712
   48MOL    C22 9516   4.293   0.501   5.507  0.2474 -0.9862 -0.0101
   48MOL    C23 9517   4.299   0.621   5.415 -0.0412 -0.1557  0.3304
   48MOL    C24 9518   4.257   0.741   5.451  0.2529 -0.2123  0.6115
   48MOL    C25 9519   4.274   0.873   5.379  0.1793 -0.0883 -0.7223
   48MOL    H26 9520   4.256   0.533   5.604  1.4730 -0.5840  0.3224
   48MOL    H27 9521   4.399   0.485   5.527 -0.2683 -1.5329  2.4290
   48MOL    H28 9522   4.330   0.597   5.314 -0.4441  1.8309 -0.2832
   48MOL    H29 9523   4.232   0.757   5.555 -0.7469  0.6795  0.2332
   48MOL    H30 9524   4.184   0.927   5.409 -0.8224 -1.9622 -0.2610
   48MOL    H31 9525   4.257   0.865   5.272 -1.2751 -2.0060 -0.3881
   48MOL    C32 9526   4.400   0.956   5.417  0.9171  0.0770  0.6236
   48MOL    C33 9527   4.527   0.868   5.394  0.7985 -0.3564  0.0067
   48MOL    C34 9528   4.618   0.833   5.482 -0.2120  0.1864  0.5864
   48MOL    C35 9529   4.727   0.737   5.450 -1.0274  0.7888  0.1780
   48MOL    H36 9530   4.406   1.044   5.352  0.0894 -0.4154 -0.1382
   48MOL    H37 9531   4.384   0.991   5.519  1.2219  0.9001  0.3959
   48MOL    H38 9532   4.536   0.820   5.298  0.6148  0.6242 -0.5092
   48MOL    H39 9533   4.620   0.891   5.573  0.1213 -0.5546  1.0569
   48MOL    H40 9534   4.803   0.771   5.521  0.5695 -0.3596 -0.9510
   48MOL    H41 9535   4.768   0.751   5.350  3.0773 -0.1017  1.6307
   48MOL    C42 9536   4.700   0.588   5.470 -0.1802 -0.4907 -0.0067
   48MOL    C43 9537   4.822   0.501   5.434  0.0682 -0.7805 -0.0836
   48MOL    C44 9538   4.817   0.390   5.361 -0.5079  0.3327  0.3272
   48MOL    C45 9539   4.931   0.293   5.351  0.1436  0.4014 -0.4254
   48MOL    H46 9540   4.678   0.575   5.576  0.1766  1.9345  0.3904
   48MOL    H47 9541   4.609   0.549   5.424  0.3344  0.1995 -1.6478
   48MOL    H48 9542   4.909   0.538   5.486 -0.6504  0.6542  0.1285
   48MOL    H49 9543   4.727   0.353   5.313  0.0955  0.1472 -0.6710
   48MOL    H50 9544   5.032   0.334   5.348  0.3737 -0.1579 -0.4329
   48MOL    H51 9545   4.913   0.248   5.253 -0.1515  0.7075 -0.5117
   48MOL    C52 9546   4.917   0.185   5.462 -0.4001 -0.2107  0.7165
   48MOL    C53 9547   5.050   0.102   5.467  0.8191  0.6912 -0.5895
   48MOL    C54 9548   5.129   0.104   5.577  0.0474  0.0532 -0.2461
   48MOL    C55 9549   5.262   0.039   5.590 -0.0898 -0.7456 -0.6281
   48MOL    H56 9550   4.892   0.227   5.559 -0.9728  0.0020  0.4743
   48MOL    H57 9551   4.847   0.108   5.430  0.2920  0.1367 -1.7305
   48MOL    H58 9552   5.085   0.047   5.381  1.5337  0.4139 -0.1320
   48MOL    H59 9553   5.098   0.166   5.659 -0.6330  2.0304 -1.9442
   48MOL    H60 9554   5.324   0.128   5.603  0.9217 -1.7795  1.8486
   48MOL    H61 9555   5.294   7.972   5.495 -0.4748  1.0238 -1.6055
   48MOL    C62 9556   5.274   7.915   5.712  0.4062  0.1112 -0.6330
   48MOL    C63 9557   5.397   7.833   5.687  0.2178  0.4059 -0.2420
   48MOL    C64 9558   5.422   7.699   5.709  0.1266 -0.4642  0.9099
   48MOL    C65 9559   5.549   7.628   5.681  0.0343  0.5609 -0.8357
   48MOL    H66 9560   5.292   7.957   5.811  3.0447  1.5791 -1.6827
   48MOL    H67 9561   5.192   7.846   5.733  0.3155  1.0712  2.3546
   48MOL    H68 9562   5.482   7.880   5.641  1.2671 -2.2309 -1.0642
   48MOL    H69 9563   5.341   7.639   5.747  0.2309 -0.6892  0.7764
   48MOL    H70 9564   5.610   7.690   5.616 -0.3615  0.0694 -1.6886
   48MOL    H71 9565   5.546   7.530   5.633  0.4347 -1.0898  2.3457
   48MOL    C72 9566   5.629   7.619   5.811 -0.2963  0.4344  0.5395
   48MOL    C73 9567   5.758   7.538   5.799  0.0091  0.3838  0.7579
   48MOL    C74 9568   5.868   7.561   5.861 -0.1777 -0.0274 -0.0142
   48MOL    C75 9569   5.996   7.487   5.839  0.1951 -0.2429 -0.2594
   48MOL    H76 9570   5.647   7.724   5.835 -0.2896  0.8200 -1.1026
   48MOL    H77 9571   5.565   7.581   5.890 -0.7730  0.3025  0.0955
   48MOL    H78 9572   5.765   7.470   5.715  2.8425  0.5400  0.8228
   48MOL    H79 9573   5.874   7.630   5.944  1.9268  2.2935 -2.0367
   48MOL    H80 9574   5.991   7.416   5.757 -1.2735 -1.1886  0.6350
   48MOL    H81 9575   6.009   7.446   5.939 -0.1450  0.4025  0.0506
   48MOL    C82 9576   6.108   7.595   5.815 -0.5163  0.1393 -0.9190
   48MOL    C83 9577   6.244   7.534   5.815  0.0904 -0.2389 -1.3803
   48MOL    C84 9578   6.278   7.405   5.799  0.7021 -0.3663  0.1192
   48MOL    C85 9579   6.431   7.372   5.805 -0.0241  0.2040 -0.4750
   48MOL    H86 9580   6.088   7.632   5.715 -0.1759  0.7386 -0.7654
   48MOL    H87 9581   6.106   7.683   5.878  0.1106  0.0284 -0.7370
   48MOL    H88 9582   6.317   7.614   5.815  2.6936 -2.5590 -0.6710
   48MOL    H89 9583   6.201   7.330   5.796 -1.1986  1.4793  1.3853
   48MOL    H90 9584   6.498   7.456   5.820  2.0199 -1.6461  1.0743
   48MOL    H91 9585   6.451   7.322   5.710 -0.7505 -0.6118 -0.2051
   48MOL    C92 9586   6.464   7.264   5.904 -0.2054  0.9355 -1.4862
   48MOL    C93 9587   6.600   7.195   5.885  0.4576 -0.7806 -0.5868
   48MOL    C94 9588   6.600   7.064   5.868 -0.0042  0.1574 -0.0852
   48MOL    C95 9589   6.726   6.984   5.863 -0.1334  0.0738  0.0018
   48MOL    H96 9590   6.456   7.303   6.006 -1.9737 -0.0164 -1.2487
   48MOL    H97 9591   6.379   7.195   5.906 -2.9215  4.1958  0.4476
   48MOL    H98 9592   6.683   7.259   5.912 -2.0899  2.1464  0.5242
   48MOL    H99 9593   6.510   7.009   5.845 -2.2364  3.4097  0.5221
   48MOL   H100 9594   6.821   7.034   5.884 -0.8067  1.3391  0.0160
   48MOL   H101 9595   6.732   6.947   5.760  0.7448 -1.9225  0.7283
   48MOL   C102 9596   6.705   6.869   5.962 -0.0631  0.0442  0.0306
   48MOL   C103 9597   6.627   6.753   5.902 -0.3321 -0.0277 -0.2304
   48MOL   C104 9598   6.507   6.718   5.951 -0.3361  0.0602 -0.6697
   48MOL   C105 9599   6.427   6.597   5.906 -0.5250  0.2210  0.2076
   48MOL   H106 9600   6.797   6.825   6.001 -1.3789 -1.2410  1.7832
   48MOL   H107 9601   6.658   6.895   6.057  2.6012 -0.7301  1.6027
   48MOL   H108 9602   6.673   6.692   5.826 -1.3034  1.9731 -2.4686
   48MOL   H109 9603   6.455   6.766   6.032  2.4189 -0.8102  1.7040
   48MOL   H110 9604   6.488   6.550   5.829 -1.0901 -1.6508  0.8888
   48MOL   H111 9605   6.333   6.643   5.874 -0.6228  0.0400  0.2378
   48MOL   C112 9606   6.406   6.500   6.033 -0.4043  0.5193  0.2305
   48MOL   C113 9607   6.341   6.370   5.993  0.2428 -0.0284 -0.2634
   48MOL   C114 9608   6.225   6.326   6.047  0.0497  0.2998 -0.6353
   48MOL   C115 9609   6.152   6.196   6.010 -0.5385 -0.4443 -0.8514
   48MOL   H116 9610   6.495   6.479   6.091 -1.5364 -2.2230  1.0591
   48MOL   H117 9611   6.344   6.552   6.107 -1.1227 -0.1298  0.0956
   48MOL   H118 9612   6.397   6.306   5.926  0.3563 -0.9142  0.6625
   48MOL   H119 9613   6.180   6.395   6.117  0.0664  1.3372 -1.6286
   48MOL   H120 9614   6.191   6.139   5.926  0.7538  0.5540 -0.9464
   48MOL   H121 9615   6.057   6.237   5.975 -1.7887 -3.3521 -0.9500
   48MOL   C122 9616   6.121   6.110   6.134  0.2196  0.2647 -0.0743
   48MOL   C123 9617   5.999   6.174   6.212  0.4751 -0.2964 -0.5558
   48MOL   C124 9618   5.887   6.106   6.235  0.0247  0.4638  0.0816
   48MOL   C125 9619   5.762   6.160   6.299  0.2422  0.0359  0.3707
   48MOL   H126 9620   6.086   6.012   6.100 -1.6222  1.0399 -0.4991
   48MOL   H127 9621   6.205   6.095   6.201 -1.7448  2.5457  3.0657
   48MOL   H128 9622   6.007   6.280   6.233 -1.3667 -0.3179  0.3017
   48MOL   H129 9623   5.880   6.003   6.204 -0.3213 -0.1738  2.1477
   48MOL   H130 9624   5.778   6.174   6.406 -1.6505  1.4473  0.5024
   48MOL   H131 9625   5.693   6.078   6.280  1.6172 -0.9097 -0.5690
   48MOL   C132 9626   5.713   6.284   6.228  0.3101 -0.1903 -0.2398
   48MOL   C133 9627   5.574   6.329   6.261 -0.4252  0.3162 -0.4621
   48MOL   C134 9628   5.466   6.310   6.181 -0.5656  0.1845 -0.4937
   48MOL   C135 9629   5.332   6.370   6.202  0.2688 -0.1987 -0.3205
   48MOL   H136 9630   5.768   6.373   6.257  0.5773 -0.5521  0.3787
   48MOL   H137 9631   5.712   6.280   6.119 -1.1173 -0.5110 -0.2282
   48MOL   H138 9632   5.557   6.381   6.354  1.4182  0.0221  0.0736
   48MOL   H139 9633   5.477   6.245   6.096  1.4311 -0.8545  0.5172
   48MOL   H140 9634   5.319   6.421   6.297  0.4334 -2.4128  0.9013
   48MOL   H141 9635   5.265   6.286   6.218 -0.4743  0.6733  1.3114
   48MOL   C142 9636   5.292   6.451   6.077 -0.4922 -0.0606  0.2027
   48MOL   C143 9637   5.154   6.519   6.095 -0.3850  0.4630 -0.8789
   48MOL   C144 9638   5.045   6.506   6.017  0.1109 -0.1843  0.2439
   48MOL   C145 9639   4.924   6.595   6.025 -0.5118  0.2365  0.4742
   48MOL   H146 9640   5.377   6.513   6.049 -1.2707  0.3758 -1.2418
   48MOL   H147 9641   5.288   6.379   5.995 -0.3114  2.7741 -2.3994
   48MOL   H148 9642   5.161   6.577   6.186  0.1655 -0.8109 -0.0874
   48MOL   H149 9643   5.059   6.437   5.935 -0.3908 -0.6272  0.5327
   48MOL   H150 9644   4.902   6.622   5.921 -1.7218 -0.9368  0.4109
   48MOL   H151 9645   4.948   6.692   6.068  1.5973  0.2505 -0.6954
   48MOL   C152 9646   4.802   6.532   6.095 -0.6247  0.1017  0.1517
   48MOL   C153 9647   4.694   6.621   6.065  0.1610 -0.3890  0.2848
   48MOL   C154 9648   4.585   6.589   5.993 -0.1400 -0.0878  0.3362
   48MOL   C155 9649   4.482   6.681   5.946 -0.2125 -0.1145 -0.9281
   48MOL   H156 9650   4.780   6.437   6.047 -0.4770  0.5403 -0.7945
   48MOL   H157 9651   4.823   6.507   6.199 -1.2920 -2.6733 -0.3516
   48MOL   H158 9652   4.701   6.722   6.103 -0.4573 -0.9766  1.9752
   48MOL   H159 9653   4.568   6.491   5.951  1.7585 -1.4559  2.6340
   48MOL   H160 9654   4.468   6.668   5.838  0.6779  2.8734 -1.4311
   48MOL   H161 9655   4.517   6.782   5.965  2.2036 -1.1406  0.2378
   48MOL   C162 9656   4.345   6.683   6.013  0.2975 -1.0039 -0.5384
   48MOL   C163 9657   4.278   6.553   5.995  0.1250 -0.2283  0.1326
   48MOL   C164 9658   4.216   6.498   6.095  0.2867 -0.1140 -0.3826
   48MOL   C165 9659   4.123   6.382   6.083 -1.1097 -0.7394 -0.4273
   48MOL   H166 9660   4.353   6.718   6.116  0.6119  0.0638 -0.9295
   48MOL   H167 9661   4.287   6.765   5.973  1.5183 -0.2651 -0.8067
   48MOL   H168 9662   4.267   6.521   5.893  1.4467 -0.3521  0.0284
   48MOL   H169 9663   4.213   6.546   6.192 -1.3871  1.8507 -1.3734
   48MOL   H170 9664   4.068   6.393   5.990  0.2808  2.0875 -0.9561
   48MOL   H171 9665   4.049   6.405   6.160 -2.1636 -0.3720 -1.5236
   48MOL   C172 9666   4.194   6.245   6.088 -0.2208 -0.3823  0.4433
   48MOL   C173 9667   4.102   6.121   6.062  0.2635  0.0376 -0.4839
   48MOL   C174 9668   4.087   6.022   6.149 -0.6245  0.6720  0.4756
   48MOL   C175 9669   4.010   5.897   6.129  0.2410  0.3768 -0.5864
   48MOL   H176 9670   4.276   6.239   6.015  1.0029  0.7866  1.6994
   48MOL   H177 9671   4.248   6.232   6.181 -0.4759  1.6369  0.9018
   48MOL   H178 9672   4.045   6.127   5.971 -1.3791 -0.5095  0.4795
   48MOL   H179 9673   4.147   6.043   6.236 -1.5993  1.4880  0.9520
   48MOL   H180 9674   4.059   5.831   6.057 -0.1631  0.4474 -0.9267
   48MOL   H181 9675   3.910   5.921   6.093 -0.3724 -0.0942  0.7836
   48MOL   C182 9676   3.993   5.821   6.266  0.3414 -0.8843 -0.3493
   48MOL   C183 9677   4.123   5.773   6.322  0.0161 -0.1191  0.3466
   48MOL   C184 9678   4.159   5.647   6.334  0.4578  0.1348  0.1650
   48MOL   C185 9679   4.293   5.610   6.386 -0.1206  0.0834 -0.5079
   48MOL   H186 9680   3.938   5.877   6.342 -1.0676 -0.7592 -1.4478
   48MOL   H187 9681   3.927   5.736   6.251 -1.4817  0.8076 -2.2306
   48MOL   H188 9682   4.188   5.853   6.353  0.4470 -0.3901  0.1351
   48MOL   H189 9683   4.096   5.564   6.304  4.1534 -2.0470 -1.8214
   48MOL   H190 9684   4.352   5.702   6.390 -1.8702  1.2331 -0.5136
   48MOL   H191 9685   4.335   5.540   6.313 -0.7751 -0.1298 -0.6807
   48MOL   C192 9686   4.285   5.543   6.519 -0.2838  0.6477 -0.1621
   48MOL   C193 9687   4.415   5.525   6.593 -0.1757  0.2609 -0.9242
   48MOL   C194 9688   4.447   5.559   6.716  0.3313 -0.2302 -0.0078
   48MOL   C195 9689   4.575   5.531   6.781 -0.5769  0.0771 -0.1979
   48MOL   H196 9690   4.206   5.579   6.584  0.7198  0.1441  1.3638
   48MOL   H197 9691   4.254   5.438   6.513 -0.2808  0.7633 -3.1022
   48MOL   H198 9692   4.488   5.466   6.540  1.1314  0.5713  0.4907
   48MOL   H199 9693   4.372   5.603   6.781  0.2381  1.2240 -1.0726
   48MOL   H200 9694   4.613   5.624   6.824 -1.7127 -0.9153  3.0675
   48MOL   H201 9695   4.650   5.481   6.720  1.0500  0.5793  1.3358
   48MOL   H202 9696   4.553   5.469   6.867 -1.4592 -0.1969 -0.6141
   49MOL     C1 9697   2.388   0.692   2.824  0.1773 -0.2779  0.3995
   49MOL     C2 9698   2.529   0.645   2.773 -0.3462  0.2722 -0.2502
   49MOL     C3 9699   2.640   0.640   2.849  0.5585 -0.5142  0.1805
   49MOL     C4 9700   2.779   0.603   2.799  0.1234 -0.5448 -0.0511
   49MOL     H5 9701   2.311   0.622   2.793 -1.0903  0.5002  1.7190
   49MOL     H6 9702   2.365   0.789   2.780  1.1871  0.4082  1.3504
   49MOL     H7 9703   2.551   0.637   2.668  0.6572 -1.0062  0.0518
   49MOL     H8 9704   2.633   0.658   2.955  2.4521 -0.0158  0.2313
   49MOL     H9 9705   2.775   0.585   2.691  1.4744 -1.6390  0.0810
   49MOL    H10 9706   2.806   0.505   2.837 -0.9379 -1.1810 -0.8854
   49MOL    H11 9707   2.391   0.711   2.931  0.0037  1.2785  0.1331
   49MOL    C12 9708   2.877   0.702   2.850 -0.4027 -0.3082  0.8620
   49MOL    C13 9709   3.017   0.648   2.840 -0.7801  0.0791  0.2157
   49MOL    C14 9710   3.107   0.704   2.759  0.1761  0.5773  0.0321
   49MOL    C15 9711   3.253   0.671   2.749 -0.3091  0.1513 -0.6867
   49MOL    H16 9712   2.862   0.801   2.808 -0.2126 -0.0204  1.4629
   49MOL    H17 9713   2.862   0.721   2.957  0.6030  0.2148  0.9079
   49MOL    H18 9714   3.047   0.557   2.889  2.3401  0.6430 -0.5453
   49MOL    H19 9715   3.084   0.802   2.720 -1.2546 -0.2617 -1.3008
   49MOL    H20 9716   3.267   0.636   2.646  1.1268  0.2553 -0.5330
   49MOL    H21 9717   3.274   0.584   2.811  3.3590 -0.1962 -2.2873
   49MOL    C22 9718   3.343   0.785   2.778  0.6188  0.3382  0.1036
   49MOL    C23 9719   3.378   0.870   2.658  0.3405  0.0351  0.1634
   49MOL    C24 9720   3.372   1.002   2.656  0.3033  0.2524 -0.4236
   49MOL    C25 9721   3.415   1.079   2.531  0.0799  0.2935  0.6193
   49MOL    H26 9722   3.299   0.841   2.861  0.5823 -1.3089  1.2128
   49MOL    H27 9723   3.443   0.752   2.806  0.2808  1.5982  2.9738
   49MOL    H28 9724   3.418   0.815   2.575 -0.4966  1.8464 -1.4747
   49MOL    H29 9725   3.328   1.057   2.737 -2.4451 -1.4665 -0.6940
   49MOL    H30 9726   3.325   1.124   2.489 -0.7195 -1.9087 -0.1261
   49MOL    H31 9727   3.451   1.018   2.448 -0.8110 -1.9328  1.8434
   49MOL    C32 9728   3.532   1.179   2.563  0.2931  0.8210 -0.3520
   49MOL    C33 9729   3.492   1.275   2.676  0.4167  0.5146 -0.0407
   49MOL    C34 9730   3.461   1.403   2.652  0.2835  0.4633 -0.3255
   49MOL    C35 9731   3.431   1.509   2.759  0.2059 -0.0306  0.0299
   49MOL    H36 9732   3.622   1.127   2.597  1.0385  1.9883 -0.5009
   49MOL    H37 9733   3.573   1.235   2.478  0.6589 -0.6045 -1.1267
   49MOL    H38 9734   3.494   1.241   2.779  2.9337  1.5262  0.2934
   49MOL    H39 9735   3.451   1.436   2.550  1.4552  1.6991 -0.0602
   49MOL    H40 9736   3.390   1.455   2.845 -1.2455 -0.6432 -1.0309
   49MOL    H41 9737   3.340   1.557   2.724  2.0547  2.0992 -1.9586
   49MOL    C42 9738   3.549   1.605   2.780 -0.5543  0.5860  0.2264
   49MOL    C43 9739   3.538   1.693   2.898 -0.1969 -0.5965 -0.0815
   49MOL    C44 9740   3.548   1.825   2.902  0.1986 -0.3115 -0.4669
   49MOL    C45 9741   3.533   1.903   3.027 -0.2060  0.1896  0.1113
   49MOL    H46 9742   3.640   1.548   2.799 -0.6009  0.0603 -1.0697
   49MOL    H47 9743   3.566   1.672   2.696 -0.3652  2.5626  1.7958
   49MOL    H48 9744   3.499   1.638   2.983  3.0264 -1.6397  0.8042
   49MOL    H49 9745   3.567   1.883   2.813  3.3314 -1.2861 -0.4976
   49MOL    H50 9746   3.515   1.835   3.110 -0.0353 -0.6621 -0.5349
   49MOL    H51 9747   3.434   1.947   3.019  0.1758  0.6526 -2.7586
   49MOL    C52 9748   3.641   2.011   3.035  0.0131 -0.7243  0.2028
   49MOL    C53 9749   3.615   2.109   3.154 -0.4316 -0.0109  0.2529
   49MOL    C54 9750   3.610   2.243   3.146  0.0462  0.0179 -0.7820
   49MOL    C55 9751   3.593   2.333   3.269  0.3705 -0.8958  0.4756
   49MOL    H56 9752   3.733   1.960   3.062  0.7066  1.2344  1.6508
   49MOL    H57 9753   3.666   2.064   2.944  0.3321  0.9334  1.2379
   49MOL    H58 9754   3.603   2.074   3.256 -3.0246  0.8324  0.2880
   49MOL    H59 9755   3.611   2.289   3.048 -0.6501  0.7947 -0.4204
   49MOL    H60 9756   3.614   2.274   3.359  0.2182  1.5548  2.1891
   49MOL    H61 9757   3.488   2.365   3.271  1.1931  1.9656  0.4641
   49MOL    C62 9758   3.703   2.443   3.268 -0.3521  0.2477 -0.3593
   49MOL    C63 9759   3.736   2.495   3.401 -0.3126  0.1156  0.0829
   49MOL    C64 9760   3.849   2.476   3.471 -0.6454  0.7167 -0.7279
   49MOL    C65 9761   3.854   2.525   3.615  0.1065  0.2943  0.0759
   49MOL    H66 9762   3.791   2.393   3.228  0.3409  0.9205  0.2965
   49MOL    H67 9763   3.696   2.535   3.209  0.9332  1.1152  0.7813
   49MOL    H68 9764   3.658   2.546   3.456 -0.3517 -1.3059  1.3819
   49MOL    H69 9765   3.936   2.429   3.428 -0.0075  0.7723  0.4710
   49MOL    H70 9766   3.863   2.433   3.672  2.1683  0.8301  0.6777
   49MOL    H71 9767   3.763   2.571   3.653 -0.9414 -0.2118 -1.7757
   49MOL    C72 9768   3.981   2.596   3.651 -0.3477 -0.1178 -0.2245
   49MOL    C73 9769   3.988   2.634   3.805 -0.1178  0.8442  0.1202
   49MOL    C74 9770   3.895   2.600   3.890  0.5085  0.0836 -0.1594
   49MOL    C75 9771   3.906   2.636   4.036  0.0794  0.1295  0.8226
   49MOL    H76 9772   4.061   2.527   3.624  0.6864  1.2187 -0.6559
   49MOL    H77 9773   3.987   2.690   3.596 -2.5670  0.0794 -0.1540
   49MOL    H78 9774   4.081   2.676   3.843 -0.6473 -0.0480  2.4835
   49MOL    H79 9775   3.799   2.560   3.861  0.1186  2.2994 -2.0839
   49MOL    H80 9776   3.849   2.729   4.043 -0.6025 -0.3756  1.9994
   49MOL    H81 9777   4.009   2.662   4.061 -0.0508  0.0927  1.3873
   49MOL    C82 9778   3.850   2.535   4.139 -0.3860  0.2702  0.4418
   49MOL    C83 9779   3.834   2.615   4.267 -0.2197  0.4328 -0.0437
   49MOL    C84 9780   3.893   2.592   4.388 -0.1060 -0.0152  0.9404
   49MOL    C85 9781   3.881   2.675   4.515 -0.6685  0.5732  0.0701
   49MOL    H86 9782   3.759   2.478   4.118 -0.7230  0.6425  0.8544
   49MOL    H87 9783   3.931   2.464   4.155 -1.4456 -0.8587  0.8931
   49MOL    H88 9784   3.754   2.686   4.258 -0.1801  0.7145  1.6764
   49MOL    H89 9785   3.962   2.509   4.391 -1.6440 -1.3162  1.0326
   49MOL    H90 9786   3.797   2.744   4.504 -1.6898  0.1389  4.1464
   49MOL    H91 9787   3.970   2.737   4.513  0.6914 -1.3482 -1.0648
   49MOL    C92 9788   3.842   2.606   4.649  0.0161 -0.6137  0.0564
   49MOL    C93 9789   3.909   2.665   4.773  0.2346 -0.2178  0.4670
   49MOL    C94 9790   3.835   2.722   4.869 -0.1026 -0.8373  0.3636
   49MOL    C95 9791   3.881   2.780   5.002  0.0453  0.7077  0.0996
   49MOL    H96 9792   3.734   2.613   4.656  0.0730 -0.4735  0.8750
   49MOL    H97 9793   3.875   2.503   4.656  2.0103  0.0339  0.5911
   49MOL    H98 9794   4.015   2.653   4.788  1.0236 -0.0184 -4.2239
   49MOL    H99 9795   3.729   2.729   4.850  0.0624  2.7862  0.3156
   49MOL   H100 9796   3.897   2.694   5.067 -0.3467  0.9742  0.5525
   49MOL   H101 9797   3.805   2.847   5.042  2.6279  2.7971  1.6697
   49MOL   C102 9798   4.014   2.847   4.995  0.2222  1.0271 -0.2582
   49MOL   C103 9799   4.011   2.949   4.880 -0.4598 -0.2574 -0.0880
   49MOL   C104 9800   4.038   3.080   4.893 -0.4544 -0.4404  0.4385
   49MOL   C105 9801   4.038   3.179   4.782 -0.2530  0.1236 -0.0604
   49MOL   H106 9802   4.028   2.901   5.088 -2.6763 -0.2967  0.9969
   49MOL   H107 9803   4.093   2.771   4.992 -1.4808 -0.7918  0.1586
   49MOL   H108 9804   3.999   2.905   4.782  0.0202  0.9520 -0.7020
   49MOL   H109 9805   4.079   3.113   4.987 -0.1204 -0.5839  0.3412
   49MOL   H110 9806   3.984   3.138   4.697  0.2720  0.0871 -0.3744
   49MOL   H111 9807   4.143   3.177   4.752  0.5184  2.7910  2.2242
   49MOL   C112 9808   3.991   3.322   4.818 -0.0947  0.2709 -0.1272
   49MOL   C113 9809   3.991   3.425   4.708  0.7426 -0.3296 -0.1160
   49MOL   C114 9810   3.888   3.462   4.632 -0.0435 -0.4521  0.3802
   49MOL   C115 9811   3.889   3.577   4.534  0.6302 -0.5673  0.9518
   49MOL   H116 9812   3.891   3.306   4.857 -0.5928  2.4952 -0.4121
   49MOL   H117 9813   4.047   3.372   4.897 -0.9012  1.3806 -0.2357
   49MOL   H118 9814   4.074   3.494   4.702  0.6243 -0.2153 -0.4266
   49MOL   H119 9815   3.796   3.408   4.649  0.3482 -1.2634 -0.0316
   49MOL   H120 9816   3.853   3.535   4.440 -0.6607  1.4296  0.5056
   49MOL   H121 9817   3.986   3.622   4.515 -0.6859  1.7776 -0.5771
   49MOL   C122 9818   3.803   3.687   4.591  0.3427  0.3775  0.2260
   49MOL   C123 9819   3.646   3.662   4.620  0.0421 -0.5631  0.1081
   49MOL   C124 9820   3.575   3.560   4.569 -0.5454 -0.1965  0.2725
   49MOL   C125 9821   3.426   3.532   4.602 -0.8525 -0.1715 -0.2203
   49MOL   H126 9822   3.843   3.718   4.687  2.4912 -0.4573 -0.3650
   49MOL   H127 9823   3.814   3.772   4.524  0.0280 -0.0078 -0.3247
   49MOL   H128 9824   3.594   3.744   4.668  0.2787  0.5361 -1.4773
   49MOL   H129 9825   3.629   3.486   4.511  1.9263  1.5887  0.2221
   49MOL   H130 9826   3.392   3.619   4.658  2.1990  0.2388  1.0475
   49MOL   H131 9827   3.416   3.444   4.666 -0.6212  1.0132  1.4718
   49MOL   C132 9828   3.351   3.512   4.465  0.3343 -0.2112  0.3745
   49MOL   C133 9829   3.334   3.632   4.375  0.1642 -0.0470  0.3332
   49MOL   C134 9830   3.324   3.629   4.243 -0.0939 -0.6263  0.3404
   49MOL   C135 9831   3.325   3.754   4.159  0.1442 -0.8598 -0.9625
   49MOL   H136 9832   3.376   3.429   4.399 -0.5541  0.4502 -0.8164
   49MOL   H137 9833   3.248   3.483   4.489 -0.2033  0.2986 -1.2346
   49MOL   H138 9834   3.335   3.734   4.410 -0.8402 -0.4239  1.4931
   49MOL   H139 9835   3.326   3.533   4.194  1.4928 -1.5395  2.1409
   49MOL   H140 9836   3.255   3.831   4.193 -0.3228 -0.6819 -2.3004
   49MOL   H141 9837   3.276   3.734   4.063 -0.5075 -0.9997 -0.6024
   49MOL   C142 9838   3.459   3.823   4.136 -0.6580  0.4169  0.0362
   49MOL   C143 9839   3.538   3.864   4.256  0.4173  1.2264 -0.2479
   49MOL   C144 9840   3.574   3.990   4.273  0.5694  0.2950 -0.3263
   49MOL   C145 9841   3.646   4.029   4.397  0.0578  0.2155 -0.1513
   49MOL   H146 9842   3.525   3.752   4.084  3.4567  2.3369  2.3490
   49MOL   H147 9843   3.458   3.905   4.065 -1.8597  0.5060  0.1604
   49MOL   H148 9844   3.566   3.787   4.327  0.2817 -0.1157 -1.6171
   49MOL   H149 9845   3.544   4.059   4.196 -0.9385 -2.3350 -2.1938
   49MOL   H150 9846   3.731   4.082   4.355  1.3990 -1.5832  0.2177
   49MOL   H151 9847   3.679   3.936   4.443  0.9550  1.7796  2.4034
   49MOL   C152 9848   3.565   4.108   4.490  0.6689 -0.3321 -0.3627
   49MOL   C153 9849   3.490   4.022   4.594  0.2537  0.1071  0.5722
   49MOL   C154 9850   3.468   4.044   4.725  0.4741  0.4717 -0.1476
   49MOL   C155 9851   3.375   3.955   4.803  0.8888 -0.7344 -0.3644
   49MOL   H156 9852   3.629   4.172   4.551 -0.1003 -1.0749  1.2624
   49MOL   H157 9853   3.494   4.172   4.438  1.3604  0.8061  0.0675
   49MOL   H158 9854   3.422   3.950   4.551  0.9011 -0.6494  0.7867
   49MOL   H159 9855   3.527   4.119   4.775  0.0881  2.3781 -2.4515
   49MOL   H160 9856   3.338   3.867   4.750 -0.8994  0.7689 -1.6898
   49MOL   H161 9857   3.286   4.015   4.820 -0.6376 -2.5925 -1.5258
   49MOL   C162 9858   3.425   3.906   4.940  0.1229  0.3732  0.0864
   49MOL   C163 9859   3.513   3.781   4.923  0.2187  0.0491  0.1963
   49MOL   C164 9860   3.637   3.767   4.979  0.1240  0.2809 -0.5074
   49MOL   C165 9861   3.706   3.635   4.959 -0.2160 -0.4801 -0.3764
   49MOL   H166 9862   3.478   3.985   4.994  1.7517  0.8116 -2.1004
   49MOL   H167 9863   3.342   3.869   5.000  0.2710 -1.1661 -0.6500
   49MOL   H168 9864   3.462   3.695   4.883 -0.4484  0.3170  0.4783
   49MOL   H169 9865   3.689   3.850   5.023 -1.0239  0.7252  0.0375
   49MOL   H170 9866   3.798   3.653   4.904 -0.2725  0.9867 -0.0143
   49MOL   H171 9867   3.645   3.564   4.903 -0.0620  0.5496 -1.8915
   49MOL   C172 9868   3.774   3.567   5.078 -0.1469  0.0138  0.3675
   49MOL   C173 9869   3.686   3.523   5.196 -0.3387  0.9006 -0.5580
   49MOL   C174 9870   3.715   3.545   5.325  0.3763  0.7049 -0.2407
   49MOL   C175 9871   3.626   3.492   5.431  0.1158  0.3406 -1.0783
   49MOL   H176 9872   3.833   3.482   5.043  0.8927  0.8053  0.1716
   49MOL   H177 9873   3.843   3.637   5.125 -0.9703 -0.0091  1.6377
   49MOL   H178 9874   3.598   3.469   5.167  1.4510 -1.7648 -1.2379
   49MOL   H179 9875   3.815   3.582   5.345  0.5252 -0.4150  1.1668
   49MOL   H180 9876   3.672   3.400   5.466 -0.0223 -0.0189 -1.8326
   49MOL   H181 9877   3.531   3.459   5.390 -0.3442 -1.2193  1.1409
   49MOL   C182 9878   3.607   3.597   5.544  0.4362  0.4441  0.7295
   49MOL   C183 9879   3.534   3.549   5.663  0.3404  0.5803  0.0363
   49MOL   C184 9880   3.583   3.484   5.773  0.3190  0.6745 -0.8125
   49MOL   C185 9881   3.499   3.440   5.890  0.0737  0.4104  0.1081
   49MOL   H186 9882   3.702   3.646   5.568  0.3957  0.9411 -0.1135
   49MOL   H187 9883   3.561   3.689   5.507 -1.6586 -0.7568  0.3117
   49MOL   H188 9884   3.427   3.568   5.670  0.4263  0.1596  3.3859
   49MOL   H189 9885   3.682   3.441   5.777 -0.5156 -1.3328 -1.0883
   49MOL   H190 9886   3.510   3.332   5.890 -0.7684  0.3229  1.1890
   49MOL   H191 9887   3.396   3.469   5.873 -0.1428 -0.3009  0.1997
   49MOL   C192 9888   3.551   3.495   6.027  0.0707 -0.3870 -0.4865
   49MOL   C193 9889   3.514   3.399   6.143  0.5441 -0.3652  0.0799
   49MOL   C194 9890   3.600   3.314   6.210  0.2812 -0.6335  0.2738
   49MOL   C195 9891   3.561   3.222   6.321 -0.0094 -0.3239 -0.5261
   49MOL   H196 9892   3.660   3.500   6.030  0.0909 -0.9926  0.1910
   49MOL   H197 9893   3.516   3.590   6.066  0.9046 -0.6870  1.0473
   49MOL   H198 9894   3.421   3.414   6.196  1.2335  0.9541  0.9464
   49MOL   H199 9895   3.697   3.296   6.167 -0.5829  0.0580 -2.0695
   49MOL   H200 9896   3.454   3.203   6.334  0.2186 -1.2781 -0.0113
   49MOL   H201 9897   3.611   3.240   6.416  0.4205  0.6404 -0.9320
   49MOL   H202 9898   3.587   3.120   6.293 -0.3142 -0.2528 -1.0638
   50MOL     C1 9899   6.545   7.519   4.378 -0.3823 -0.1307  0.2990
   50MOL     C2 9900   6.596   7.541   4.518  0.5056  0.2210  0.7734
   50MOL     C3 9901   6.684   7.636   4.556  0.2767 -0.1952 -0.0643
   50MOL     C4 9902   6.749   7.647   4.689  0.1658  0.5849 -0.2297
   50MOL     H5 9903   6.472   7.597   4.357 -0.9155 -1.2131 -2.0371
   50MOL     H6 9904   6.496   7.425   4.352  0.2927  0.1034 -1.9702
   50MOL     H7 9905   6.547   7.479   4.592  0.0111  0.4090  0.6031
   50MOL     H8 9906   6.719   7.698   4.476  0.6052  2.4272  2.0388
   50MOL     H9 9907   6.852   7.681   4.680  0.2228  0.2432 -0.9376
   50MOL    H10 9908   6.737   7.549   4.733  0.9576  1.1557  1.2680
   50MOL    H11 9909   6.624   7.553   4.311  1.0634 -1.6500  1.1856
   50MOL    C12 9910   6.675   7.761   4.763 -0.0087 -1.0544 -0.2419
   50MOL    C13 9911   6.720   7.769   4.913 -0.5547 -0.2474  0.0478
   50MOL    C14 9912   6.654   7.717   5.023  0.3607 -0.6569  0.2584
   50MOL    C15 9913   6.696   7.720   5.168 -0.1028 -0.6405 -0.1430
   50MOL    H16 9914   6.681   7.852   4.704  1.1215 -0.6815  0.4451
   50MOL    H17 9915   6.568   7.740   4.762 -0.3727  0.6076  0.9607
   50MOL    H18 9916   6.818   7.813   4.927 -1.0770  0.3549  1.8982
   50MOL    H19 9917   6.561   7.664   5.010 -1.5475  2.1268  2.0558
   50MOL    H20 9918   6.798   7.754   5.182 -0.7551  1.4279 -0.3275
   50MOL    H21 9919   6.702   7.625   5.221  0.5202 -0.2582  0.4748
   50MOL    C22 9920   6.622   7.818   5.259 -0.6402 -0.4301  0.9158
   50MOL    C23 9921   6.699   7.836   5.395  0.4427 -0.2611  0.1976
   50MOL    C24 9922   6.694   7.954   5.460  0.2479  0.1368 -0.3185
   50MOL    C25 9923   6.767   0.008   5.585  0.6442 -0.1462 -0.5883
   50MOL    H26 9924   6.597   7.919   5.226  1.3409  0.1266  1.0597
   50MOL    H27 9925   6.532   7.767   5.292 -0.0215 -2.1393  0.0040
   50MOL    H28 9926   6.763   7.760   5.437  1.0696 -0.7024 -1.5097
   50MOL    H29 9927   6.621   0.046   5.419  0.9808  0.3973 -1.2091
   50MOL    H30 9928   6.841   0.087   5.570  0.8896 -0.3592 -0.4966
   50MOL    H31 9929   6.826   7.898   5.615  0.8381  0.7599  1.7421
   50MOL    C32 9930   6.689   0.056   5.714 -0.1606  0.1227 -0.4986
   50MOL    C33 9931   6.783   0.088   5.827 -0.2166 -0.6924 -0.8257
   50MOL    C34 9932   6.746   0.075   5.954 -0.0625 -0.1308 -0.1440
   50MOL    C35 9933   6.840   0.095   6.072 -0.0302 -0.0868 -0.9271
   50MOL    H36 9934   6.665   0.160   5.690 -1.8114  0.2366  1.5251
   50MOL    H37 9935   6.587   0.024   5.733  0.6343 -1.8501  0.4992
   50MOL    H38 9936   6.887   0.109   5.809 -0.4734  2.4618  1.0175
   50MOL    H39 9937   6.642   0.054   5.975  0.4417 -2.3062  0.3263
   50MOL    H40 9938   6.869   7.971   6.101 -0.5936  0.3722  1.2923
   50MOL    H41 9939   6.771   0.134   6.148  1.2076 -0.6703  0.5167
   50MOL    C42 9940   6.954   0.204   6.068 -0.3630 -0.5468 -0.2923
   50MOL    C43 9941   7.042   0.194   6.182  0.1328 -0.3883  0.0929
   50MOL    C44 9942   7.176   0.194   6.183  0.1970  0.1300  0.6208
   50MOL    C45 9943   7.266   0.187   6.303  0.3339 -0.2642  0.3074
   50MOL    H46 9944   7.018   0.211   5.980 -1.9171  3.6186 -1.2391
   50MOL    H47 9945   6.919   0.307   6.077  0.5829  0.0002 -2.6005
   50MOL    H48 9946   6.991   0.211   6.276  1.3895  2.1953  0.3380
   50MOL    H49 9947   7.227   0.164   6.092 -0.3144 -2.0773  1.0308
   50MOL    H50 9948   7.318   0.091   6.305  0.0421 -0.4469 -0.5652
   50MOL    H51 9949   7.205   0.194   6.393 -1.5284 -0.5125 -0.9062
   50MOL    C52 9950   7.375   0.302   6.314  0.1939  0.2181 -0.2312
   50MOL    C53 9951   7.465   0.292   6.434 -0.0127 -0.5634 -0.1678
   50MOL    C54 9952   7.504   0.395   6.513  0.1420  0.2489 -0.4797
   50MOL    C55 9953   7.610   0.372   6.619 -0.1173  0.6930 -1.0131
   50MOL    H56 9954   7.447   0.287   6.233 -0.1896 -1.7112 -0.2564
   50MOL    H57 9955   7.331   0.401   6.314  0.4134  0.3210  0.5088
   50MOL    H58 9956   7.512   0.198   6.457 -0.9343 -0.2618  3.2396
   50MOL    H59 9957   7.463   0.494   6.505 -0.6516 -0.1376 -1.2017
   50MOL    H60 9958   7.648   0.270   6.614  1.1385  1.0488  0.6797
   50MOL    H61 9959   7.570   0.384   6.720  1.9625 -0.9342  0.0401
   50MOL    C62 9960   7.727   0.479   6.601 -0.4554  0.4512  0.5099
   50MOL    C63 9961   7.845   0.451   6.698 -0.5182  0.0074 -0.1328
   50MOL    C64 9962   7.977   0.439   6.655  0.2877 -0.2288  0.0592
   50MOL    C65 9963   0.113   0.427   6.751  0.1771  0.7822  0.2774
   50MOL    H66 9964   7.755   0.467   6.496  1.0325  0.0029  0.9444
   50MOL    H67 9965   7.689   0.579   6.618  0.6599  0.8895  0.4530
   50MOL    H68 9966   7.830   0.437   6.804  2.1606  1.7028  0.5261
   50MOL    H69 9967   0.022   0.447   6.550  0.1006  0.2188  0.0524
   50MOL    H70 9968   0.205   0.388   6.708 -0.6914 -1.2615  0.2056
   50MOL    H71 9969   0.076   0.381   6.843 -1.3543 -1.2912 -1.3117
   50MOL    C72 9970   0.164   0.564   6.794 -0.3208 -0.6648 -0.7321
   50MOL    C73 9971   0.299   0.556   6.855 -1.3532 -0.0855 -0.1893
   50MOL    C74 9972   0.327   0.587   6.987 -0.2737 -0.3617  0.3019
   50MOL    C75 9973   0.468   0.568   7.046 -0.9297 -0.0503 -0.0505
   50MOL    H76 9974   0.179   0.645   6.722  1.6844 -0.6913 -0.3585
   50MOL    H77 9975   0.092   0.601   6.867  1.0437  0.3956  0.0992
   50MOL    H78 9976   0.384   0.532   6.792 -1.1969  1.0258 -0.4065
   50MOL    H79 9977   0.249   0.612   7.057 -0.1462 -1.9949  1.0457
   50MOL    H80 9978   0.535   0.535   6.967  0.1971 -1.4554  1.4589
   50MOL    H81 9979   0.452   0.493   7.124 -0.4735 -0.4934 -0.3834
   50MOL    C82 9980   0.537   0.698   7.101  0.2310 -0.9747 -0.8214
   50MOL    C83 9981   0.685   0.679   7.134 -0.0527 -0.2514  0.1968
   50MOL    C84 9982   0.781   0.756   7.080  0.0434 -0.6487  0.1501
   50MOL    C85 9983   0.928   0.743   7.108  1.0123  0.0231 -0.3000
   50MOL    H86 9984   0.550   0.776   7.025  1.2276  0.0939  0.4246
   50MOL    H87 9985   0.483   0.748   7.181  0.4097 -1.6656 -0.2635
   50MOL    H88 9986   0.718   0.604   7.205  0.2544 -1.0798 -0.8118
   50MOL    H89 9987   0.752   0.832   7.009 -0.5980  0.3248  1.4117
   50MOL    H90 9988   0.933   0.691   7.203 -0.6573 -1.0614 -0.7829
   50MOL    H91 9989   0.967   0.845   7.119 -0.4086  0.7063 -1.3359
   50MOL    C92 9990   1.006   0.679   6.992  0.6205  0.3891  0.0455
   50MOL    C93 9991   1.012   0.526   6.994  0.1124  0.9268 -0.9504
   50MOL    C94 9992   1.123   0.462   7.028  0.1122  0.1298  0.0103
   50MOL    C95 9993   1.131   0.314   7.038  0.7207  0.3096  0.1595
   50MOL    H96 9994   0.967   0.694   6.891  2.9270  2.1208 -0.6440
   50MOL    H97 9995   1.110   0.713   7.002  0.9330 -1.0277  1.7698
   50MOL    H98 9996   0.921   0.471   6.977  1.2710 -1.5574  0.6225
   50MOL    H99 9997   1.211   0.521   7.048 -1.8695  2.1392  3.2009
   50MOL   H100 9998   1.196   0.274   6.960  0.9521  1.1529 -0.0815
   50MOL   H101 9999   1.031   0.273   7.022  0.5615  2.0706 -3.8190
   50MOL   C10210000   1.158   0.274   7.182 -0.1049 -0.0975  0.1030
   50MOL   C10310001   1.302   0.306   7.223  0.6435  0.5571  0.2233
   50MOL   C10410002   1.380   0.209   7.280 -0.0110  0.3780 -0.8389
   50MOL   C10510003   1.518   0.227   7.333  0.1882  0.5208 -0.5081
   50MOL   H10610004   1.094   0.333   7.247 -0.5870 -2.4969  1.8511
   50MOL   H10710005   1.126   0.170   7.189  2.0219 -0.7875 -0.0067
   50MOL   H10810006   1.334   0.407   7.207 -0.4480  1.3313  2.6606
   50MOL   H10910007   1.338   0.111   7.296  2.5114 -0.4379  1.0196
   50MOL   H11010008   1.517   0.208   7.440  0.7170 -1.9645 -0.9206
   50MOL   H11110009   1.538   0.335   7.327  1.2763  0.6315  3.6938
   50MOL   C11210010   1.623   0.148   7.258 -0.6804 -0.2763  0.8026
   50MOL   C11310011   1.762   0.194   7.292 -0.0019  0.4953 -0.5710
   50MOL   C11410012   1.831   0.279   7.217 -0.5121 -1.2751  0.2779
   50MOL   C11510013   1.968   0.329   7.252 -0.9309  0.0359 -0.6419
   50MOL   H11610014   1.610   0.044   7.290 -1.9542 -0.3260  0.1595
   50MOL   H11710015   1.600   0.153   7.151 -1.9919  0.9829  1.1324
   50MOL   H11810016   1.816   0.169   7.382  0.9294  1.4631 -0.8458
   50MOL   H11910017   1.791   0.332   7.132  1.7413 -1.0330 -0.6589
   50MOL   H12010018   2.044   0.310   7.177 -0.4483  0.9207 -0.3784
   50MOL   H12110019   1.994   0.273   7.342 -0.2373  1.3473 -0.0140
   50MOL   C12210020   1.963   0.479   7.295  0.1761  0.4822  0.3617
   50MOL   C12310021   2.061   0.525   7.402 -0.3361 -0.1226 -0.4512
   50MOL   C12410022   2.076   0.656   7.431 -0.4485  0.1100 -0.1101
   50MOL   C12510023   2.183   0.711   7.518 -0.1839 -0.1206 -0.9464
   50MOL   H12610024   1.984   0.538   7.206 -0.6796 -1.8866 -1.4600
   50MOL   H12710025   1.866   0.501   7.338  0.2566 -2.8605  2.4264
   50MOL   H12810026   2.119   0.450   7.453  1.7536  1.1536 -0.8950
   50MOL   H12910027   2.018   0.728   7.376 -0.4477  0.8242  0.8176
   50MOL   H13010028   2.257   0.634   7.538  0.5838  0.5169 -1.3261
   50MOL   H13110029   2.143   0.715   7.619  0.8177 -0.7137 -0.5197
   50MOL   C13210030   2.240   0.842   7.465 -0.0355  0.1607 -0.7690
   50MOL   C13310031   2.327   0.915   7.572  0.6092 -0.0230  0.6875
   50MOL   C13410032   2.455   0.943   7.556 -0.4189  0.4340 -0.3284
   50MOL   C13510033   2.542   1.014   7.654 -0.0431 -0.6351 -1.3106
   50MOL   H13610034   2.304   0.832   7.377 -0.4282 -0.5326 -0.9810
   50MOL   H13710035   2.162   0.908   7.428  0.8620  1.2007 -0.8149
   50MOL   H13810036   2.275   0.940   7.663 -0.7883 -2.8816  0.7239
   50MOL   H13910037   2.502   0.900   7.469  1.1552 -2.2365  1.7565
   50MOL   H14010038   2.623   0.951   7.691 -0.9151 -1.4067 -0.7037
   50MOL   H14110039   2.476   1.043   7.736 -0.0281 -1.5575 -0.9726
   50MOL   C14210040   2.609   1.135   7.595  0.2562 -0.1263  0.1750
   50MOL   C14310041   2.524   1.257   7.594  0.7399  0.6281  0.8464
   50MOL   C14410042   2.469   1.314   7.488 -0.0393  0.1799 -0.2415
   50MOL   C14510043   2.365   1.413   7.508  0.1876 -0.2743  0.2723
   50MOL   H14610044   2.702   1.156   7.648 -0.0854 -2.0365  1.5615
   50MOL   H14710045   2.626   1.113   7.489  3.8357  1.1483  0.3997
   50MOL   H14810046   2.486   1.276   7.694 -2.9314  2.0464 -0.7192
   50MOL   H14910047   2.485   1.257   7.398 -0.1404  0.0191 -0.1581
   50MOL   H15010048   2.403   1.473   7.591  0.3643  0.1451 -0.1119
   50MOL   H15110049   2.272   1.364   7.537  0.7360 -1.2186  0.4323
   50MOL   C15210050   2.347   1.505   7.378 -0.4212 -0.6532  0.6802
   50MOL   C15310051   2.461   1.602   7.360 -0.5203  0.6762 -0.4219
   50MOL   C15410052   2.551   1.596   7.260 -0.0483 -0.5371 -0.5567
   50MOL   C15510053   2.659   1.707   7.249 -0.3196  0.3459  0.3674
   50MOL   H15610054   2.345   1.441   7.290 -1.6741 -1.2169  1.1090
   50MOL   H15710055   2.253   1.560   7.389  1.1512  1.8357  2.0783
   50MOL   H15810056   2.454   1.682   7.433 -0.5233  0.8577 -0.6202
   50MOL   H15910057   2.547   1.511   7.195 -0.9740  0.1202 -1.3651
   50MOL   H16010058   2.697   1.725   7.350  3.4577  1.5738 -1.2219
   50MOL   H16110059   2.604   1.797   7.223 -1.5375 -0.0236  1.5337
   50MOL   C16210060   2.772   1.666   7.142  0.3572  0.0133  0.1888
   50MOL   C16310061   2.870   1.777   7.096  0.7624 -0.6738 -0.0221
   50MOL   C16410062   2.877   1.897   7.154  0.0326  0.4120 -0.3078
   50MOL   C16510063   2.990   1.997   7.114  0.1785  0.3063 -1.0180
   50MOL   H16610064   2.829   1.579   7.175  3.4029  1.3053 -1.5149
   50MOL   H16710065   2.727   1.633   7.049 -0.0556 -0.0957  0.4291
   50MOL   H16810066   2.932   1.741   7.016  0.8390  0.6626 -0.5837
   50MOL   H16910067   2.809   1.928   7.232 -1.2384  1.4727 -1.8187
   50MOL   H17010068   2.935   2.080   7.070  1.4845  1.2857 -0.8137
   50MOL   H17110069   3.050   1.961   7.031 -0.6786  0.9631 -1.9228
   50MOL   C17210070   3.083   2.045   7.225  0.4276  0.0982  0.3741
   50MOL   C17310071   3.018   2.092   7.349  0.0486 -0.0145 -0.7109
   50MOL   C17410072   2.919   2.184   7.340  0.0010 -0.0647  0.3195
   50MOL   C17510073   2.832   2.218   7.456 -0.2517  0.2350 -0.1855
   50MOL   H17610074   3.146   1.960   7.255  1.5300  1.2432  1.3533
   50MOL   H17710075   3.148   2.120   7.181  1.0828  0.0414  1.2121
   50MOL   H17810076   3.054   2.052   7.443  0.2439  0.1428 -0.7168
   50MOL   H17910077   2.899   2.218   7.239  2.3021  1.3727  0.3069
   50MOL   H18010078   2.823   2.326   7.471 -1.5962  0.0348  0.5374
   50MOL   H18110079   2.887   2.181   7.542 -0.7206 -0.6713 -0.2747
   50MOL   C18210080   2.688   2.159   7.437 -0.2123 -0.3909 -0.2668
   50MOL   C18310081   2.594   2.196   7.551 -1.2198  1.0818 -1.0508
   50MOL   C18410082   2.484   2.268   7.535 -0.3026 -0.2962 -0.3410
   50MOL   C18510083   2.372   2.294   7.637  0.6413 -0.0278 -0.1215
   50MOL   H18610084   2.648   2.195   7.342  0.3345  1.9148  0.3449
   50MOL   H18710085   2.695   2.051   7.425 -0.9186 -0.0994 -3.6739
   50MOL   H18810086   2.621   2.144   7.641 -0.5364 -0.0992 -1.9193
   50MOL   H18910087   2.471   2.317   7.439 -0.5742 -0.7532 -0.5371
   50MOL   H19010088   2.370   2.400   7.662  1.1596 -0.1692  0.5477
   50MOL   H19110089   2.389   2.242   7.731  0.4762  0.1575  0.0104
   50MOL   C19210090   2.238   2.239   7.592  0.6722 -0.1978 -0.4743
   50MOL   C19310091   2.244   2.104   7.529 -0.2703 -0.7030 -0.1196
   50MOL   C19410092   2.171   1.998   7.559  0.0739  1.0790  0.7374
   50MOL   C19510093   2.186   1.861   7.491 -0.1317  0.4715 -0.0283
   50MOL   H19610094   2.156   2.243   7.663  0.3038 -2.0356 -0.7869
   50MOL   H19710095   2.213   2.310   7.512 -0.4846  1.0098  0.9311
   50MOL   H19810096   2.326   2.090   7.461  0.0383  0.3119  0.0377
   50MOL   H19910097   2.081   2.016   7.617 -1.3686 -0.1011 -1.0676
   50MOL   H20010098   2.168   1.781   7.564  1.6953  0.9998  1.0500
   50MOL   H20110099   2.285   1.855   7.446 -0.9036  2.7193 -2.0893
   50MOL   H20210100   2.111   1.850   7.413 -1.9983  1.9599  1.5347
   51MOL     C110101   6.825   5.386   6.457 -0.3858  0.0705  0.4764
   51MOL     C210102   6.749   5.257   6.450  0.8142  0.4155  0.1283
   51MOL     C310103   6.796   5.147   6.386  0.0148 -0.5502  0.3324
   51MOL     C410104   6.711   5.018   6.365 -0.9555 -0.0404 -0.0489
   51MOL     H510105   6.909   5.379   6.388  2.3586 -0.4292  3.7535
   51MOL     H610106   6.857   5.422   6.555 -2.6648  0.1916  1.2122
   51MOL     H710107   6.663   5.245   6.514  1.0535 -4.0234 -0.1855
   51MOL     H810108   6.895   5.145   6.343 -0.4188  2.2118 -0.8662
   51MOL     H910109   6.705   4.999   6.257 -0.6626  0.9639 -0.2445
   51MOL    H1010110   6.614   5.035   6.412  0.2791  1.8627  1.9254
   51MOL    H1110111   6.759   5.468   6.427  1.1984  0.5003 -1.9629
   51MOL    C1210112   6.776   4.894   6.421  0.3582 -0.5669 -0.1703
   51MOL    C1310113   6.691   4.771   6.389 -0.1221  0.4117 -0.1009
   51MOL    C1410114   6.741   4.649   6.356  0.0596 -0.2075  0.2296
   51MOL    C1510115   6.664   4.517   6.335  0.5655 -0.2116  0.5043
   51MOL    H1610116   6.880   4.890   6.388  0.8217 -0.1989  1.2293
   51MOL    H1710117   6.791   4.906   6.528  0.6841  1.4871 -0.4240
   51MOL    H1810118   6.585   4.789   6.398 -0.2996 -1.8742  3.3222
   51MOL    H1910119   6.847   4.643   6.338 -0.0411  1.2387 -0.9806
   51MOL    H2010120   6.564   4.538   6.373 -0.6907 -0.7229 -2.3558
   51MOL    H2110121   6.701   4.438   6.399 -2.6624 -3.1661 -1.0929
   51MOL    C2210122   6.654   4.471   6.188  0.0901 -0.8721 -0.2469
   51MOL    C2310123   6.588   4.337   6.181  0.6229  0.4035  0.9996
   51MOL    C2410124   6.483   4.294   6.253  0.4456 -0.1768  0.0233
   51MOL    C2510125   6.419   4.166   6.217 -0.3934  0.7715 -0.2071
   51MOL    H2610126   6.595   4.543   6.131  1.0169  0.9029  0.9835
   51MOL    H2710127   6.755   4.474   6.149  1.0979  0.0176  2.2736
   51MOL    H2810128   6.640   4.265   6.120  0.5880  1.5651 -0.4459
   51MOL    H2910129   6.445   4.352   6.336  0.4722 -0.4290  0.2117
   51MOL    H3010130   6.442   4.101   6.301  1.6454  0.6490 -0.8319
   51MOL    H3110131   6.473   4.113   6.139  0.1362 -0.6220  1.0736
   51MOL    C3210132   6.267   4.182   6.190 -0.1442  0.5183 -0.0033
   51MOL    C3310133   6.208   4.056   6.136  0.5847 -0.2725  0.5504
   51MOL    C3410134   6.114   4.047   6.048  0.1310  0.0772  0.0679
   51MOL    C3510135   6.046   3.916   6.009 -0.2776 -0.5998  0.6083
   51MOL    H3610136   6.214   4.201   6.283  2.2538  1.2281  1.2686
   51MOL    H3710137   6.258   4.269   6.125  0.8877  1.1648  0.6971
   51MOL    H3810138   6.236   3.964   6.184  1.9050  0.2842  0.8730
   51MOL    H3910139   6.081   4.138   6.002 -3.9559  0.0755  2.7352
   51MOL    H4010140   5.947   3.898   6.051 -0.4009  0.3833  0.7297
   51MOL    H4110141   6.110   3.834   6.042 -0.3015 -2.6353 -3.9161
   51MOL    C4210142   6.050   3.897   5.854 -0.0867  0.2114 -0.0185
   51MOL    C4310143   6.022   3.760   5.814  0.5744  0.3830 -0.4213
   51MOL    C4410144   6.105   3.680   5.749  0.1704 -0.2732 -0.5462
   51MOL    C4510145   6.086   3.533   5.713  0.0548  0.1773  0.9322
   51MOL    H4610146   5.977   3.963   5.808 -0.9686  0.6652  1.9546
   51MOL    H4710147   6.142   3.927   5.806 -0.7455  2.3408  0.0001
   51MOL    H4810148   5.926   3.720   5.844  1.5551 -1.8345 -0.1574
   51MOL    H4910149   6.205   3.715   5.733  1.1962 -1.4195  2.8067
   51MOL    H5010150   5.990   3.486   5.730 -0.1446 -0.0687 -0.7669
   51MOL    H5110151   6.158   3.473   5.769  0.6956  1.3795  1.4134
   51MOL    C5210152   6.128   3.507   5.568 -0.2918 -1.6664  0.3258
   51MOL    C5310153   6.010   3.531   5.468  0.2877 -0.6831  0.1267
   51MOL    C5410154   6.025   3.613   5.364 -0.2333  0.2632  0.4834
   51MOL    C5510155   5.908   3.670   5.278 -0.4337  0.3363  0.2122
   51MOL    H5610156   6.217   3.568   5.554 -1.3664 -0.2746 -0.6140
   51MOL    H5710157   6.163   3.404   5.564  1.0057 -1.1510 -3.2619
   51MOL    H5810158   5.914   3.487   5.490 -1.4370  1.8951 -2.0031
   51MOL    H5910159   6.128   3.642   5.355  0.6135 -3.2511 -2.3528
   51MOL    H6010160   5.814   3.632   5.317 -0.0106  0.3577  1.2547
   51MOL    H6110161   5.913   3.629   5.177  1.0347 -0.3722  0.5528
   51MOL    C6210162   5.922   3.819   5.254  0.2968 -0.3418  0.8558
   51MOL    C6310163   5.917   3.901   5.381 -0.4935 -0.3193  0.9700
   51MOL    C6410164   5.820   3.989   5.406  0.2617 -0.5045 -0.0330
   51MOL    C6510165   5.815   4.068   5.533  0.4723  0.7473  0.8253
   51MOL    H6610166   6.021   3.844   5.217 -0.3836  1.7426  0.3994
   51MOL    H6710167   5.849   3.854   5.181 -0.0366  1.7054  2.1217
   51MOL    H6810168   5.998   3.885   5.451 -0.5360  2.1525  1.6409
   51MOL    H6910169   5.741   4.016   5.337 -2.2899 -2.4784  1.9809
   51MOL    H7010170   5.886   4.031   5.607  0.8356  1.0403  0.6227
   51MOL    H7110171   5.717   4.043   5.574 -0.0216  0.1438 -0.6854
   51MOL    C7210172   5.829   4.218   5.510 -0.4098  1.0864  0.0426
   51MOL    C7310173   5.836   4.291   5.634 -0.4767  0.3361  0.1431
   51MOL    C7410174   5.741   4.375   5.678  0.5650  0.1202 -1.4921
   51MOL    C7510175   5.754   4.465   5.801 -0.0346  0.3333 -0.0177
   51MOL    H7610176   5.921   4.233   5.453  1.1703 -1.5751  1.7777
   51MOL    H7710177   5.737   4.245   5.459 -0.8285  2.6815  1.5746
   51MOL    H7810178   5.929   4.282   5.687  0.6023 -0.3457 -1.8145
   51MOL    H7910179   5.660   4.393   5.609  0.7034  2.4921 -1.0629
   51MOL    H8010180   5.860   4.480   5.824 -0.6083 -0.0618  3.0552
   51MOL    H8110181   5.712   4.412   5.886  1.2702 -1.1204 -0.2671
   51MOL    C8210182   5.711   4.612   5.773  0.6045 -1.0297 -0.0937
   51MOL    C8310183   5.731   4.704   5.882 -0.3403 -0.0579 -0.4216
   51MOL    C8410184   5.845   4.782   5.877  0.3462 -0.2680  0.1179
   51MOL    C8510185   5.899   4.879   5.981 -0.0194 -0.2706  0.0088
   51MOL    H8610186   5.767   4.659   5.693  1.9583 -1.6841  0.4611
   51MOL    H8710187   5.608   4.621   5.736  0.5374  0.8298  0.5078
   51MOL    H8810188   5.662   4.697   5.965  0.4698  0.3914  0.3036
   51MOL    H8910189   5.919   4.780   5.799  1.1962 -1.9900  0.9396
   51MOL    H9010190   5.917   4.979   5.941  0.4756 -0.7857 -1.0898
   51MOL    H9110191   5.999   4.844   6.007  0.5095  0.8898 -0.4441
   51MOL    C9210192   5.819   4.879   6.119  0.3102 -0.2426  0.6541
   51MOL    C9310193   5.883   4.962   6.232  0.6472  0.1335 -0.0593
   51MOL    C9410194   5.940   4.901   6.342 -0.0997  0.3597  0.2272
   51MOL    C9510195   6.009   4.977   6.460  0.5004 -0.0192  0.4109
   51MOL    H9610196   5.721   4.926   6.123  0.9797  1.0748  2.4861
   51MOL    H9710197   5.804   4.780   6.162  0.1809 -0.0784  0.9866
   51MOL    H9810198   5.884   5.067   6.208 -3.5610 -0.0262 -1.3481
   51MOL    H9910199   5.926   4.794   6.354 -0.4946  0.1361 -2.1327
   51MOL   H10010200   5.945   4.981   6.548 -1.5069 -1.7694 -0.9164
   51MOL   H10110201   6.033   5.081   6.436 -0.4627 -0.0570 -0.7493
   51MOL   C10210202   6.132   4.893   6.514 -0.2366 -0.1511  0.0841
   51MOL   C10310203   6.191   4.946   6.646 -0.5345  0.0880 -0.2108
   51MOL   C10410204   6.194   4.883   6.766  0.3401  0.1225  0.2258
   51MOL   C10510205   6.264   4.943   6.887  0.0341 -0.0328  0.1662
   51MOL   H10610206   6.111   4.787   6.527  2.2711 -0.6811 -0.0283
   51MOL   H10710207   6.211   4.890   6.440  0.9443 -4.1650  1.3699
   51MOL   H10810208   6.235   5.045   6.641 -1.0543  0.4837  2.4887
   51MOL   H10910209   6.144   4.788   6.781  0.2531  0.3403  1.3989
   51MOL   H11010210   6.198   4.963   6.972  1.4838  0.5891  1.1737
   51MOL   H11110211   6.300   5.040   6.855 -1.1061 -0.7466 -3.4469
   51MOL   C11210212   6.373   4.854   6.958  1.0418  0.1697 -0.1360
   51MOL   C11310213   6.416   4.919   7.084 -0.0486  0.7405 -0.1558
   51MOL   C11410214   6.384   4.873   7.208 -0.4609  0.0890  0.2831
   51MOL   C11510215   6.434   4.943   7.332  0.1145 -0.0897  0.5204
   51MOL   H11610216   6.345   4.749   6.967  0.6453  0.2421 -0.5393
   51MOL   H11710217   6.457   4.847   6.888  1.0830  1.2571 -0.2098
   51MOL   H11810218   6.471   5.012   7.078  0.3824  0.4248 -1.1698
   51MOL   H11910219   6.322   4.784   7.217 -1.9936  1.0788 -0.3511
   51MOL   H12010220   6.537   4.972   7.309 -0.2593  0.7314 -0.1490
   51MOL   H12110221   6.430   4.868   7.410  0.1938  0.3615  0.9613
   51MOL   C12210222   6.344   5.059   7.373 -0.8791 -0.7778  0.3465
   51MOL   C12310223   6.194   5.025   7.377  0.0705 -0.3930  0.9173
   51MOL   C12410224   6.109   5.019   7.483  0.4992 -0.1553 -0.6328
   51MOL   C12510225   5.966   4.970   7.478  0.7342 -0.8224  0.2853
   51MOL   H12610226   6.390   5.101   7.462  0.7157  0.3609 -0.9772
   51MOL   H12710227   6.360   5.137   7.298 -0.7770 -1.2983 -0.1834
   51MOL   H12810228   6.148   4.982   7.289  0.2870  1.8061 -0.2803
   51MOL   H12910229   6.159   5.043   7.576 -0.4531  0.9325 -0.3905
   51MOL   H13010230   5.970   4.861   7.472 -0.6560 -0.9212  0.8605
   51MOL   H13110231   5.909   4.999   7.390  1.0148 -0.1105  0.3324
   51MOL   C13210232   5.898   5.031   7.600 -0.6545  0.3471  0.1916
   51MOL   C13310233   5.752   4.986   7.621 -0.1298  0.2899  0.1010
   51MOL   C13410234   5.709   4.923   7.729 -0.5317  0.8242 -0.7339
   51MOL   C13510235   5.570   4.882   7.762  0.2227 -0.0411 -0.3748
   51MOL   H13610236   5.964   5.006   7.683  2.1234 -0.2279 -2.1386
   51MOL   H13710237   5.905   5.139   7.589 -0.1707  0.1321 -1.6429
   51MOL   H13810238   5.677   5.002   7.545  0.1896 -1.9694 -0.7097
   51MOL   H13910239   5.787   4.899   7.799 -2.0652 -1.8663  0.1297
   51MOL   H14010240   5.541   4.778   7.780 -2.1461  0.4563 -1.1029
   51MOL   H14110241   5.503   4.891   7.676 -0.6682 -1.1858  0.1867
   51MOL   C14210242   5.516   4.968   7.876  0.1209  0.9302 -0.1298
   51MOL   C14310243   5.372   4.944   7.908 -0.4615  0.4248 -0.3730
   51MOL   C14410244   5.338   4.883   0.047  0.0376  0.5942  0.7146
   51MOL   C14510245   5.193   4.835   0.085  0.2376 -0.5270  0.1630
   51MOL   H14610246   5.579   4.971   7.964  0.2971 -0.2309 -0.2019
   51MOL   H14710247   5.518   5.075   7.855  0.9698  0.7678 -0.9379
   51MOL   H14810248   5.287   4.963   7.845 -1.7217 -1.5160  0.6580
   51MOL   H14910249   5.413   4.862   0.122  0.0550 -0.6716  0.3613
   51MOL   H15010250   5.132   4.874   0.003  2.4355  0.2115 -1.1463
   51MOL   H15110251   5.175   4.887   0.179 -3.0375 -2.2779  0.6088
   51MOL   C15210252   5.193   4.682   0.106 -0.5969  0.5758 -0.2802
   51MOL   C15310253   5.051   4.630   0.128  0.3125  0.7531 -0.4144
   51MOL   C15410254   4.991   4.547   0.041  1.2566 -0.2716  0.0630
   51MOL   C15510255   4.846   4.503   0.047 -0.6416  0.0702  0.1602
   51MOL   H15610256   5.233   4.632   0.017  0.1353 -0.0237  0.3736
   51MOL   H15710257   5.242   4.650   0.198  0.8796  0.1998 -1.1782
   51MOL   H15810258   5.005   4.668   0.218  0.0823 -2.4161  0.8543
   51MOL   H15910259   5.052   4.514   7.935 -1.7771 -1.5746 -1.7428
   51MOL   H16010260   4.804   4.545   0.139  1.1898  1.5479  0.3502
   51MOL   H16110261   4.838   4.395   0.054 -1.5375  0.2314  1.9783
   51MOL   C16210262   4.768   4.563   7.904  0.1391 -0.3150 -0.7940
   51MOL   C16310263   4.736   4.712   7.914  0.0186 -0.2592  0.2711
   51MOL   C16410264   4.607   4.763   7.921 -0.2866  0.3536  0.4758
   51MOL   C16510265   4.589   4.909   7.940  0.0446  0.0336  0.0985
   51MOL   H16610266   4.829   4.541   7.816 -1.1588  0.0880 -1.8199
   51MOL   H16710267   4.670   4.515   7.902 -0.3355  0.6213 -0.0369
   51MOL   H16810268   4.822   4.776   7.921  0.7735 -1.2772  0.3747
   51MOL   H16910269   4.523   4.696   7.907  0.3428 -1.1939  3.5734
   51MOL   H17010270   4.674   4.948   0.020  2.0722 -1.4641 -1.8115
   51MOL   H17110271   4.499   4.931   0.020 -0.9764 -1.9609 -0.6842
   51MOL   C17210272   4.591   4.999   7.812  0.5418  0.4366  0.4237
   51MOL   C17310273   4.470   4.966   7.724 -0.3453  0.1513 -1.0901
   51MOL   C17410274   4.476   4.923   7.595  0.5434 -0.2937  0.9124
   51MOL   C17510275   4.348   4.900   7.513 -0.2036  0.3782 -0.3483
   51MOL   H17610276   4.586   5.104   7.840  0.1105  1.3635 -2.8974
   51MOL   H17710277   4.679   4.985   7.749  0.0009 -1.3032  0.0201
   51MOL   H17810278   4.377   4.990   7.774 -1.2390 -1.5056 -1.9483
   51MOL   H17910279   4.561   4.908   7.531 -1.2519  2.3496 -2.2174
   51MOL   H18010280   4.335   4.969   7.430  2.6767 -1.3040 -2.2973
   51MOL   H18110281   4.255   4.909   7.569  0.2355  0.2999  0.4047
   51MOL   C18210282   4.361   4.755   7.456 -0.0042  0.4354 -0.2321
   51MOL   C18310283   4.270   4.732   7.345 -0.3039 -0.4753  0.7477
   51MOL   C18410284   4.313   4.731   7.215 -0.0401 -0.6380  0.9027
   51MOL   C18510285   4.225   4.728   7.094  0.7803 -0.3802  0.2959
   51MOL   H18610286   4.464   4.737   7.427 -0.4362 -0.1178 -1.4608
   51MOL   H18710287   4.332   4.693   7.541 -3.3975  0.7828 -1.0648
   51MOL   H18810288   4.166   4.719   7.369 -0.6172  0.6426  0.0399
   51MOL   H18910289   4.419   4.727   7.192 -0.0937 -1.2438  0.7432
   51MOL   H19010290   4.248   4.805   7.020 -2.8596 -1.1112 -1.7083
   51MOL   H19110291   4.124   4.750   7.130  0.6269 -2.0445  0.8910
   51MOL   C19210292   4.225   4.592   7.023  0.3135 -0.5997 -0.6050
   51MOL   C19310293   4.109   4.583   6.923 -0.1761  0.0764 -0.4422
   51MOL   C19410294   3.994   4.517   6.936  0.6283 -0.2056  0.2783
   51MOL   C19510295   3.871   4.527   6.849 -0.3675  0.2349 -0.1855
   51MOL   H19610296   4.322   4.581   6.975 -0.1398 -0.1177 -1.6398
   51MOL   H19710297   4.227   4.504   7.087  1.5964 -1.8322 -2.3024
   51MOL   H19810298   4.109   4.648   6.837 -0.9257 -0.2966 -0.7258
   51MOL   H19910299   3.977   4.454   7.022 -1.4317  1.7141  1.3072
   51MOL   H20010300   3.880   4.601   6.770  1.4244 -0.4240 -0.6195
   51MOL   H20110301   3.781   4.558   6.904  0.0816  0.7222  0.2741
   51MOL   H20210302   3.841   4.436   6.796  1.5742 -0.6989  0.2895
   52MOL     C110303   1.769   3.789   7.345  0.5739 -0.3084  0.8246
   52MOL     C210304   1.667   3.691   7.287  0.2986  0.4982 -0.2016
   52MOL     C310305   1.655   3.571   7.344  0.2426  0.0344  0.6484
   52MOL     C410306   1.575   3.462   7.292  0.5173 -0.7745 -0.0848
   52MOL     H510307   1.745   3.894   7.359 -0.0741 -0.2070 -0.9591
   52MOL     H610308   1.852   3.788   7.274 -0.6109 -2.2314 -0.5505
   52MOL     H710309   1.606   3.723   7.203 -0.2098  1.4092  0.4956
   52MOL     H810310   1.714   3.555   7.433 -0.0533 -1.0892  0.6570
   52MOL     H910311   1.643   3.382   7.263  1.6999 -0.3326  1.4347
   52MOL    H1010312   1.510   3.501   7.214 -0.4524  3.2725  2.6131
   52MOL    H1110313   1.805   3.751   7.441  1.5649  0.1102  0.6279
   52MOL    C1210314   1.480   3.414   7.405  0.2953  0.1157  0.2667
   52MOL    C1310315   1.375   3.316   7.356  0.3480  0.1604 -0.4349
   52MOL    C1410316   1.246   3.332   7.383  0.1731  0.7532  0.1936
   52MOL    C1510317   1.138   3.236   7.328 -0.3923  0.1897 -0.1379
   52MOL    H1610318   1.545   3.384   7.487 -0.7077  1.3602  1.5441
   52MOL    H1710319   1.437   3.498   7.460 -0.5199 -1.3495  1.9071
   52MOL    H1810320   1.415   3.235   7.297  0.5478 -0.1908  0.1805
   52MOL    H1910321   1.220   3.410   7.452  0.1984 -0.8017  1.9835
   52MOL    H2010322   1.087   3.185   7.410  2.3400 -0.7187  1.0658
   52MOL    H2110323   1.185   3.161   7.264 -1.9872  0.5835 -1.8207
   52MOL    C2210324   1.037   3.315   7.238  0.0048 -0.1113 -0.5971
   52MOL    C2310325   0.923   3.227   7.197  0.5170  1.0802 -0.6101
   52MOL    C2410326   0.871   3.203   7.076  0.0921  0.1863 -0.1309
   52MOL    C2510327   0.765   3.105   7.044  0.1749  0.3582  0.2852
   52MOL    H2610328   0.996   3.399   7.293  1.4250  0.1800  0.0202
   52MOL    H2710329   1.096   3.348   7.153  0.8205 -1.6265 -0.6476
   52MOL    H2810330   0.884   3.169   7.278  0.4347  2.2105  0.1645
   52MOL    H2910331   0.915   3.252   6.991 -2.2649 -0.1014 -1.5671
   52MOL    H3010332   0.666   3.152   7.045  0.1037  0.2314 -0.3575
   52MOL    H3110333   0.773   3.033   7.125 -0.4243 -0.8386 -0.6946
   52MOL    C3210334   0.799   3.038   6.912  0.2110 -0.3942  0.9683
   52MOL    C3310335   0.701   2.925   6.893  0.3118  0.3087 -0.3688
   52MOL    C3410336   0.733   2.803   6.845  0.0102 -0.6765  0.2701
   52MOL    C3510337   0.637   2.692   6.813 -0.6682  0.4454  0.0959
   52MOL    H3610338   0.796   3.109   6.829  1.9190  0.5334  1.6698
   52MOL    H3710339   0.896   2.992   6.930  0.7968 -0.8990 -3.0618
   52MOL    H3810340   0.598   2.954   6.904 -0.1576 -0.7464 -1.7650
   52MOL    H3910341   0.836   2.776   6.824 -0.8587 -4.2391  0.2309
   52MOL    H4010342   0.604   2.689   6.709 -2.1264 -0.8590  0.5839
   52MOL    H4110343   0.541   2.711   6.862  0.2057  1.3102  1.5024
   52MOL    C4210344   0.697   2.557   6.855  0.0484 -0.1912  0.0523
   52MOL    C4310345   0.603   2.451   6.839  0.0920  0.2395 -0.1552
   52MOL    C4410346   0.628   2.329   6.883 -0.2676 -0.7969 -0.4599
   52MOL    C4510347   0.528   2.216   6.876  0.3693  0.0156  0.4462
   52MOL    H4610348   0.771   2.532   6.780 -0.2058  1.6797 -0.8675
   52MOL    H4710349   0.750   2.557   6.950  0.4605 -1.2785 -0.1724
   52MOL    H4810350   0.510   2.477   6.789  0.2541  2.1453  0.4911
   52MOL    H4910351   0.727   2.299   6.915 -0.1517 -0.8562 -0.8632
   52MOL    H5010352   0.426   2.244   6.849  0.5581  0.4369  0.1597
   52MOL    H5110353   0.537   2.180   6.978 -1.1412 -0.4149  0.4417
   52MOL    C5210354   0.583   2.109   6.785 -0.5804  0.1071  0.0656
   52MOL    C5310355   0.484   1.995   6.759 -0.2132 -0.3381 -0.4325
   52MOL    C5410356   0.511   1.868   6.798 -0.0307  0.0027  0.5041
   52MOL    C5510357   0.434   1.740   6.764 -0.2157  0.0032  0.1235
   52MOL    H5610358   0.600   2.161   6.691 -0.7321 -0.1064 -0.0795
   52MOL    H5710359   0.682   2.081   6.821  0.2072  1.1486 -1.2676
   52MOL    H5810360   0.391   2.007   6.706 -1.1092 -2.7983  0.4857
   52MOL    H5910361   0.609   1.853   6.842  0.1946 -2.5075 -0.7688
   52MOL    H6010362   0.349   1.761   6.699 -0.5000 -0.0468  0.4729
   52MOL    H6110363   0.378   1.698   6.848  0.5809  0.3773  0.8545
   52MOL    C6210364   0.516   1.623   6.705  0.1631 -0.0164  0.9235
   52MOL    C6310365   0.427   1.506   6.653 -0.0144 -0.2422  0.6079
   52MOL    C6410366   0.452   1.426   6.547 -0.6748  0.7487  0.7663
   52MOL    C6510367   0.351   1.337   6.474  0.0135  0.8391  0.4689
   52MOL    H6610368   0.582   1.656   6.625 -0.0166  0.4550  0.9708
   52MOL    H6710369   0.577   1.584   6.787 -1.7112 -0.9816  1.9013
   52MOL    H6810370   0.327   1.505   6.695 -1.2141 -1.5699 -2.1625
   52MOL    H6910371   0.553   1.434   6.508 -0.9511  2.1147  0.3207
   52MOL    H7010372   0.371   1.349   6.367  0.0557 -0.3404  0.3472
   52MOL    H7110373   0.248   1.367   6.494 -0.4923 -1.9164  2.2182
   52MOL    C7210374   0.361   1.187   6.504  0.3386 -0.8675 -0.1582
   52MOL    C7310375   0.292   1.093   6.407  0.3079  0.0891 -0.6147
   52MOL    C7410376   0.195   1.004   6.432 -0.2579 -0.1774  0.0325
   52MOL    C7510377   0.134   0.913   6.326  0.0453  0.3044 -0.2378
   52MOL    H7610378   0.465   1.157   6.516  0.6344  0.8858  1.8938
   52MOL    H7710379   0.315   1.158   6.599 -2.1267 -0.0835 -1.0669
   52MOL    H7810380   0.336   1.097   6.308  0.5142  1.6266 -0.4748
   52MOL    H7910381   0.161   0.994   6.534  1.3286  0.2810  0.6293
   52MOL    H8010382   0.172   0.946   6.230  2.5021 -0.7602  0.3215
   52MOL    H8110383   0.028   0.939   6.332  0.2340  0.8831  0.8624
   52MOL    C8210384   0.170   0.758   6.346 -0.4277 -0.3429  0.3214
   52MOL    C8310385   0.104   0.675   6.235 -0.0818 -0.6606  0.0645
   52MOL    C8410386   0.058   0.554   6.255  0.1627  0.2989 -0.0612
   52MOL    C8510387   0.003   0.458   6.148  0.0474 -0.3950 -0.5027
   52MOL    H8610388   0.270   0.729   6.314 -1.3618  1.0579 -4.1639
   52MOL    H8710389   0.150   0.714   6.444 -0.3775  1.1622  1.0270
   52MOL    H8810390   0.102   0.727   6.140  0.1442  1.3054  1.1320
   52MOL    H8910391   0.073   0.516   6.355 -0.5624  3.6978  1.4344
   52MOL    H9010392   0.081   0.384   6.129  0.1406 -0.2263 -0.7780
   52MOL    H9110393   7.971   0.518   6.057 -0.7231  0.2916  0.0258
   52MOL    C9210394   7.855   0.396   6.206 -0.5307  0.4818  0.4329
   52MOL    C9310395   7.789   0.306   6.110  0.4472 -0.0606 -0.5813
   52MOL    C9410396   7.670   0.331   6.045  0.0724  0.9156 -0.7262
   52MOL    C9510397   7.602   0.240   5.939 -0.0660  0.2346 -0.8171
   52MOL    H9610398   7.869   0.346   6.302 -0.7551  1.6933  1.1018
   52MOL    H9710399   7.784   0.477   6.218 -1.3060 -0.2752  1.0684
   52MOL    H9810400   7.848   0.217   6.092  0.2426 -0.0010 -1.6150
   52MOL    H9910401   7.616   0.420   6.070 -1.4555 -0.0189 -0.6388
   52MOL   H10010402   7.536   0.165   5.985 -0.2663  0.7686 -0.2301
   52MOL   H10110403   7.692   0.192   5.902 -2.0446 -3.0026 -1.6492
   52MOL   C10210404   7.528   0.307   5.830  0.8037 -0.3097  0.2210
   52MOL   C10310405   7.474   0.199   5.740  0.5743  0.9287 -0.3629
   52MOL   C10410406   7.357   0.204   5.672  0.3276 -0.0301 -0.2908
   52MOL   C10510407   7.303   0.102   5.572  0.1285 -0.7338 -0.3637
   52MOL   H10610408   7.448   0.368   5.871 -0.6897 -2.1237  0.0750
   52MOL   H10710409   7.603   0.373   5.786 -0.3114 -0.5523 -2.1301
   52MOL   H10810410   7.527   0.105   5.736 -2.3337 -0.7851  0.1688
   52MOL   H10910411   7.303   0.297   5.680 -0.4631 -0.3645 -1.5613
   52MOL   H11010412   7.371   0.017   5.563 -0.8948 -1.4817 -1.1563
   52MOL   H11110413   7.319   0.146   5.473 -1.5667  0.7906  0.0137
   52MOL   C11210414   7.157   0.073   5.579 -0.3069  0.0010  0.0603
   52MOL   C11310415   7.120   7.940   5.487  0.2203  0.5216 -0.3533
   52MOL   C11410416   7.196   7.879   5.394 -0.3591 -0.7680  0.1463
   52MOL   C11510417   7.156   7.760   5.309  0.1425  0.1160  0.9583
   52MOL   H11610418   7.132   0.043   5.681  0.4710  0.5387  0.4161
   52MOL   H11710419   7.094   0.161   5.563 -1.5583 -1.0934 -1.1102
   52MOL   H11810420   7.019   7.901   5.485  0.1859  0.6504 -2.3851
   52MOL   H11910421   7.297   7.913   5.377 -0.6815 -0.2362 -0.7580
   52MOL   H12010422   7.132   7.796   5.208  3.1753  0.3665  0.2699
   52MOL   H12110423   7.058   7.725   5.341 -0.4007 -0.0329 -0.8164
   52MOL   C12210424   7.263   7.645   5.294  1.3587 -0.4930 -0.1113
   52MOL   C12310425   7.321   7.600   5.425 -0.1098  0.2761  0.0200
   52MOL   C12410426   7.452   7.626   5.456  0.0940  0.0974 -0.1074
   52MOL   C12510427   7.517   7.592   5.584  0.4135  0.2761  0.0963
   52MOL   H12610428   7.224   7.559   5.240  0.8173 -1.6965  2.1304
   52MOL   H12710429   7.345   7.691   5.238  1.1090  0.1408  0.0310
   52MOL   H12810430   7.259   7.572   5.508  1.4910  0.4885  1.3010
   52MOL   H12910431   7.512   7.684   5.387  0.5723 -1.3074 -0.8813
   52MOL   H13010432   7.459   7.521   5.642  1.3109 -0.0965  0.5506
   52MOL   H13110433   7.512   7.680   5.647 -0.0316  1.3683 -1.4316
   52MOL   C13210434   7.662   7.556   5.580 -1.3762  0.1906  0.0502
   52MOL   C13310435   7.738   7.547   5.717 -0.5589 -0.4829  0.3061
   52MOL   C13410436   7.817   7.448   5.747 -0.4993  0.4414 -1.4232
   52MOL   C13510437   7.909   7.437   5.868 -0.1637  0.6532  0.4137
   52MOL   H13610438   7.673   7.462   5.526 -0.2821  0.2259  0.1981
   52MOL   H13710439   7.709   7.630   5.516  0.4317  0.3915  1.5507
   52MOL   H13810440   7.743   7.633   5.782  1.2892 -0.4663  0.1807
   52MOL   H13910441   7.830   7.366   5.679 -0.4744 -0.2726 -0.5611
   52MOL   H14010442   7.895   7.339   5.915 -0.4835  0.2992 -0.4129
   52MOL   H14110443   7.885   7.521   5.932  0.7167  2.0448 -1.0526
   52MOL   C14210444   0.079   7.453   5.835 -0.1898  0.3259  0.2657
   52MOL   C14310445   0.153   7.416   5.955 -1.0518 -0.8836  0.3367
   52MOL   C14410446   0.264   7.340   5.965 -0.2328  0.2082 -0.0842
   52MOL   C14510447   0.355   7.334   6.086  0.2087  0.0318 -0.2762
   52MOL   H14610448   0.108   7.384   5.755 -4.0837 -0.4969 -0.5357
   52MOL   H14710449   0.092   7.558   5.810 -0.7589  0.2886 -0.2217
   52MOL   H14810450   0.119   7.461   6.047  0.7244  0.8771  0.1572
   52MOL   H14910451   0.299   7.298   5.872  0.9630  2.0125 -0.4940
   52MOL   H15010452   0.363   7.228   6.113 -1.2045 -0.0514 -0.1431
   52MOL   H15110453   0.306   7.376   6.174 -0.4835 -1.6758  0.1761
   52MOL   C15210454   0.489   7.392   6.050  0.1074 -0.1945 -0.9146
   52MOL   C15310455   0.499   7.540   6.088  0.3544 -0.5869  0.4972
   52MOL   C15410456   0.518   7.639   5.994  0.1882  0.0274 -0.3377
   52MOL   C15510457   0.516   7.788   6.025  0.5392 -0.1003 -0.7351
   52MOL   H15610458   0.564   7.353   6.119 -1.4315 -1.1245  0.2544
   52MOL   H15710459   0.519   7.369   5.948  2.0118 -1.9564  0.0084
   52MOL   H15810460   0.481   7.575   6.188  0.7100 -0.0921  0.3883
   52MOL   H15910461   0.535   7.610   5.891 -0.1472 -1.9196  0.1338
   52MOL   H16010462   0.608   7.846   6.025 -0.2927  1.2370  0.0056
   52MOL   H16110463   0.481   7.796   6.128 -0.6355 -0.1066 -1.1326
   52MOL   C16210464   0.407   7.862   5.940 -0.1724 -0.0876 -0.8569
   52MOL   C16310465   0.273   7.795   5.949 -0.0244  0.1786  0.0946
   52MOL   C16410466   0.169   7.855   6.017 -0.6246  0.5836 -0.9016
   52MOL   C16510467   0.033   7.800   6.045  0.0187 -0.1247  0.2612
   52MOL   H16610468   0.409   7.967   5.966  0.0132 -0.5629  1.1265
   52MOL   H16710469   0.434   7.856   5.834  1.6329 -0.2625 -0.3948
   52MOL   H16810470   0.261   7.706   5.889  0.1766  0.1014  0.1701
   52MOL   H16910471   0.204   7.947   6.060 -1.2376 -0.2815  1.5128
   52MOL   H17010472   0.032   7.760   6.146 -0.0347 -0.5320  0.1012
   52MOL   H17110473   0.016   7.717   5.976 -0.0504  1.3504 -1.5258
   52MOL   C17210474   7.907   7.908   6.029  0.4667 -0.2622  0.5253
   52MOL   C17310475   7.774   7.848   5.985  0.1992  0.0654  0.1601
   52MOL   C17410476   7.673   7.826   6.068 -0.7897 -0.4855 -0.5677
   52MOL   C17510477   7.547   7.749   6.035 -0.1833  0.1874 -0.1360
   52MOL   H17610478   7.888   7.968   6.118  0.3843 -0.8566  0.9066
   52MOL   H17710479   7.921   7.975   5.943  1.6442 -2.2940 -0.9101
   52MOL   H17810480   7.767   7.822   5.881  0.3148 -2.6159  0.7809
   52MOL   H17910481   7.683   7.851   6.172  0.3748 -0.4367 -0.6874
   52MOL   H18010482   7.534   7.671   6.110 -1.9178  1.3416  0.7743
   52MOL   H18110483   7.542   7.702   5.937  1.2584 -0.0169 -0.1281
   52MOL   C18210484   7.434   7.842   6.044 -0.2570  0.0154  0.1832
   52MOL   C18310485   7.303   7.773   6.025  0.2800  0.2845  0.0499
   52MOL   C18410486   7.224   7.796   5.928  0.0426 -0.0684 -0.2905
   52MOL   C18510487   7.095   7.713   5.905 -0.0953  0.0854  0.0130
   52MOL   H18610488   7.438   7.895   6.139  1.4054 -1.1576  0.7795
   52MOL   H18710489   7.447   7.920   5.970 -0.0481  1.1001  1.3501
   52MOL   H18810490   7.288   7.688   6.091  1.1199 -1.5781 -2.1020
   52MOL   H18910491   7.233   7.886   5.869 -0.0591  1.0710  1.4237
   52MOL   H19010492   7.019   7.791   5.894 -0.6263 -0.0327  2.5394
   52MOL   H19110493   7.059   7.650   5.987  0.8588 -0.7961 -0.2306
   52MOL   C19210494   7.088   7.648   5.766 -0.1021 -0.4703  0.3743
   52MOL   C19310495   6.960   7.579   5.733  1.0132 -0.0777 -0.1759
   52MOL   C19410496   6.895   7.578   5.613 -0.6305  0.4647  0.2772
   52MOL   C19510497   6.760   7.518   5.588  0.1414  0.3054 -0.3829
   52MOL   H19610498   7.111   7.716   5.684 -1.6604 -0.4943 -0.1071
   52MOL   H19710499   7.172   7.580   5.752 -1.0297 -1.6974  0.6390
   52MOL   H19810500   6.933   7.529   5.825  1.6333  1.1104  0.6679
   52MOL   H19910501   6.932   7.643   5.535  1.4902 -2.3626 -1.2017
   52MOL   H20010502   6.718   7.440   5.652 -1.5371  1.3304 -0.1875
   52MOL   H20110503   6.753   7.470   5.490  0.5337 -2.0300  0.7105
   52MOL   H20210504   6.691   7.603   5.592  0.3642  0.5353 -1.3551
   53MOL     C110505   7.240   2.387   4.220  0.1124  0.4288 -0.3495
   53MOL     C210506   7.379   2.399   4.271  0.6720 -0.9527  0.1920
   53MOL     C310507   7.481   2.461   4.208 -0.3398  0.9610 -0.0852
   53MOL     C410508   7.616   2.485   4.268 -0.3026  0.8577  0.0141
   53MOL     H510509   7.193   2.290   4.239 -0.0663  0.7257  0.7385
   53MOL     H610510   7.240   2.397   4.111  2.6609 -1.0063 -0.5351
   53MOL     H710511   7.396   2.363   4.372 -0.2422 -1.9190  0.0209
   53MOL     H810512   7.463   2.507   4.112  1.3330  1.2199 -0.2786
   53MOL     H910513   7.690   2.438   4.204  2.4326  3.2924  1.2636
   53MOL    H1010514   7.636   2.429   4.359  0.7526 -3.2613 -2.6584
   53MOL    H1110515   7.181   2.468   4.261 -0.4355 -0.1745  0.0672
   53MOL    C1210516   7.641   2.631   4.298  0.1654 -0.0706  0.1337
   53MOL    C1310517   7.781   2.659   4.356  0.1853  0.5694  0.0498
   53MOL    C1410518   7.855   2.761   4.316  0.0204 -0.6498 -0.0469
   53MOL    C1510519   0.018   2.806   4.367 -0.1440  0.0741  0.3079
   53MOL    H1610520   7.616   2.689   4.209 -0.6631  1.8404  1.5741
   53MOL    H1710521   7.578   2.657   4.383  0.8610 -0.6813  0.8521
   53MOL    H1810522   7.823   2.594   4.432  0.6398  1.1676  0.3152
   53MOL    H1910523   7.824   2.810   4.225 -0.2407  0.4283  0.6170
   53MOL    H2010524   0.021   2.751   4.461  0.9077 -0.4069 -0.0011
   53MOL    H2110525   0.032   2.914   4.377 -1.0949  0.3142 -0.8371
   53MOL    C2210526   0.126   2.769   4.263  0.7452 -0.5825 -0.1646
   53MOL    C2310527   0.268   2.793   4.306 -0.2568 -0.2272 -0.0061
   53MOL    C2410528   0.318   2.835   4.418 -0.0448 -0.0332  0.0723
   53MOL    C2510529   0.467   2.838   4.460  1.1126 -0.4708 -0.3602
   53MOL    H2610530   0.126   2.666   4.230  2.1999 -0.1882 -1.4717
   53MOL    H2710531   0.108   2.834   4.177  2.2161 -0.4115 -0.3623
   53MOL    H2810532   0.336   2.770   4.225 -2.3316 -3.5575 -0.9347
   53MOL    H2910533   0.251   2.862   4.498  2.6515  1.8225  1.8154
   53MOL    H3010534   0.526   2.825   4.369 -1.3118  0.7869 -2.1905
   53MOL    H3110535   0.480   2.755   4.530 -0.2560 -0.0489  0.4248
   53MOL    C3210536   0.516   2.973   4.531 -0.5456  0.1314 -0.1610
   53MOL    C3310537   0.500   3.107   4.452  0.8796  0.7826  0.4106
   53MOL    C3410538   0.484   3.118   4.318 -0.3073  0.1365  0.7224
   53MOL    C3510539   0.477   3.253   4.258 -0.1704  0.4146 -0.6428
   53MOL    H3610540   0.466   2.967   4.627 -0.7007 -0.1770 -0.2569
   53MOL    H3710541   0.622   2.951   4.546 -0.7184 -1.1679 -0.6747
   53MOL    H3810542   0.504   3.204   4.498 -0.3588  1.7141 -1.3769
   53MOL    H3910543   0.481   3.037   4.247 -3.1033  0.1951  0.6927
   53MOL    H4010544   0.575   3.284   4.223 -0.1582  1.4672  0.2810
   53MOL    H4110545   0.430   3.320   4.330  0.1004 -1.8482  1.6960
   53MOL    C4210546   0.389   3.247   4.131 -0.0301 -0.1225  0.7045
   53MOL    C4310547   0.388   3.371   4.055 -0.2904 -0.2207  0.2575
   53MOL    C4410548   0.287   3.456   4.044  0.5062 -0.2907  0.4564
   53MOL    C4510549   0.301   3.595   3.977  0.1631 -0.2922  0.5169
   53MOL    H4610550   0.418   3.162   4.068  0.1969  2.5253 -2.9145
   53MOL    H4710551   0.288   3.220   4.162  0.8047 -0.4250  3.2565
   53MOL    H4810552   0.477   3.395   3.998 -0.2695  0.0523  0.4020
   53MOL    H4910553   0.195   3.433   4.096  0.1762 -0.3437 -0.1475
   53MOL    H5010554   0.229   3.613   3.897 -1.5137 -0.0686  2.0466
   53MOL    H5110555   0.396   3.604   3.925  0.2413  0.1609  0.7296
   53MOL    C5210556   0.283   3.706   4.088  0.4776  0.3275  0.3739
   53MOL    C5310557   0.331   3.843   4.044  0.0790 -0.4233 -0.1728
   53MOL    C5410558   0.447   3.905   4.082  0.0370 -0.3372 -0.0120
   53MOL    C5510559   0.507   4.041   4.043  0.3245  0.2312  0.5696
   53MOL    H5610560   0.179   3.722   4.114  0.4860 -2.5846  2.4907
   53MOL    H5710561   0.330   3.680   4.183  0.0646 -0.8139  0.2693
   53MOL    H5810562   0.268   3.886   3.967  0.1054  0.3396  0.2233
   53MOL    H5910563   0.502   3.853   4.159 -1.8664  0.1165  1.6862
   53MOL    H6010564   0.513   4.061   3.936 -0.4729 -1.4806  0.1949
   53MOL    H6110565   0.603   4.058   4.092  0.3457 -0.6502  0.8420
   53MOL    C6210566   0.410   4.151   4.093 -0.0196  0.1982 -0.4479
   53MOL    C6310567   0.468   4.292   4.073  0.7325 -0.0047  0.0608
   53MOL    C6410568   0.425   4.383   3.985  0.3969  0.2380  0.1580
   53MOL    C6510569   0.482   4.516   3.965  0.6397 -0.3064 -0.6523
   53MOL    H6610570   0.320   4.127   4.038 -0.0130 -0.6763 -0.0892
   53MOL    H6710571   0.395   4.145   4.201 -1.6969 -0.8994 -0.7341
   53MOL    H6810572   0.550   4.319   4.138 -1.1687  2.3167  1.5596
   53MOL    H6910573   0.339   4.356   3.926 -0.4272 -0.2144  1.5302
   53MOL    H7010574   0.506   4.520   3.859  1.6189  1.9572 -0.3818
   53MOL    H7110575   0.564   4.542   4.032 -0.5840  1.2872  0.2825
   53MOL    C7210576   0.394   4.632   4.014  0.8666 -0.0375  0.0325
   53MOL    C7310577   0.455   4.766   3.978  0.5448 -0.2504 -0.7264
   53MOL    C7410578   0.438   4.877   4.051  0.9207 -0.6416  0.3112
   53MOL    C7510579   0.501   5.018   4.021  0.1841 -0.4123  0.5646
   53MOL    H7610580   0.298   4.626   3.962  0.7782 -1.2035  0.3200
   53MOL    H7710581   0.385   4.625   4.122 -0.7610  1.5711  0.0168
   53MOL    H7810582   0.505   4.767   3.881 -0.4843 -2.6210 -1.3158
   53MOL    H7910583   0.376   4.875   4.140 -1.0438 -2.7995 -1.0658
   53MOL    H8010584   0.574   4.999   3.942  0.0898 -0.1980  0.4263
   53MOL    H8110585   0.558   5.050   4.109  0.7303 -1.3221  0.5499
   53MOL    C8210586   0.401   5.128   3.981  0.0665 -0.4951 -0.6129
   53MOL    C8310587   0.327   5.180   4.101 -0.0170  0.3486 -0.6079
   53MOL    C8410588   0.218   5.259   4.085  0.6280 -0.0675 -0.2945
   53MOL    C8510589   0.149   5.326   4.206  0.1344  0.4159  0.4499
   53MOL    H8610590   0.462   5.214   3.953 -0.1109 -0.2249 -0.1733
   53MOL    H8710591   0.333   5.110   3.898  1.1642 -1.9008 -1.2426
   53MOL    H8810592   0.372   5.159   4.197 -0.2928  1.7128 -0.1651
   53MOL    H8910593   0.188   5.296   3.988  1.0377  0.2549 -0.2999
   53MOL    H9010594   0.194   5.287   4.297 -0.4692  0.0845  0.6094
   53MOL    H9110595   0.045   5.294   4.194  0.4043 -0.6045  0.7605
   53MOL    C9210596   0.161   5.474   4.208  0.3829 -0.0599  0.2024
   53MOL    C9310597   0.077   5.527   4.323 -0.0442 -0.1808  0.2148
   53MOL    C9410598   0.121   5.577   4.437 -0.4011  0.4494  0.1705
   53MOL    C9510599   0.039   5.612   4.567 -0.5179  0.2303 -1.0999
   53MOL    H9610600   0.265   5.503   4.222  0.3466 -0.3644  1.1470
   53MOL    H9710601   0.129   5.519   4.114 -0.0264  0.0178  0.3817
   53MOL    H9810602   7.948   5.511   4.314  0.2052 -1.4538 -0.5624
   53MOL    H9910603   0.226   5.602   4.434 -0.6561  1.6623  0.6903
   53MOL   H10010604   7.912   5.594   4.541 -1.2290  1.5075  0.7711
   53MOL   H10110605   0.039   5.717   4.596  0.5842 -0.4736  1.5326
   53MOL   C10210606   0.077   5.519   4.689 -0.1554  0.5143 -0.7655
   53MOL   C10310607   0.011   5.385   4.662 -0.7262  0.4428 -0.0592
   53MOL   C10410608   0.074   5.266   4.685 -0.0631 -0.4147 -0.2241
   53MOL   C10510609   0.003   5.130   4.662 -0.5641 -0.2740 -0.4232
   53MOL   H10610610   0.184   5.499   4.695 -0.3555 -0.4735 -0.3109
   53MOL   H10710611   0.055   5.566   4.785 -2.2081  1.2060 -1.5467
   53MOL   H10810612   7.884   5.378   4.634 -0.4378 -2.1317 -0.5761
   53MOL   H10910613   0.176   5.269   4.720 -0.5283 -0.1765  1.1221
   53MOL   H11010614   0.027   5.084   4.566 -2.3038 -1.0338 -0.4997
   53MOL   H11110615   7.875   5.157   4.652 -1.0651 -1.9999  0.0507
   53MOL   C11210616   0.038   5.039   4.782 -0.1557 -0.1473 -0.2058
   53MOL   C11310617   0.011   4.897   4.749 -0.1124  0.1949 -0.5780
   53MOL   C11410618   0.090   4.795   4.782  0.3138 -0.4104 -0.2023
   53MOL   C11510619   0.062   4.648   4.761 -1.3354 -0.1564  0.3898
   53MOL   H11610620   0.133   5.054   4.832 -0.7254  0.8958  0.5980
   53MOL   H11710621   7.934   5.053   4.853 -0.0622  0.8610 -0.2809
   53MOL   H11810622   7.894   4.875   4.700  0.0916 -0.5963 -0.6226
   53MOL   H11910623   0.175   4.818   4.845  0.9033 -1.4662 -0.6073
   53MOL   H12010624   7.946   4.650   4.704 -0.6986 -0.4533 -0.6623
   53MOL   H12110625   0.034   4.606   4.858 -0.9911  0.8789  0.9399
   53MOL   C12210626   0.171   4.571   4.691 -0.1204  0.1695 -0.6011
   53MOL   C12310627   0.175   4.428   4.751  0.9632  0.0124 -0.6116
   53MOL   C12410628   0.280   4.381   4.815  0.2569  0.3827 -0.0120
   53MOL   C12510629   0.287   4.249   4.881  0.4175  0.5806  0.2938
   53MOL   H12610630   0.151   4.567   4.584 -1.0612 -0.5724 -0.4133
   53MOL   H12710631   0.267   4.621   4.698  0.1016 -0.6196  3.3762
   53MOL   H12810632   0.085   4.370   4.737  1.4632 -0.7891 -0.5319
   53MOL   H12910633   0.368   4.444   4.818  0.9005 -0.5421  0.7111
   53MOL   H13010634   0.185   4.212   4.873  0.1308  1.6652 -1.4972
   53MOL   H13110635   0.316   4.274   4.982  0.4815  1.0451  0.1606
   53MOL   C13210636   0.385   4.167   4.812 -0.1919  0.2801  0.1127
   53MOL   C13310637   0.396   4.034   4.897 -0.3941 -0.3400  0.2602
   53MOL   C13410638   0.371   3.914   4.842 -0.3658  0.0761  0.0395
   53MOL   C13510639   0.386   3.780   4.915 -0.2630  0.4408  0.4891
   53MOL   H13610640   0.353   4.150   4.709  1.1993  2.5516 -0.7528
   53MOL   H13710641   0.478   4.224   4.806 -0.8365  1.3855  0.4199
   53MOL   H13810642   0.435   4.050   4.996 -1.8619 -0.5442  0.8842
   53MOL   H13910643   0.324   3.911   4.745 -0.2876  0.8214 -0.0258
   53MOL   H14010644   0.286   3.745   4.939 -0.2707 -0.7970 -1.2354
   53MOL   H14110645   0.441   3.799   5.007 -1.8752  2.5584  1.0559
   53MOL   C14210646   0.436   3.668   4.815 -0.6467 -0.7597 -0.3324
   53MOL   C14310647   0.399   3.527   4.854  0.1938 -0.4258 -0.4505
   53MOL   C14410648   0.477   3.417   4.850  1.2927  0.5543  0.3276
   53MOL   C14510649   0.422   3.271   4.877  0.3458  0.7646  0.1980
   53MOL   H14610650   0.380   3.698   4.726 -0.2064  2.2366  0.3262
   53MOL   H14710651   0.543   3.671   4.794 -0.7976  1.7885 -0.9498
   53MOL   H14810652   0.291   3.518   4.862  0.2486 -2.3488 -1.5996
   53MOL   H14910653   0.585   3.422   4.842  1.4212  0.6979  2.0352
   53MOL   H15010654   0.455   3.217   4.788 -0.0308 -1.5685  1.4545
   53MOL   H15110655   0.314   3.276   4.882  0.2644  1.1178 -1.5147
   53MOL   C15210656   0.483   3.211   5.006  0.7872 -0.8051  0.0581
   53MOL   C15310657   0.469   3.311   5.127 -0.3346  0.3692  0.5336
   53MOL   C15410658   0.390   3.299   5.238 -0.2712 -0.6124  1.2192
   53MOL   C15510659   0.374   3.398   5.351 -0.5086  0.4140 -0.1572
   53MOL   H15610660   0.439   3.114   5.027  0.2570 -0.3790  0.9598
   53MOL   H15710661   0.592   3.205   4.996  0.8453  0.7678 -0.4135
   53MOL   H15810662   0.526   3.402   5.115  0.2209 -0.1795 -1.0883
   53MOL   H15910663   0.337   3.207   5.255 -2.1550  0.0861 -0.7180
   53MOL   H16010664   0.424   3.492   5.330  3.2403 -1.0731  1.6993
   53MOL   H16110665   0.418   3.341   5.433 -0.6158 -0.4059 -0.6695
   53MOL   C16210666   0.227   3.432   5.382  0.1108 -0.8461 -0.2832
   53MOL   C16310667   0.185   3.542   5.292 -0.4400 -0.3094  0.5788
   53MOL   C16410668   0.130   3.653   5.341  1.0031  0.4079 -0.2192
   53MOL   C16510669   0.084   3.782   5.263 -0.5591  0.1011  0.3136
   53MOL   H16610670   0.165   3.343   5.369 -0.4018 -0.6887  0.9959
   53MOL   H16710671   0.213   3.463   5.486  1.5237  0.8756 -0.5861
   53MOL   H16810672   0.211   3.540   5.187 -0.8618  0.7407  0.4464
   53MOL   H16910673   0.119   3.663   5.448 -2.8643 -1.3809 -0.3674
   53MOL   H17010674   7.953   3.786   5.281 -1.0405  2.3934 -2.6096
   53MOL   H17110675   0.097   3.750   5.159 -3.0148 -0.5261  0.1639
   53MOL   C17210676   0.174   3.907   5.291 -0.6598 -0.8677 -0.7070
   53MOL   C17310677   0.122   4.020   5.204  0.5418  0.9864  0.6932
   53MOL   C17410678   0.095   4.142   5.240  0.1960  0.0070 -0.2685
   53MOL   C17510679   0.052   4.254   5.153  0.9239  0.2928  0.1792
   53MOL   H17610680   0.158   3.922   5.398 -2.5216 -1.7220 -0.8542
   53MOL   H17710681   0.274   3.881   5.257 -0.3591  0.1510 -0.6408
   53MOL   H17810682   0.123   3.996   5.098 -1.0799 -1.8162  1.2460
   53MOL   H17910683   0.099   4.175   5.343  0.0675  0.8159 -0.5201
   53MOL   H18010684   0.042   4.222   5.049  1.2051 -1.6301  0.7142
   53MOL   H18110685   0.129   4.330   5.147  1.0531  0.0736 -1.0662
   53MOL   C18210686   7.892   4.312   5.194 -0.4928  0.5021 -0.3938
   53MOL   C18310687   7.839   4.403   5.086 -0.1090 -0.5730 -0.1185
   53MOL   C18410688   7.719   4.389   5.035  0.5490 -0.3834 -0.3851
   53MOL   C18510689   7.662   4.501   4.948 -0.3355  0.3128 -0.0334
   53MOL   H18610690   7.828   4.224   5.200 -0.4938  0.6508  3.0753
   53MOL   H18710691   7.888   4.361   5.291  1.0751 -0.6758  0.2791
   53MOL   H18810692   7.890   4.498   5.082 -1.3579  0.1127 -0.3073
   53MOL   H18910693   7.656   4.305   5.058 -2.8033  1.2075 -3.1550
   53MOL   H19010694   7.745   4.564   4.916  0.7246 -1.7294 -1.3883
   53MOL   H19110695   7.586   4.560   5.000 -0.1746  0.8105 -0.3657
   53MOL   C19210696   7.585   4.446   4.833 -0.6102 -0.0039  0.3036
   53MOL   C19310697   7.673   4.355   4.743 -0.2015  0.5833 -0.5730
   53MOL   C19410698   7.729   4.390   4.626  0.4237  0.1363 -0.3313
   53MOL   C19510699   7.825   4.292   4.561  0.2213  0.1280  0.0364
   53MOL   H19610700   7.508   4.379   4.871 -2.5144  1.6102 -0.5758
   53MOL   H19710701   7.543   4.519   4.764 -2.3507 -0.2889  1.0162
   53MOL   H19810702   7.719   4.264   4.778  0.3448  1.2049  0.3568
   53MOL   H19910703   7.712   4.489   4.585  2.3796  0.6999  0.1496
   53MOL   H20010704   7.885   4.239   4.635 -0.0165 -1.4134 -0.8550
   53MOL   H20110705   7.888   4.351   4.495  2.5621  0.4749  2.4749
   53MOL   H20210706   7.771   4.227   4.492  1.7717 -1.3468  0.1695
   54MOL     C110707   6.715   4.146   4.381 -0.0365  0.6422  0.1282
   54MOL     C210708   6.670   4.003   4.384  0.2285 -0.8307 -0.6405
   54MOL     C310709   6.640   3.933   4.497 -0.6703  0.9078 -0.1964
   54MOL     C410710   6.605   3.784   4.505  0.5083  0.1567 -0.3925
   54MOL     H510711   6.689   4.221   4.456 -2.0253  0.6940 -0.5830
   54MOL     H610712   6.683   4.183   4.283 -1.5948 -1.2761 -0.1081
   54MOL     H710713   6.680   3.960   4.286  3.4425  2.7607 -1.9995
   54MOL     H810714   6.642   3.990   4.589  1.4116  1.0134 -0.2752
   54MOL     H910715   6.505   3.763   4.540 -0.1282  0.8887 -1.7395
   54MOL    H1010716   6.661   3.763   4.597 -1.1040 -1.7616  0.1745
   54MOL    H1110717   6.824   4.149   4.370  0.3084  1.3632  3.1602
   54MOL    C1210718   6.660   3.687   4.401 -0.1480 -0.7572  0.3255
   54MOL    C1310719   6.811   3.702   4.385 -0.7108  0.4023  0.4888
   54MOL    C1410720   6.874   3.704   4.269  0.2179  0.0193 -0.5198
   54MOL    C1510721   7.023   3.709   4.256 -0.3645 -0.0236  0.4747
   54MOL    H1610722   6.638   3.584   4.426  0.9362 -0.8451  0.9410
   54MOL    H1710723   6.616   3.704   4.302 -0.3897  2.2772  0.9106
   54MOL    H1810724   6.877   3.693   4.470 -1.9188  1.5717  1.5970
   54MOL    H1910725   6.819   3.702   4.176 -0.6202 -1.2936 -0.0191
   54MOL    H2010726   7.065   3.711   4.356  2.4012 -1.0955 -0.6127
   54MOL    H2110727   7.047   3.803   4.206 -1.1353 -1.1579 -2.1342
   54MOL    C2210728   7.086   3.591   4.184  0.0805 -0.2105 -0.0100
   54MOL    C2310729   7.224   3.620   4.144  0.0436 -0.0339  0.1073
   54MOL    C2410730   7.322   3.530   4.147  0.2482  0.5035  0.6397
   54MOL    C2510731   7.455   3.548   4.082 -0.5886 -0.6522  0.1694
   54MOL    H2610732   7.085   3.495   4.236  0.2215 -0.7799 -1.0482
   54MOL    H2710733   7.025   3.577   4.095  0.1210 -0.6785  0.0377
   54MOL    H2810734   7.229   3.709   4.083 -2.1224 -0.4572 -0.7338
   54MOL    H2910735   7.304   3.437   4.198 -0.9615 -0.0977 -0.8301
   54MOL    H3010736   7.457   3.647   4.035  1.1557 -1.5253 -1.7090
   54MOL    H3110737   7.471   3.476   4.001  0.9385 -0.0681 -0.0726
   54MOL    C3210738   7.566   3.545   4.182  0.3908  0.4151  0.8912
   54MOL    C3310739   7.702   3.579   4.114 -0.4616  0.2779 -0.1241
   54MOL    C3410740   7.786   3.482   4.078  0.6645 -0.5899 -0.0118
   54MOL    C3510741   7.908   3.493   4.002 -0.7042  0.0482  0.2123
   54MOL    H3610742   7.549   3.622   4.256 -0.9181 -0.9898  2.0726
   54MOL    H3710743   7.568   3.453   4.240 -0.8911  0.8385  1.6243
   54MOL    H3810744   7.725   3.683   4.098 -1.2941  0.2675 -1.4883
   54MOL    H3910745   7.733   3.388   4.085 -0.4618  0.1070  1.0265
   54MOL    H4010746   7.948   3.392   3.990  1.2859  0.7949  0.4205
   54MOL    H4110747   0.012   3.548   4.050 -0.0947 -0.7170  0.0836
   54MOL    C4210748   7.878   3.539   3.865 -0.4083  0.0516  0.2667
   54MOL    C4310749   7.843   3.687   3.865 -0.3625  0.1784 -0.3288
   54MOL    C4410750   7.927   3.784   3.820 -1.0223  0.3903  0.3216
   54MOL    C4510751   7.891   3.929   3.812 -0.1147 -0.8507  0.8724
   54MOL    H4610752   7.951   3.505   3.791 -1.3558  1.3019 -1.2711
   54MOL    H4710753   7.788   3.483   3.838  1.4268 -2.5529 -0.6875
   54MOL    H4810754   7.743   3.723   3.885  0.0435  1.3863 -0.3933
   54MOL    H4910755   0.041   3.744   3.777 -1.6894  2.2690 -3.0553
   54MOL    H5010756   7.787   3.938   3.841 -0.5366  0.1886 -0.9705
   54MOL    H5110757   7.898   3.954   3.707 -2.2497 -1.4245  0.5825
   54MOL    C5210758   0.021   4.005   3.882  0.4038 -0.2950 -0.2883
   54MOL    C5310759   7.977   4.152   3.864  0.5354 -0.1949  0.8251
   54MOL    C5410760   0.090   4.236   3.810  0.1408 -0.5393 -0.1727
   54MOL    C5510761   0.077   4.387   3.797  0.1389 -0.3255  0.6651
   54MOL    H5610762   0.016   3.988   3.990  0.6406 -0.7605 -0.3466
   54MOL    H5710763   0.116   3.969   3.843  1.7865  4.3131 -1.3879
   54MOL    H5810764   7.883   4.198   3.892 -0.1026 -0.1622 -1.3095
   54MOL    H5910765   0.183   4.197   3.772  0.7604  0.4586  0.2741
   54MOL    H6010766   0.134   4.413   3.886 -0.5019 -0.6549  1.1739
   54MOL    H6110767   7.953   4.426   3.808 -1.5283 -3.8181 -1.0642
   54MOL    C6210768   0.147   4.439   3.667 -0.5162 -0.0497  0.1794
   54MOL    C6310769   0.076   4.407   3.536  0.2711  0.6817 -0.5681
   54MOL    C6410770   0.138   4.344   3.439 -0.3505  0.3651 -0.3622
   54MOL    C6510771   0.074   4.302   3.307  0.2252 -0.6724 -0.8966
   54MOL    H6610772   0.134   4.547   3.658  0.9220  0.0907 -0.3765
   54MOL    H6710773   0.252   4.412   3.669 -0.6650 -0.6017  0.8568
   54MOL    H6810774   7.949   4.434   3.522  0.2319  0.5238 -0.5875
   54MOL    H6910775   0.245   4.326   3.444 -0.0373  1.9205 -1.1394
   54MOL    H7010776   0.118   4.374   3.237  0.4218  0.7075  0.6210
   54MOL    H7110777   7.943   4.312   3.305  0.2669 -0.0734 -0.3142
   54MOL    C7210778   0.109   4.154   3.282 -0.3128 -0.9863  0.1034
   54MOL    C7310779   0.050   4.095   3.153  0.2604  0.9996 -0.8016
   54MOL    C7410780   0.117   4.092   3.042 -0.4439 -0.3564 -0.7510
   54MOL    C7510781   0.084   4.028   2.907 -0.0118  0.4708 -0.2000
   54MOL    H7610782   0.215   4.127   3.288  0.2569  1.0675 -0.2933
   54MOL    H7710783   0.062   4.099   3.363 -1.0462 -2.3292 -1.2030
   54MOL    H7810784   7.930   4.049   3.162  1.1846 -0.4746  2.4883
   54MOL    H7910785   0.221   4.121   3.041 -0.9577  1.4883 -1.4750
   54MOL    H8010786   7.965   3.975   2.909  0.8516 -1.1805 -1.1668
   54MOL    H8110787   0.152   3.946   2.884 -2.5145 -1.4289 -1.1659
   54MOL    C8210788   0.088   4.143   2.809 -0.2899  0.2656 -0.5447
   54MOL    C8310789   7.945   4.231   2.841 -0.2055  0.4308  0.3864
   54MOL    C8410790   7.958   4.362   2.849 -1.0899 -0.5588 -0.3272
   54MOL    C8510791   7.849   4.464   2.881  0.3178 -0.3492 -0.4339
   54MOL    H8610792   0.174   4.209   2.803 -0.3974  0.2120 -3.0668
   54MOL    H8710793   0.084   4.103   2.708  0.6620  3.0857 -1.7202
   54MOL    H8810794   7.848   4.185   2.844  0.5663 -1.1775  1.5755
   54MOL    H8910795   0.078   4.409   2.841  0.1528 -2.8771  0.7034
   54MOL    H9010796   7.753   4.413   2.873  0.3705 -0.1945 -2.4453
   54MOL    H9110797   7.853   4.544   2.807 -1.9375 -0.5518 -0.8042
   54MOL    C9210798   7.862   4.517   3.028  0.7660  0.1770  0.1129
   54MOL    C9310799   0.006   4.599   3.059 -0.2343  0.0875 -0.0598
   54MOL    C9410800   0.021   4.729   3.033 -0.0222  0.2979 -0.4240
   54MOL    C9510801   0.142   4.803   3.075 -0.3548 -0.6639 -0.0225
   54MOL    H9610802   7.778   4.580   3.054  0.2860 -1.0504  1.5841
   54MOL    H9710803   7.847   4.440   3.103  0.2214 -0.9049 -1.0802
   54MOL    H9810804   0.089   4.560   3.117  0.0957  1.1730  0.2122
   54MOL    H9910805   7.923   4.785   2.978 -0.9350  0.7209  1.2360
   54MOL   H10010806   0.208   4.759   3.150  3.6651  0.5428 -2.6591
   54MOL   H10110807   0.113   4.900   3.114 -1.1336 -0.1081 -1.9218
   54MOL   C10210808   0.236   4.820   2.960 -1.0182  0.0378  0.2611
   54MOL   C10310809   0.375   4.874   2.999  0.6765 -0.7458  0.7149
   54MOL   C10410810   0.400   4.998   3.036  0.9407  0.0139  0.1700
   54MOL   C10510811   0.533   5.046   3.086 -0.0308  0.2007 -0.1627
   54MOL   H10610812   0.255   4.722   2.915 -0.0629  0.8050 -1.0824
   54MOL   H10710813   0.197   4.881   2.878  1.4643 -0.4266 -1.3377
   54MOL   H10810814   0.452   4.801   3.018  1.9152  0.5377  0.7243
   54MOL   H10910815   0.316   5.063   3.018 -0.5648 -2.1083 -0.5781
   54MOL   H11010816   0.559   5.131   3.023 -3.2570  0.4415 -1.2698
   54MOL   H11110817   0.608   4.968   3.090 -0.6635 -0.5057 -1.6910
   54MOL   C11210818   0.524   5.106   3.228  0.2513 -0.7659 -0.3545
   54MOL   C11310819   0.655   5.173   3.277  0.2078  0.1907 -0.6759
   54MOL   C11410820   0.700   5.286   3.229 -0.8833 -0.0553  0.2055
   54MOL   C11510821   0.823   5.342   3.302 -0.1353  0.2712  0.4095
   54MOL   H11610822   0.450   5.186   3.236  0.6292 -0.3342 -1.2117
   54MOL   H11710823   0.491   5.032   3.301 -0.5734  0.7456  0.8321
   54MOL   H11810824   0.712   5.117   3.349 -2.1296 -0.9704  0.3280
   54MOL   H11910825   0.641   5.349   3.164  0.8747 -1.4276 -2.8139
   54MOL   H12010826   0.871   5.272   3.370 -2.2840 -0.9419  0.7425
   54MOL   H12110827   0.782   5.416   3.370 -2.2844 -1.9829  1.6599
   54MOL   C12210828   0.920   5.405   3.196  0.3193  0.2879 -0.0843
   54MOL   C12310829   1.053   5.448   3.246  0.3934 -0.4723  0.2396
   54MOL   C12410830   1.093   5.575   3.248 -0.1487  0.2791  0.3049
   54MOL   C12510831   1.237   5.621   3.285 -0.1577  0.0172 -0.1089
   54MOL   H12610832   0.957   5.321   3.138  0.3818 -0.4573  1.0059
   54MOL   H12710833   0.873   5.479   3.131 -0.1811  0.3914  0.3930
   54MOL   H12810834   1.126   5.376   3.278  1.6951 -0.2123 -2.0626
   54MOL   H12910835   1.027   5.654   3.213  1.8922  2.6852  1.6569
   54MOL   H13010836   1.274   5.691   3.211  0.4545  1.7405  1.7637
   54MOL   H13110837   1.307   5.538   3.291  1.1845  1.2143  1.0714
   54MOL   C13210838   1.238   5.707   3.415 -0.3314  1.1539 -0.4007
   54MOL   C13310839   1.198   5.622   3.533  0.1733 -0.1678  0.3093
   54MOL   C13410840   1.123   5.666   3.632 -0.1333  1.0963 -0.0948
   54MOL   C13510841   1.074   5.589   3.758 -0.6412 -0.0513  0.3929
   54MOL   H13610842   1.336   5.754   3.428 -1.2890  3.1333 -0.1488
   54MOL   H13710843   1.184   5.802   3.411  0.4057  1.5980 -0.0333
   54MOL   H13810844   1.237   5.521   3.530  1.2942  0.2814 -0.9195
   54MOL   H13910845   1.086   5.767   3.621  0.1861  1.3239  0.8681
   54MOL   H14010846   1.114   5.631   3.851  0.5011  0.4353 -0.3028
   54MOL   H14110847   1.125   5.493   3.760 -0.6496 -0.1038 -1.2078
   54MOL   C14210848   0.921   5.586   3.777  0.1228 -0.0024  0.3665
   54MOL   C14310849   0.859   5.495   3.882 -0.5477  0.5490  0.4732
   54MOL   C14410850   0.909   5.383   3.947  1.1986  1.2822  0.1482
   54MOL   C14510851   0.831   5.291   4.047 -0.3439 -0.2820  0.4562
   54MOL   H14610852   0.896   5.690   3.798  1.3554  0.3886 -0.0884
   54MOL   H14710853   0.877   5.566   3.680  1.2564  0.6577 -0.2906
   54MOL   H14810854   0.756   5.526   3.889 -0.6088  0.7471 -1.1584
   54MOL   H14910855   1.011   5.355   3.926  0.6989 -0.8386  0.3764
   54MOL   H15010856   0.817   5.192   4.002 -0.8009  0.1004 -0.2658
   54MOL   H15110857   0.735   5.339   4.063 -1.6378 -2.5816 -0.0473
   54MOL   C15210858   0.908   5.264   4.181  0.1720 -0.3572  0.0719
   54MOL   C15310859   0.850   5.152   4.264  0.5179  0.1636  0.5129
   54MOL   C15410860   0.906   5.035   4.290 -0.3984 -0.3187 -0.4635
   54MOL   C15510861   0.854   4.920   4.374 -0.4101  0.7183  0.2378
   54MOL   H15610862   1.011   5.248   4.150  1.1698  2.8572  1.4777
   54MOL   H15710863   0.904   5.355   4.241  1.1363  1.6886 -2.8599
   54MOL   H15810864   0.751   5.175   4.302  0.7862 -1.6332  2.3521
   54MOL   H15910865   1.005   5.014   4.253  0.1052  0.7780  0.2477
   54MOL   H16010866   0.852   4.832   4.310  0.5860  1.3648 -0.6968
   54MOL   H16110867   0.747   4.934   4.389 -0.6807 -1.5685  0.5384
   54MOL   C16210868   0.927   4.911   4.515 -0.2080 -0.1832  0.0472
   54MOL   C16310869   0.917   4.784   4.600 -0.9111 -0.4951 -0.3014
   54MOL   C16410870   1.003   4.684   4.598  0.0077  0.0836 -0.3305
   54MOL   C16510871   1.005   4.577   4.707  0.2582 -0.3444  0.0553
   54MOL   H16610872   1.033   4.927   4.494 -0.3696 -0.8358 -1.3544
   54MOL   H16710873   0.897   4.993   4.580 -1.9991  0.0224 -1.0225
   54MOL   H16810874   0.836   4.788   4.671  0.5684 -1.7025  1.5146
   54MOL   H16910875   1.084   4.685   4.526  1.8296 -0.7430  1.6691
   54MOL   H17010876   0.945   4.616   4.790  1.2433  0.1150  0.5625
   54MOL   H17110877   1.107   4.557   4.740 -0.4009 -1.6907  1.3507
   54MOL   C17210878   0.939   4.452   4.652  0.0096  0.3154 -0.7186
   54MOL   C17310879   0.920   4.350   4.760  0.1941  0.4163 -0.1854
   54MOL   C17410880   0.982   4.230   4.762  0.2903  0.6460 -0.2309
   54MOL   C17510881   0.952   4.119   4.872 -0.6003  0.6481 -0.1425
   54MOL   H17610882   0.844   4.479   4.606  0.0471  0.0862 -0.9309
   54MOL   H17710883   0.997   4.414   4.569  0.9917  0.0556  0.0818
   54MOL   H17810884   0.844   4.373   4.834 -0.7050  1.9634 -1.5542
   54MOL   H17910885   1.044   4.196   4.681  2.0695 -0.2059  1.4556
   54MOL   H18010886   0.892   4.178   4.941 -3.0376 -1.9685  0.0414
   54MOL   H18110887   1.038   4.095   4.934 -0.2907  2.4700  0.1691
   54MOL   C18210888   0.894   3.987   4.818 -0.5500 -0.5962 -0.1225
   54MOL   C18310889   0.902   3.879   4.921 -0.5129  0.7191 -0.1469
   54MOL   C18410890   0.803   3.822   4.995 -0.2947 -0.1655 -1.1613
   54MOL   C18510891   0.836   3.719   5.097  0.4104  0.0134 -0.7132
   54MOL   H18610892   0.789   3.993   4.789 -0.6853 -0.2511  0.4343
   54MOL   H18710893   0.948   3.942   4.734 -2.2063 -1.8954 -0.5159
   54MOL   H18810894   1.001   3.850   4.951  0.0632  1.3363 -1.4292
   54MOL   H18910895   0.701   3.836   4.965 -0.1687  0.2216 -1.4229
   54MOL   H19010896   0.906   3.760   5.170 -0.0025  1.2157 -0.9957
   54MOL   H19110897   0.876   3.631   5.046  0.8462  0.5800 -1.3446
   54MOL   C19210898   0.715   3.680   5.180  0.0146  0.8413  0.5452
   54MOL   C19310899   0.759   3.561   5.264 -0.4183 -0.6256 -0.1621
   54MOL   C19410900   0.741   3.557   5.396  0.3510 -0.3970 -1.0483
   54MOL   C19510901   0.778   3.440   5.489 -0.7144  0.8548  0.4013
   54MOL   H19610902   0.681   3.761   5.245  0.9988  1.6874  0.0288
   54MOL   H19710903   0.635   3.641   5.117  0.1023  1.3144  0.1364
   54MOL   H19810904   0.797   3.470   5.220  1.0937 -0.9275  1.6914
   54MOL   H19910905   0.696   3.638   5.452  1.7180  0.0895 -0.6271
   54MOL   H20010906   0.861   3.475   5.552 -0.5306 -1.8093  1.7198
   54MOL   H20110907   0.792   3.345   5.439 -1.7963 -0.6900  2.9401
   54MOL   H20210908   0.685   3.435   5.546 -1.5474  1.4148 -0.9018
   55MOL     C110909   4.690   1.138   2.270 -0.3100 -0.3122 -0.4212
   55MOL     C210910   4.621   1.280   2.256  0.0746  0.1399 -0.0593
   55MOL     C310911   4.504   1.318   2.311 -0.0666  0.7752  0.0761
   55MOL     C410912   4.420   1.443   2.298 -0.6329  0.3577 -0.0040
   55MOL     H510913   4.693   1.070   2.186 -0.4005 -0.4204 -0.3363
   55MOL     H610914   4.638   1.077   2.344 -1.3019  0.4161 -0.5065
   55MOL     H710915   4.665   1.355   2.193 -0.4063  1.0535  0.6769
   55MOL     H810916   4.453   1.254   2.381  1.5247  0.5305  1.0369
   55MOL     H910917   4.396   1.477   2.399 -0.9738  1.1006 -0.3344
   55MOL    H1010918   4.326   1.412   2.253 -0.4355  1.0709 -0.9130
   55MOL    H1110919   4.790   1.133   2.312 -0.5257  2.0735  0.4626
   55MOL    C1210920   4.495   1.561   2.225 -0.4334  0.4346  0.0776
   55MOL    C1310921   4.400   1.678   2.212  0.3216 -0.2454  0.1609
   55MOL    C1410922   4.290   1.666   2.142 -0.0719  0.1466 -0.4001
   55MOL    C1510923   4.194   1.785   2.136 -0.4967  0.2238  0.6756
   55MOL    H1610924   4.586   1.596   2.274 -0.0202 -2.6624  1.7096
   55MOL    H1710925   4.512   1.530   2.122 -0.0504 -1.7364  0.7594
   55MOL    H1810926   4.435   1.773   2.250 -1.4023  0.8451 -0.9056
   55MOL    H1910927   4.263   1.575   2.092 -0.8287  1.1603 -1.8899
   55MOL    H2010928   4.239   1.871   2.186  1.1672  0.1594 -0.6697
   55MOL    H2110929   4.098   1.761   2.183 -1.4154 -0.8133 -1.6457
   55MOL    C2210930   4.170   1.833   1.997  0.5051 -0.2986  0.1870
   55MOL    C2310931   4.053   1.926   1.989 -0.0774 -0.4185 -0.2578
   55MOL    C2410932   4.062   2.062   1.978  0.1714 -0.1571  0.0983
   55MOL    C2510933   3.951   2.166   1.949 -0.6180 -0.2684 -0.2251
   55MOL    H2610934   4.261   1.870   1.951  0.3746  0.5635  0.6169
   55MOL    H2710935   4.138   1.752   1.932  0.3052 -0.2280  0.1968
   55MOL    H2810936   3.954   1.881   1.990  0.5303 -1.7602  0.1469
   55MOL    H2910937   4.166   2.090   1.973  0.1285 -0.5136 -3.6183
   55MOL    H3010938   3.958   2.249   2.020  0.9957  0.5016 -1.2474
   55MOL    H3110939   3.858   2.108   1.954 -1.2150  0.5077 -1.9636
   55MOL    C3210940   3.962   2.229   1.804  0.9416  0.0977  0.6238
   55MOL    C3310941   3.830   2.284   1.750 -0.1045 -0.2543  0.6522
   55MOL    C3410942   3.804   2.413   1.741 -0.1957  0.1184 -0.2733
   55MOL    C3510943   3.691   2.473   1.650 -0.3394 -0.8076 -0.6625
   55MOL    H3610944   4.036   2.309   1.803  0.1535  0.8446 -0.6664
   55MOL    H3710945   4.000   2.153   1.735 -0.8431 -0.3159  0.0655
   55MOL    H3810946   3.765   2.216   1.696  0.7733  0.4385 -1.3093
   55MOL    H3910947   3.870   2.480   1.795  1.3341 -3.5838  2.6408
   55MOL    H4010948   3.615   2.516   1.715 -0.2262 -0.4762 -0.7485
   55MOL    H4110949   3.654   2.392   1.587 -0.9446 -1.1832  0.1808
   55MOL    C4210950   3.745   2.579   1.546 -0.1178  0.2863 -0.1185
   55MOL    C4310951   3.834   2.513   1.448  0.2719  0.4930 -0.3031
   55MOL    C4410952   3.806   2.491   1.319  0.6054 -0.5157 -0.7818
   55MOL    C4510953   3.889   2.421   1.208  0.0306 -0.1292  0.1932
   55MOL    H4610954   3.656   2.616   1.495 -0.2897  1.0988  0.7614
   55MOL    H4710955   3.796   2.665   1.590  0.3254 -1.4671  2.8819
   55MOL    H4810956   3.928   2.475   1.486 -0.1408 -1.0014 -0.7376
   55MOL    H4910957   3.711   2.527   1.282  1.3252  1.6331 -0.6211
   55MOL    H5010958   3.995   2.448   1.203  0.3927 -1.7167 -0.7848
   55MOL    H5110959   3.862   2.470   1.114 -0.5156 -0.1458  0.3367
   55MOL    C5210960   3.872   2.274   1.183 -0.2705 -0.6715 -0.9223
   55MOL    C5310961   3.909   2.182   1.297 -0.3314  0.4181  0.0664
   55MOL    C5410962   4.029   2.131   1.306 -0.3600 -0.3068 -0.0184
   55MOL    C5510963   4.079   2.056   1.428  0.4748  0.1008 -0.5805
   55MOL    H5610964   3.766   2.254   1.169 -0.6587 -0.1436  1.0674
   55MOL    H5710965   3.937   2.252   1.097  0.9012  1.1620 -0.5478
   55MOL    H5810966   3.832   2.177   1.373 -3.2295 -0.4366 -2.7991
   55MOL    H5910967   4.101   2.144   1.226  0.5883  0.8783  0.9987
   55MOL    H6010968   4.018   2.072   1.517  0.1085 -2.0603 -0.4133
   55MOL    H6110969   4.179   2.095   1.446 -0.0873  0.9100  0.8245
   55MOL    C6210970   4.092   1.904   1.418  0.3154  0.0367 -0.6931
   55MOL    C6310971   4.173   1.840   1.527 -0.3779  0.2974 -0.2785
   55MOL    C6410972   4.268   1.750   1.507  0.7671 -0.5719  0.0354
   55MOL    C6510973   4.353   1.690   1.616 -0.4881 -0.2240 -0.0153
   55MOL    H6610974   3.990   1.866   1.427 -0.0682  0.9371 -1.0860
   55MOL    H6710975   4.122   1.869   1.319  2.3053 -0.3413  0.0296
   55MOL    H6810976   4.161   1.874   1.628 -0.0681 -1.6770  0.4421
   55MOL    H6910977   4.291   1.729   1.404  2.0230  0.4415  0.1051
   55MOL    H7010978   4.348   1.757   1.701  1.4004  0.9884 -0.8088
   55MOL    H7110979   4.461   1.697   1.599 -0.4303 -1.4664 -0.2449
   55MOL    C7210980   4.314   1.549   1.653 -0.0285 -0.2227  0.7902
   55MOL    C7310981   4.405   1.496   1.763  0.1420 -0.0368  0.6550
   55MOL    C7410982   4.523   1.431   1.729  0.5378  0.8923 -0.2944
   55MOL    C7510983   4.606   1.379   1.846  0.1336  0.5898  0.7275
   55MOL    H7610984   4.209   1.543   1.680  0.2908  0.9264  2.3664
   55MOL    H7710985   4.334   1.483   1.569 -2.2926 -0.4469  0.4029
   55MOL    H7810986   4.372   1.507   1.865  0.2552 -1.2561  0.8327
   55MOL    H7910987   4.559   1.426   1.627 -0.2943  1.1876 -0.6108
   55MOL    H8010988   4.635   1.277   1.821 -2.0624  0.8006 -3.0399
   55MOL    H8110989   4.545   1.359   1.934 -1.7246 -0.6998 -0.7994
   55MOL    C8210990   4.728   1.465   1.871 -0.6914 -0.0526  0.1770
   55MOL    C8310991   4.813   1.424   1.994  0.0399 -0.2901 -0.5005
   55MOL    C8410992   4.832   1.501   2.104  0.1674 -0.2736 -0.2597
   55MOL    C8510993   4.917   1.463   2.229 -1.0677 -0.2778 -0.1661
   55MOL    H8610994   4.791   1.480   1.783 -1.2115  2.2956  0.1716
   55MOL    H8710995   4.690   1.565   1.892  0.7539  0.0302  2.5727
   55MOL    H8810996   4.841   1.320   2.001 -0.2578 -0.3470 -0.1400
   55MOL    H8910997   4.790   1.601   2.100 -0.3235 -0.5165 -1.4908
   55MOL    H9010998   4.908   1.355   2.242 -2.8849 -0.3284 -1.5672
   55MOL    H9110999   4.872   1.510   2.317  2.3719 -2.4604  2.8714
   55MOL    C9211000   5.064   1.517   2.218  0.0721 -0.4046 -0.2708
   55MOL    C9311001   5.136   1.502   2.352  0.5196 -0.2929  0.1867
   55MOL    C9411002   5.253   1.430   2.359  0.3547 -0.0056 -0.1041
   55MOL    C9511003   5.326   1.407   2.490  1.4885 -0.1511 -0.1411
   55MOL    H9611004   5.130   1.466   2.148 -1.1705 -1.3653 -0.7618
   55MOL    H9711005   5.067   1.624   2.196  3.4474 -0.9080 -2.6320
   55MOL    H9811006   5.091   1.538   2.443 -1.1315  0.7474 -1.0039
   55MOL    H9911007   5.302   1.394   2.270  0.6048 -3.8393  1.4779
   55MOL   H10011008   5.350   1.503   2.535  0.3287  0.3185 -0.5190
   55MOL   H10111009   5.419   1.357   2.460  1.3115  0.7680 -2.3480
   55MOL   C10211010   5.248   1.317   2.585  0.6293 -0.0201  0.0095
   55MOL   C10311011   5.346   1.255   2.680 -0.6872  0.8284  0.3274
   55MOL   C10411012   5.377   1.126   2.677 -0.8845 -0.0033 -0.5053
   55MOL   C10511013   5.461   1.041   2.776  0.2280  0.0069  0.7316
   55MOL   H10611014   5.168   1.364   2.643  1.3939  0.1540  0.9336
   55MOL   H10711015   5.190   1.244   2.528  1.1688  0.4212 -1.1111
   55MOL   H10811016   5.394   1.317   2.755 -0.2392  0.6699  0.1696
   55MOL   H10911017   5.333   1.059   2.605  0.8504  0.1134 -1.7110
   55MOL   H11011018   5.564   1.077   2.773  0.7079 -1.2945  1.2247
   55MOL   H11111019   5.459   0.945   2.725 -1.6877  0.5075 -0.1920
   55MOL   C11211020   5.403   1.031   2.915 -0.3218 -0.3606 -0.0629
   55MOL   C11311021   5.455   0.914   2.995  0.2729 -0.1184 -0.5962
   55MOL   C11411022   5.491   0.919   3.124 -0.5217  0.5321 -0.1443
   55MOL   C11511023   5.532   0.791   3.205  0.7161  0.1899 -0.1686
   55MOL   H11611024   5.419   1.126   2.964 -3.1825 -1.2557  2.7760
   55MOL   H11711025   5.294   1.029   2.917 -0.3429 -0.0964 -0.7192
   55MOL   H11811026   5.443   0.819   2.945 -1.2568  0.3078 -1.0475
   55MOL   H11911027   5.505   1.015   3.171  1.8696  0.2561 -0.2458
   55MOL   H12011028   5.493   0.699   3.161 -0.7249  0.3008  0.8421
   55MOL   H12111029   5.495   0.806   3.307 -2.2383 -0.3157 -1.1145
   55MOL   C12211030   5.685   0.776   3.196 -0.2298 -0.3752  0.2362
   55MOL   C12311031   5.747   0.879   3.285  0.0307 -0.0647  0.8249
   55MOL   C12411032   5.804   0.852   3.399 -0.5299  0.9971 -0.3331
   55MOL   C12511033   5.863   0.962   3.484  0.0473 -0.5983 -0.1917
   55MOL   H12611034   5.718   0.677   3.227 -0.1641 -0.4682 -0.1291
   55MOL   H12711035   5.713   0.795   3.092 -0.5011  2.3225  0.6248
   55MOL   H12811036   5.750   0.981   3.251  0.2602 -0.0908  0.7698
   55MOL   H12911037   5.798   0.754   3.442  1.5019  0.7941 -0.4533
   55MOL   H13011038   5.898   1.047   3.426  2.3751 -0.4471  1.4112
   55MOL   H13111039   5.960   0.927   3.517  0.2455  0.1824  0.0538
   55MOL   C13211040   5.773   1.010   3.591  0.8280  0.0585  0.7058
   55MOL   C13311041   5.835   1.105   3.689 -0.7532 -0.0517 -0.2382
   55MOL   C13411042   5.851   1.085   3.824 -0.1868  0.2356 -0.3605
   55MOL   C13511043   5.943   1.171   3.911 -0.3973 -0.8628  0.1651
   55MOL   H13611044   5.678   1.050   3.557  0.3062 -1.3908  0.4296
   55MOL   H13711045   5.759   0.929   3.662  3.3153  1.0768  2.4499
   55MOL   H13811046   5.897   1.183   3.647  3.7232 -2.6743  1.1195
   55MOL   H13911047   5.817   0.993   3.869  1.0423  0.5411  1.2397
   55MOL   H14011048   5.891   1.200   4.002 -1.4234 -1.0142 -0.3703
   55MOL   H14111049   5.968   1.260   3.853  2.2194 -1.2767  0.6031
   55MOL   C14211050   6.070   1.102   3.960 -0.2273  0.7677 -0.4320
   55MOL   C14311051   6.172   1.185   4.035 -0.0970 -0.7017  0.0401
   55MOL   C14411052   6.245   1.150   4.141 -0.2650 -0.2171  0.2298
   55MOL   C14511053   6.340   1.251   4.203  0.7774 -0.8771 -0.8202
   55MOL   H14611054   6.051   1.013   4.021  2.2039 -0.0140 -0.7589
   55MOL   H14711055   6.120   1.055   3.875  0.1920 -2.4394  1.5180
   55MOL   H14811056   6.190   1.284   3.996  2.4480 -1.5854 -1.0926
   55MOL   H14911057   6.241   1.049   4.179 -0.9706 -0.0592  0.5736
   55MOL   H15011058   6.294   1.291   4.293  0.7501  1.9192 -2.0402
   55MOL   H15111059   6.353   1.338   4.139 -3.1179 -0.5862 -1.3921
   55MOL   C15211060   6.481   1.190   4.221  0.3710  0.1739 -0.4506
   55MOL   C15311061   6.472   1.072   4.313  0.1161  0.6377 -0.8774
   55MOL   C15411062   6.513   1.065   4.442  0.6515 -0.2391  0.7461
   55MOL   C15511063   6.483   0.954   4.543 -0.0873 -0.0414  0.2313
   55MOL   H15611064   6.534   1.158   4.131  0.8146  0.2194 -0.2065
   55MOL   H15711065   6.540   1.266   4.273 -0.7505  0.4717  0.4307
   55MOL   H15811066   6.423   0.988   4.266 -1.0940  0.3625  0.8269
   55MOL   H15911067   6.558   1.151   4.489  0.9348  0.2153 -0.3238
   55MOL   H16011068   6.553   0.965   4.626  1.7027 -0.3150 -1.2095
   55MOL   H16111069   6.524   0.861   4.503 -1.5720  0.3453 -2.2832
   55MOL   C16211070   6.329   0.961   4.582 -0.0710  0.3357  0.6068
   55MOL   C16311071   6.281   0.847   4.674  0.3749 -0.6238 -0.0526
   55MOL   C16411072   6.210   0.857   4.791  1.1981 -0.1195 -0.2900
   55MOL   C16511073   6.166   0.734   4.866 -0.5132  0.8587 -0.3698
   55MOL   H16611074   6.310   1.056   4.632  0.0679  0.9316 -0.4773
   55MOL   H16711075   6.271   0.947   4.491 -0.2480 -1.7561  1.0094
   55MOL   H16811076   6.275   0.749   4.629 -2.0511 -1.4675  1.9913
   55MOL   H16911077   6.177   0.950   4.836 -0.0848 -0.5336 -0.3591
   55MOL   H17011078   6.217   0.644   4.832 -0.5362 -0.1678  2.1746
   55MOL   H17111079   6.061   0.718   4.843 -0.5428 -0.2105  0.4468
   55MOL   C17211080   6.184   0.746   5.013 -0.3394 -0.1927  0.7271
   55MOL   C17311081   6.118   0.624   5.082  0.1369  0.2137 -0.3731
   55MOL   C17411082   6.182   0.513   5.116 -0.5080  0.2147 -0.5721
   55MOL   C17511083   6.117   0.386   5.172 -0.3094  0.1227 -0.2356
   55MOL   H17611084   6.290   0.757   5.035 -0.7971 -1.9479  4.0396
   55MOL   H17711085   6.126   0.832   5.048  1.4361  0.9975  0.7912
   55MOL   H17811086   6.011   0.617   5.075  0.1618 -0.0285 -0.4955
   55MOL   H17911087   6.289   0.509   5.105 -0.2438 -2.0445  1.9933
   55MOL   H18011088   6.016   0.418   5.200 -1.1841 -0.5328 -2.5517
   55MOL   H18111089   6.163   0.355   5.266  0.2189  0.2974 -0.4399
   55MOL   C18211090   6.131   0.266   5.090 -0.4007  0.4760  1.0726
   55MOL   C18311091   6.039   0.161   5.153 -0.1510 -0.0418 -0.4673
   55MOL   C18411092   5.935   0.100   5.087 -0.0610  0.0828 -0.0354
   55MOL   C18511093   5.858   7.959   5.142  0.1809  0.0817 -0.0071
   55MOL   H18611094   6.108   0.302   4.990 -2.8271  0.0274  1.4314
   55MOL   H18711095   6.236   0.239   5.089  0.0482  2.2425 -0.4460
   55MOL   H18811096   6.079   0.132   5.249  0.6304  0.4100 -0.6590
   55MOL   H18911097   5.909   0.130   4.987 -0.8415  0.6787  0.3369
   55MOL   H19011098   5.882   7.939   5.246 -0.3159  1.0892  0.3121
   55MOL   H19111099   5.894   7.869   5.093  1.2238 -1.1646  3.0032
   55MOL   C19211100   5.702   7.974   5.132  0.2483 -0.6513 -0.0705
   55MOL   C19311101   5.625   7.843   5.164 -0.4799 -0.1256 -0.2798
   55MOL   C19411102   5.551   7.819   5.274 -0.0386  0.0668 -0.4065
   55MOL   C19511103   5.480   7.686   5.300  0.5960  0.2559  0.1338
   55MOL   H19611104   5.665   0.065   5.209 -0.2797  0.1959 -1.0606
   55MOL   H19711105   5.675   0.031   5.032 -0.6718 -0.1896  0.3331
   55MOL   H19811106   5.652   7.764   5.096  0.4732  1.6640 -2.0302
   55MOL   H19911107   5.530   7.890   5.353 -0.6354  0.3952 -0.8470
   55MOL   H20011108   5.381   7.693   5.344 -0.0741 -2.8562 -0.7017
   55MOL   H20111109   5.541   7.641   5.378 -0.1588 -0.7307  0.1659
   55MOL   H20211110   5.474   7.624   5.210 -1.8126 -0.6735  0.8892
   56MOL     C111111   2.749   6.432   1.745  0.3850  0.2626 -0.1943
   56MOL     C211112   2.606   6.456   1.728  0.4432  0.8188 -0.2083
   56MOL     C311113   2.555   6.576   1.755 -0.2484  0.0941 -0.6687
   56MOL     C411114   2.409   6.597   1.739  0.3245  0.2220 -0.0112
   56MOL     H511115   2.795   6.516   1.797  2.2993  0.2931 -1.8822
   56MOL     H611116   2.798   6.419   1.648 -0.6261 -2.3592 -0.3755
   56MOL     H711117   2.545   6.378   1.685  0.0999  1.4334 -0.8465
   56MOL     H811118   2.608   6.664   1.789  1.2614 -0.2818 -1.9966
   56MOL     H911119   2.393   6.658   1.650 -3.0447  0.7654  0.8746
   56MOL    H1011120   2.397   6.658   1.828 -1.3835 -0.8012  0.5044
   56MOL    H1111121   2.781   6.345   1.802  0.4273  0.8208  0.6378
   56MOL    C1211122   2.301   6.485   1.749  0.4578  0.1470 -0.8394
   56MOL    C1311123   2.162   6.529   1.781  0.5283  0.3609 -0.0127
   56MOL    C1411124   2.090   6.609   1.705 -0.0426 -0.1628 -0.2553
   56MOL    C1511125   1.954   6.655   1.748  0.0522 -0.4640 -0.0712
   56MOL    H1611126   2.306   6.419   1.662  2.6686 -0.1215 -0.5317
   56MOL    H1711127   2.332   6.411   1.823 -1.3178  0.0655 -0.1449
   56MOL    H1811128   2.119   6.507   1.877  0.6070 -0.3290 -0.1330
   56MOL    H1911129   2.138   6.645   1.616 -1.7004  0.9323 -0.7190
   56MOL    H2011130   1.944   6.642   1.855  0.1603  0.1238  0.0111
   56MOL    H2111131   1.877   6.587   1.712 -0.1167 -0.2873 -0.0470
   56MOL    C2211132   1.914   6.796   1.696  0.3890  0.3808  1.0426
   56MOL    C2311133   1.766   6.832   1.701  0.7212 -0.3376 -0.3020
   56MOL    C2411134   1.723   6.935   1.766 -0.2632 -0.1982  0.2855
   56MOL    C2511135   1.582   6.975   1.778  0.3444  0.1451  0.1087
   56MOL    H2611136   1.971   6.870   1.754 -1.5876  1.7904  1.2477
   56MOL    H2711137   1.954   6.802   1.595  1.7049 -0.5624  1.4923
   56MOL    H2811138   1.703   6.762   1.648  0.2687 -0.5156  0.4717
   56MOL    H2911139   1.800   6.992   1.816  0.1187 -1.5341  1.2319
   56MOL    H3011140   1.551   6.970   1.882  0.6362 -2.0367  0.1205
   56MOL    H3111141   1.524   6.913   1.709 -0.8527 -0.5229  1.6881
   56MOL    C3211142   1.552   7.121   1.748  0.3982 -0.1000 -0.8793
   56MOL    C3311143   1.413   7.160   1.786 -0.2021 -0.3293  0.1771
   56MOL    C3411144   1.320   7.205   1.701  0.1599 -0.1674  0.8287
   56MOL    C3511145   1.173   7.227   1.745  0.7267 -0.4546 -0.0525
   56MOL    H3611146   1.615   7.191   1.804 -1.8711  0.3166  1.2173
   56MOL    H3711147   1.564   7.154   1.644  1.4096 -1.5867 -1.2493
   56MOL    H3811148   1.384   7.132   1.887  0.0760  1.0200  0.6422
   56MOL    H3911149   1.344   7.215   1.596  0.3096  0.2340  0.9030
   56MOL    H4011150   1.143   7.329   1.768  0.1794 -0.6574  0.1209
   56MOL    H4111151   1.145   7.179   1.839 -1.8770 -1.1447 -1.1504
   56MOL    C4211152   1.071   7.177   1.649  0.1813 -0.5316  0.3499
   56MOL    C4311153   1.062   7.273   1.526  0.2596  0.1068  0.3306
   56MOL    C4411154   0.946   7.315   1.471 -0.6062  0.6890  0.4957
   56MOL    C4511155   0.936   7.409   1.357 -0.6301  0.0544  0.0084
   56MOL    H4611156   1.095   7.076   1.615  0.3806 -0.1132 -0.7595
   56MOL    H4711157   0.972   7.158   1.690 -0.4884  0.0880 -0.9426
   56MOL    H4811158   1.151   7.320   1.488 -0.1135  0.3073 -0.3008
   56MOL    H4911159   0.853   7.284   1.516 -0.5217 -1.3180 -0.6495
   56MOL    H5011160   0.906   7.339   1.280 -2.0001 -0.9962  1.4564
   56MOL    H5111161   1.031   7.454   1.329  0.3240 -3.0164 -1.8986
   56MOL    C5211162   0.819   7.505   1.374 -0.3615 -0.2510  0.4958
   56MOL    C5311163   0.855   7.615   1.469  0.5299 -0.1382 -0.3502
   56MOL    C5411164   0.864   7.738   1.431  0.2529 -0.2460 -0.3524
   56MOL    C5511165   0.906   7.854   1.520 -0.0105 -0.4256 -0.7936
   56MOL    H5611166   0.786   7.537   1.275  1.1797 -1.3507 -0.3818
   56MOL    H5711167   0.736   7.449   1.416 -0.5329  0.1244  0.6638
   56MOL    H5811168   0.878   7.592   1.572 -0.0038 -1.1003 -0.4344
   56MOL    H5911169   0.841   7.763   1.329  1.5120  1.0623 -0.3447
   56MOL    H6011170   0.927   7.810   1.618 -0.8785  1.2130  0.1647
   56MOL    H6111171   0.820   7.920   1.529  0.3703 -0.1785  1.2234
   56MOL    C6211172   1.018   7.936   1.457  1.1274  0.9602 -0.3667
   56MOL    C6311173   1.068   0.083   1.529 -0.4213  0.4520 -1.1443
   56MOL    C6411174   1.196   0.104   1.578  0.2219 -0.6330 -0.8249
   56MOL    C6511175   1.236   0.229   1.642  0.3688  0.2463 -0.1807
   56MOL    H6611176   1.110   7.878   1.448 -0.4161 -2.0277  1.9400
   56MOL    H6711177   0.990   7.973   1.359  2.9074 -0.2237 -1.3458
   56MOL    H6811178   0.998   0.166   1.538  0.1280  1.0975 -2.7225
   56MOL    H6911179   1.283   0.039   1.573  0.5774 -0.2262  0.0671
   56MOL    H7011180   1.234   0.212   1.749  0.1102 -2.0746 -0.5386
   56MOL    H7111181   1.152   0.295   1.616 -0.3845  0.1041  1.8401
   56MOL    C7211182   1.372   0.270   1.590 -0.2617  0.2195 -0.1324
   56MOL    C7311183   1.385   0.417   1.610  0.2314 -0.6360  0.2495
   56MOL    C7411184   1.475   0.468   1.694 -0.8483  0.2167 -0.4465
   56MOL    C7511185   1.493   0.618   1.705 -0.4748 -0.6466  0.4425
   56MOL    H7611186   1.452   0.214   1.639 -0.1611 -1.0959 -1.7571
   56MOL    H7711187   1.376   0.255   1.482  0.3986 -0.1275 -0.0622
   56MOL    H7811188   1.327   0.485   1.550 -0.4630 -1.4520 -0.0106
   56MOL    H7911189   1.522   0.401   1.764  0.3720  0.1133 -1.3394
   56MOL    H8011190   1.474   0.650   1.808  0.1793  1.1140  0.0272
   56MOL    H8111191   1.410   0.668   1.654 -0.2940 -1.8073 -1.0018
   56MOL    C8211192   1.622   0.676   1.638 -0.1215  0.7687 -0.0232
   56MOL    C8311193   1.619   0.641   1.490  0.3953 -0.7350  0.6346
   56MOL    C8411194   1.581   0.734   1.400  0.5024 -0.1753  0.4268
   56MOL    C8511195   1.587   0.712   1.249 -0.3006 -0.5390  0.4939
   56MOL    H8611196   1.636   0.783   1.654  0.2100  0.6254  0.6439
   56MOL    H8711197   1.710   0.628   1.679  1.2853  1.0047 -2.6633
   56MOL    H8811198   1.664   0.551   1.450 -0.4904 -0.7045 -0.4622
   56MOL    H8911199   1.527   0.816   1.445 -1.2197 -1.1244  0.1193
   56MOL    H9011200   1.482   0.695   1.223 -0.3822 -2.2657  1.8021
   56MOL    H9111201   1.640   0.619   1.230 -2.0239 -1.2115 -1.2679
   56MOL    C9211202   1.644   0.836   1.172 -0.0805  0.1959  0.2328
   56MOL    C9311203   1.627   0.827   1.020 -0.2207  0.2631  0.2598
   56MOL    C9411204   1.724   0.848   0.929  0.6563  0.1316 -0.5699
   56MOL    C9511205   1.705   0.827   0.785 -0.3028  0.0782  0.6481
   56MOL    H9611206   1.588   0.927   1.189 -1.4188  0.0581 -3.0126
   56MOL    H9711207   1.747   0.863   1.194 -0.4855  2.9525 -1.1070
   56MOL    H9811208   1.526   0.809   0.988 -0.6174  1.3518  0.9075
   56MOL    H9911209   1.825   0.873   0.960  1.0035 -1.6832 -0.2005
   56MOL   H10011210   1.600   0.799   0.782 -1.0584  2.7685  1.1075
   56MOL   H10111211   1.766   0.750   0.738  3.0801  4.2847 -2.2070
   56MOL   C10211212   1.712   0.952   0.701 -0.0154 -0.4769  0.6617
   56MOL   C10311213   1.726   0.927   0.553 -0.0002  0.2269 -0.6128
   56MOL   C10411214   1.832   0.947   0.479  0.6624  0.3756  0.0401
   56MOL   C10511215   1.841   0.929   0.331  0.4573 -0.3584 -0.5178
   56MOL   H10611216   1.630   1.020   0.724 -2.1659 -2.3996 -0.9050
   56MOL   H10711217   1.809   0.990   0.731  0.4663 -1.5921  0.5622
   56MOL   H10811218   1.634   0.905   0.501  0.0240 -0.3786 -0.4063
   56MOL   H10911219   1.923   0.980   0.527  1.4717 -0.7114 -0.7113
   56MOL   H11011220   1.749   0.891   0.287  0.3928 -0.1001 -0.6041
   56MOL   H11111221   1.910   0.846   0.313 -0.6840 -1.2946 -0.6680
   56MOL   C11211222   1.878   1.054   0.255 -0.3689  0.4663 -0.0140
   56MOL   C11311223   2.012   1.094   0.295 -0.0918 -0.7109 -0.4638
   56MOL   C11411224   2.044   1.200   0.371 -0.2919 -0.2338 -0.0065
   56MOL   C11511225   2.188   1.234   0.415 -0.6906 -1.0427 -0.6022
   56MOL   H11611226   1.883   1.039   0.147 -0.4189 -0.9108  0.1641
   56MOL   H11711227   1.810   1.137   0.275  1.1770  2.5044 -2.8970
   56MOL   H11811228   2.100   1.034   0.274 -0.4553 -1.1492 -0.7351
   56MOL   H11911229   1.969   1.274   0.396 -0.5222 -0.5591  0.2541
   56MOL   H12011230   2.225   1.291   0.330 -0.4725 -0.9112 -0.4234
   56MOL   H12111231   2.258   1.151   0.426 -0.7217 -1.2822 -2.1684
   56MOL   C12211232   2.206   1.309   0.550 -0.4530 -0.4470  0.4497
   56MOL   C12311233   2.350   1.325   0.599 -0.4498 -0.5539 -0.5262
   56MOL   C12411234   2.388   1.291   0.724  0.9370 -0.5649  0.4046
   56MOL   C12511235   2.532   1.288   0.766  0.5108  0.2840 -0.2202
   56MOL   H12611236   2.158   1.407   0.551  0.7750  0.1594 -0.2283
   56MOL   H12711237   2.143   1.260   0.624 -2.7210  0.8943 -0.5376
   56MOL   H12811238   2.427   1.347   0.526 -1.2279  2.8671 -0.4259
   56MOL   H12911239   2.318   1.241   0.788 -0.5780 -0.2510 -0.9729
   56MOL   H13011240   2.546   1.326   0.867 -1.1758  0.2385  0.0398
   56MOL   H13111241   2.589   1.357   0.704  1.5243 -0.4771 -0.1463
   56MOL   C13211242   2.607   1.150   0.749 -0.1397 -0.6001 -0.2976
   56MOL   C13311243   2.554   1.031   0.832 -0.7349 -0.4364  1.1530
   56MOL   C13411244   2.608   0.990   0.944 -0.0667 -0.1528 -0.8159
   56MOL   C13511245   2.541   0.881   1.030  0.1962 -1.1094 -0.9975
   56MOL   H13611246   2.605   1.136   0.641 -2.6483 -0.0708 -0.3465
   56MOL   H13711247   2.709   1.162   0.784  0.0079 -0.7438 -0.6816
   56MOL   H13811248   2.458   0.994   0.799 -0.3594 -0.6316  0.2588
   56MOL   H13911249   2.693   1.038   0.990 -1.1050  0.7545  0.1680
   56MOL   H14011250   2.617   0.803   1.024  0.7849 -0.7145  0.9353
   56MOL   H14111251   2.447   0.850   0.985 -1.0565 -0.7857  1.3567
   56MOL   C14211252   2.513   0.917   1.179 -0.7766  0.2540  0.3588
   56MOL   C14311253   2.421   1.034   1.188  0.2616 -0.3366 -0.1088
   56MOL   C14411254   2.434   1.123   1.286 -0.4423 -0.9864  0.5487
   56MOL   C14511255   2.342   1.243   1.312 -0.7128 -0.0261 -0.7677
   56MOL   H14611256   2.455   0.839   1.230 -1.3829 -0.0225 -0.7236
   56MOL   H14711257   2.601   0.933   1.241  0.6691 -1.6808 -1.1549
   56MOL   H14811258   2.340   1.029   1.117 -0.4191  2.1401  0.4411
   56MOL   H14911259   2.509   1.110   1.362  0.1041  0.2086  0.2305
   56MOL   H15011260   2.295   1.207   1.403  0.7171 -3.7779 -1.3937
   56MOL   H15111261   2.277   1.247   1.224 -0.0902 -0.4304 -1.2566
   56MOL   C15211262   2.430   1.365   1.328  0.4277 -0.4515 -0.5013
   56MOL   C15311263   2.328   1.480   1.341  0.1876 -0.2840  0.5855
   56MOL   C15411264   2.321   1.553   1.454  0.1148 -0.2918 -0.7506
   56MOL   C15511265   2.211   1.660   1.460  0.0432 -0.2922 -0.4162
   56MOL   H15611266   2.479   1.356   1.425  0.3103  0.7040 -0.3254
   56MOL   H15711267   2.503   1.387   1.251 -0.8203  1.0877 -1.2720
   56MOL   H15811268   2.258   1.504   1.262  0.4453 -0.6414  0.2434
   56MOL   H15911269   2.375   1.523   1.542 -2.1640 -1.1280  0.3988
   56MOL   H16011270   2.163   1.689   1.366 -2.1133 -0.3756  0.6153
   56MOL   H16111271   2.256   1.746   1.509 -2.1678  0.2769  0.7067
   56MOL   C16211272   2.093   1.608   1.548 -0.2024 -0.0737  0.2412
   56MOL   C16311273   2.030   1.734   1.614  0.3355 -0.3409 -0.2573
   56MOL   C16411274   1.902   1.771   1.601  0.1945 -0.1865 -0.3321
   56MOL   C16511275   1.841   1.888   1.668 -0.1053 -0.1686 -0.0230
   56MOL   H16611276   2.016   1.553   1.494  0.4259  0.0110 -0.7559
   56MOL   H16711277   2.119   1.531   1.620 -0.0700 -1.4678 -1.2551
   56MOL   H16811278   2.097   1.783   1.683  0.5581  0.9248 -1.3600
   56MOL   H16911279   1.831   1.723   1.535 -2.3642 -0.6301  2.5811
   56MOL   H17011280   1.887   1.899   1.766  2.0856 -1.0648 -0.9173
   56MOL   H17111281   1.736   1.859   1.679 -0.4863  1.1327 -0.0926
   56MOL   C17211282   1.856   2.022   1.589  0.5246 -0.8032  0.3748
   56MOL   C17311283   1.793   2.138   1.664 -0.0742  0.7162 -0.0353
   56MOL   C17411284   1.851   2.207   1.765  0.8066  0.2575 -0.6639
   56MOL   C17511285   1.779   2.322   1.836 -0.4273 -0.3472 -0.5754
   56MOL   H17611286   1.964   2.034   1.579  0.3531  1.5071  0.9905
   56MOL   H17711287   1.815   2.015   1.488 -0.0891  0.8211  0.4894
   56MOL   H17811288   1.703   2.167   1.611  1.2130  2.5357 -1.2733
   56MOL   H17911289   1.945   2.165   1.798  1.0184 -0.9619 -2.7499
   56MOL   H18011290   1.723   2.289   1.923  0.3411  0.1446  0.1131
   56MOL   H18111291   1.705   2.362   1.766 -0.3292 -1.9358 -1.6106
   56MOL   C18211292   1.867   2.442   1.876  0.2544 -0.5190  0.0062
   56MOL   C18311293   1.802   2.552   1.957  0.3024  0.1972  0.4029
   56MOL   C18411294   1.859   2.610   2.067  0.4297  0.4831  0.9923
   56MOL   C18511295   1.801   2.716   2.159 -0.4169 -0.3834 -0.0702
   56MOL   H18611296   1.963   2.409   1.916 -0.3286  0.0783  1.9150
   56MOL   H18711297   1.892   2.501   1.787 -0.2572 -1.6929 -0.9244
   56MOL   H18811298   1.707   2.589   1.921 -0.0352  0.8529  1.9248
   56MOL   H18911299   1.957   2.573   2.092  2.2707  2.9867 -2.1317
   56MOL   H19011300   1.809   2.676   2.260 -0.8051  1.0823  0.5620
   56MOL   H19111301   1.700   2.749   2.134  0.3521  1.8699 -0.2748
   56MOL   C19211302   1.889   2.840   2.135 -0.8008 -0.1109 -0.4828
   56MOL   C19311303   1.837   2.962   2.207 -0.2221 -0.4605  0.2748
   56MOL   C19411304   1.911   3.034   2.297 -0.0995 -0.3629 -0.0836
   56MOL   C19511305   1.861   3.161   2.352  0.4616 -0.1449 -0.0626
   56MOL   H19611306   1.991   2.810   2.161 -1.4898 -0.1329  2.3526
   56MOL   H19711307   1.912   2.867   2.032  4.0693 -0.5060  0.3877
   56MOL   H19811308   1.743   3.002   2.174  0.6608  1.3896 -0.1185
   56MOL   H19911309   2.012   3.001   2.317 -0.3359 -1.7736 -1.1948
   56MOL   H20011310   1.913   3.244   2.305 -0.0965 -0.0900 -0.5843
   56MOL   H20111311   1.869   3.178   2.460  1.7507  0.9703 -0.3225
   56MOL   H20211312   1.755   3.176   2.329  0.2273 -2.5686 -0.6673
   57MOL     C111313   4.462   3.928   3.679  0.0540  0.0816  0.7000
   57MOL     C211314   4.593   3.995   3.689  1.0012 -0.3220  0.3047
   57MOL     C311315   4.692   3.971   3.600  0.0683 -0.4216  0.0763
   57MOL     C411316   4.831   4.032   3.622  0.3023 -0.2135  0.0720
   57MOL     H511317   4.428   3.941   3.577  2.1285 -0.9421 -0.1604
   57MOL     H611318   4.397   3.976   3.751 -2.0469 -3.9334  1.6377
   57MOL     H711319   4.599   4.064   3.771  0.8555 -1.2938  1.1430
   57MOL     H811320   4.685   3.904   3.516  3.7080 -0.1977 -0.4639
   57MOL     H911321   4.829   4.095   3.711  0.3167 -0.4337  0.2306
   57MOL    H1011322   4.849   4.104   3.543 -3.0172  0.5260 -0.0560
   57MOL    H1111323   4.467   3.820   3.696 -0.9871 -0.0534  0.1911
   57MOL    C1211324   4.936   3.925   3.644 -0.0957  0.8187 -0.0499
   57MOL    C1311325   5.069   3.972   3.693  0.1385  0.3513  0.6842
   57MOL    C1411326   5.139   3.911   3.793  0.4066  1.4066  0.8730
   57MOL    C1511327   5.274   3.958   3.837  0.5965 -0.9500 -0.6871
   57MOL    H1611328   4.915   3.841   3.710 -0.0732  0.0538 -0.9996
   57MOL    H1711329   4.950   3.882   3.545 -2.4595  1.6139 -0.7622
   57MOL    H1811330   5.109   4.063   3.651 -0.0899  0.9111  1.6550
   57MOL    H1911331   5.098   3.819   3.832  1.4752  0.3563 -0.4225
   57MOL    H2011332   5.310   4.024   3.757  3.7271 -0.2742  1.1653
   57MOL    H2111333   5.350   3.880   3.838  0.2279 -1.3154 -1.1009
   57MOL    C2211334   5.275   4.020   3.978 -0.2300 -0.2754 -0.1448
   57MOL    C2311335   5.410   4.083   4.006  1.0162  0.4120  0.4468
   57MOL    C2411336   5.424   4.203   4.066 -0.9897 -0.9544  0.3445
   57MOL    C2511337   5.556   4.278   4.093 -0.1781  0.0274 -0.8653
   57MOL    H2611338   5.194   4.091   3.988  0.9420  1.0689  0.0311
   57MOL    H2711339   5.249   3.939   4.046 -0.3513 -1.0766 -1.1357
   57MOL    H2811340   5.502   4.029   3.988 -0.0382 -1.5284  0.6605
   57MOL    H2911341   5.340   4.271   4.076 -0.2486  0.1575 -0.7878
   57MOL    H3011342   5.635   4.223   4.042  0.3623  0.0000 -0.0215
   57MOL    H3111343   5.570   4.269   4.201  0.8146  1.7951 -0.8266
   57MOL    C3211344   5.565   4.423   4.038  0.0556  0.0080 -0.4089
   57MOL    C3311345   5.524   4.526   4.136 -0.4534  0.2185  0.0850
   57MOL    C3411346   5.407   4.591   4.150  0.4310 -0.1866  0.3082
   57MOL    C3511347   5.353   4.667   4.269  0.1071  0.3411  0.1264
   57MOL    H3611348   5.666   4.442   4.000  0.0930 -2.9880 -2.0257
   57MOL    H3711349   5.494   4.432   3.956 -2.1088  0.5121  1.4937
   57MOL    H3811350   5.600   4.539   4.212  0.6512  1.3742 -1.2113
   57MOL    H3911351   5.340   4.551   4.075  0.3251 -2.4477  1.5869
   57MOL    H4011352   5.341   4.773   4.248  0.6961  0.3683 -0.0874
   57MOL    H4111353   5.421   4.651   4.352  2.0595  2.3331 -1.0273
   57MOL    C4211354   5.224   4.600   4.323 -0.5203  0.2781 -1.1029
   57MOL    C4311355   5.146   4.703   4.400  0.4156 -0.1883  0.8414
   57MOL    C4411356   5.101   4.695   4.530 -0.3348  0.2100  1.2355
   57MOL    C4511357   5.037   4.808   4.618 -0.7376 -0.3929  0.3909
   57MOL    H4611358   5.158   4.571   4.241 -1.0941  1.2491 -0.9883
   57MOL    H4711359   5.245   4.504   4.369  4.1359  0.6121 -2.2212
   57MOL    H4811360   5.127   4.792   4.342 -2.7367 -1.7034 -0.6113
   57MOL    H4911361   5.129   4.606   4.584  0.8391 -1.0506 -1.3646
   57MOL    H5011362   4.983   4.879   4.555  2.2109  1.6454  0.0699
   57MOL    H5111363   5.109   4.875   4.664 -2.2720  1.4053  0.2285
   57MOL    C5211364   4.955   4.756   4.732 -0.0878 -0.2142 -0.9850
   57MOL    C5311365   4.867   4.860   4.799 -0.2350  1.1504 -0.1525
   57MOL    C5411366   4.730   4.874   4.799 -0.1019 -0.1630 -0.9865
   57MOL    C5511367   4.654   4.981   4.869 -0.8839  0.4699  0.2916
   57MOL    H5611368   4.887   4.678   4.698 -0.0334 -1.3657  1.4356
   57MOL    H5711369   5.022   4.707   4.804 -3.5257  0.1099  2.5986
   57MOL    H5811370   4.910   4.937   4.861 -2.0204  0.7070  1.7091
   57MOL    H5911371   4.665   4.805   4.746  1.6570 -0.9021 -2.2297
   57MOL    H6011372   4.723   5.064   4.887  0.1019 -0.2699 -0.0777
   57MOL    H6111373   4.633   4.934   4.965 -0.5188 -0.0303  0.1255
   57MOL    C6211374   4.537   5.029   4.781 -0.0603  0.0500  0.3752
   57MOL    C6311375   4.498   5.173   4.817 -0.6280 -0.6165 -0.4690
   57MOL    C6411376   4.382   5.227   4.854  0.4082  0.3427  0.4438
   57MOL    C6511377   4.366   5.367   4.891  0.3682 -0.7580 -0.2398
   57MOL    H6611378   4.557   5.016   4.674  2.5896 -1.2512  1.0061
   57MOL    H6711379   4.455   4.959   4.796 -0.8896  1.1605  1.1016
   57MOL    H6811380   4.583   5.240   4.828  0.2974 -2.0793  1.5640
   57MOL    H6911381   4.291   5.168   4.859  1.3950 -1.2910 -0.3711
   57MOL    H7011382   4.293   5.412   4.824  1.0611 -2.2280 -1.9952
   57MOL    H7111383   4.453   5.428   4.866 -1.9115  3.3327  1.2162
   57MOL    C7211384   4.329   5.379   5.038 -0.2146 -0.3252  0.2940
   57MOL    C7311385   4.448   5.345   5.122 -0.6283 -0.7905 -0.0106
   57MOL    C7411386   4.496   5.430   5.214  0.8573 -0.3721  0.0460
   57MOL    C7511387   4.619   5.397   5.298  0.1758 -0.3737 -0.1101
   57MOL    H7611388   4.312   5.481   5.075  0.5360  0.0718 -0.4356
   57MOL    H7711389   4.251   5.308   5.065  0.4980 -0.2484  2.6369
   57MOL    H7811390   4.508   5.255   5.119  1.4148  0.4279  2.2139
   57MOL    H7911391   4.451   5.528   5.223  0.1545 -0.7018  0.1967
   57MOL    H8011392   4.699   5.452   5.247 -1.9591  0.3190 -2.8798
   57MOL    H8111393   4.649   5.293   5.290 -1.9156 -0.9410 -1.0068
   57MOL    C8211394   4.610   5.455   5.441  0.3827 -0.5662  0.4942
   57MOL    C8311395   4.617   5.604   5.460 -0.3275  0.2850  0.3021
   57MOL    C8411396   4.513   5.687   5.469  0.3555  0.3008  0.0232
   57MOL    C8511397   4.526   5.839   5.478 -0.1886  0.0873  0.4444
   57MOL    H8611398   4.517   5.415   5.481  2.1119 -0.5993  4.7604
   57MOL    H8711399   4.680   5.416   5.515  0.6753 -2.8368 -0.9180
   57MOL    H8811400   4.711   5.655   5.444 -0.8827  0.9517 -0.9668
   57MOL    H8911401   4.410   5.656   5.459  0.5746 -1.8615  3.4856
   57MOL    H9011402   4.624   5.881   5.455 -0.3532  1.6421  2.4821
   57MOL    H9111403   4.494   5.859   5.580  1.1470  0.7988  0.7373
   57MOL    C9211404   4.431   5.922   5.383 -0.3305 -0.1411  0.0554
   57MOL    C9311405   4.453   6.072   5.415  0.1066  0.4984  0.1989
   57MOL    C9411406   4.360   6.158   5.458  0.2623  0.6374 -0.9878
   57MOL    C9511407   4.392   6.308   5.472 -0.8126 -0.0289 -0.5151
   57MOL    H9611408   4.456   5.920   5.277 -0.7733  0.9057 -0.0762
   57MOL    H9711409   4.326   5.893   5.388 -0.8376  1.8380  1.1447
   57MOL    H9811410   4.551   6.114   5.397  0.0149  1.5144  1.8926
   57MOL    H9911411   4.257   6.124   5.462 -0.0730  1.4451 -2.2869
   57MOL   H10011412   4.331   6.348   5.391 -0.9586  0.2269 -0.2768
   57MOL   H10111413   4.491   6.326   5.431 -0.5009  0.9547  0.6594
   57MOL   C10211414   4.379   6.370   5.610  1.2781  0.3865 -0.7366
   57MOL   C10311415   4.502   6.339   5.688 -0.2793  0.5208  0.1301
   57MOL   C10411416   4.505   6.245   5.786 -0.3528 -0.0014 -0.3748
   57MOL   C10511417   4.623   6.194   5.869 -0.9988 -0.2346  0.4249
   57MOL   H10611418   4.353   6.476   5.614 -0.8185 -0.0281 -2.1574
   57MOL   H10711419   4.298   6.319   5.662  0.9228  0.4541 -1.2163
   57MOL   H10811420   4.596   6.381   5.657  0.0739 -0.0798  0.3820
   57MOL   H10911421   4.417   6.192   5.818 -1.2712  1.1389 -0.9685
   57MOL   H11011422   4.608   6.208   5.976  0.7722 -0.4279  0.7193
   57MOL   H11111423   4.711   6.257   5.852 -2.5835  1.3842 -2.0291
   57MOL   C11211424   4.658   6.050   5.836 -0.3023 -0.4229 -0.3937
   57MOL   C11311425   4.743   6.047   5.709  0.5837 -0.3819  0.1802
   57MOL   C11411426   4.796   5.928   5.680  0.1108  0.6883 -0.2197
   57MOL   C11511427   4.890   5.882   5.566  0.5546 -0.2519 -0.7481
   57MOL   H11611428   4.712   6.009   5.922 -0.8518  0.1859  0.2523
   57MOL   H11711429   4.575   5.992   5.797 -0.5300 -0.1941 -0.2483
   57MOL   H11811430   4.772   6.137   5.657  0.3661 -0.6177 -0.3488
   57MOL   H11911431   4.769   5.852   5.752 -0.3050 -0.4255 -1.5394
   57MOL   H12011432   4.935   5.972   5.522  0.4861 -0.3192 -0.9580
   57MOL   H12111433   4.847   5.841   5.474  0.2207  1.9579 -1.6184
   57MOL   C12211434   5.002   5.801   5.619 -1.3687  0.0137 -0.7776
   57MOL   C12311435   5.111   5.779   5.516 -1.1002  0.1827 -0.4117
   57MOL   C12411436   5.129   5.663   5.449 -0.0361 -0.5306 -0.4029
   57MOL   C12511437   5.248   5.632   5.360  0.6027  0.0054  0.1308
   57MOL   H12611438   5.055   5.840   5.705  0.1378 -1.8434 -0.8411
   57MOL   H12711439   4.958   5.706   5.650  0.1178 -0.0194  1.3405
   57MOL   H12811440   5.171   5.868   5.502 -0.8344 -0.0934 -1.0235
   57MOL   H12911441   5.065   5.587   5.490  1.9868 -1.1083  1.7602
   57MOL   H13011442   5.301   5.546   5.401 -0.5878 -1.1990 -0.8264
   57MOL   H13111443   5.329   5.703   5.376  0.0320  0.8673 -0.7647
   57MOL   C13211444   5.215   5.623   5.210  0.4417  0.0409 -0.1179
   57MOL   C13311445   5.340   5.605   5.126  0.4429 -0.3088  0.6234
   57MOL   C13411446   5.369   5.491   5.065  0.2476 -0.0275 -0.5896
   57MOL   C13511447   5.497   5.465   4.982 -0.1812 -0.1591 -0.1296
   57MOL   H13611448   5.162   5.529   5.200  1.1942 -0.2508 -1.4979
   57MOL   H13711449   5.157   5.708   5.176 -1.2987 -0.5919  1.1879
   57MOL   H13811450   5.416   5.681   5.116  1.4411 -1.0928  2.0914
   57MOL   H13911451   5.311   5.401   5.062 -1.3453  0.9826 -0.8639
   57MOL   H14011452   5.555   5.403   5.051 -2.0952 -0.6127  1.1310
   57MOL   H14111453   5.544   5.563   4.976 -0.1412 -0.1430  0.3943
   57MOL   C14211454   5.473   5.394   4.850  0.2930  0.2805  0.5124
   57MOL   C14311455   5.598   5.329   4.791  0.3610 -0.3097  0.4969
   57MOL   C14411456   5.655   5.377   4.680  0.7241 -0.5499  0.3554
   57MOL   C14511457   5.778   5.314   4.611 -0.4687  0.5847  0.5503
   57MOL   H14611458   5.402   5.311   4.844  0.2033  0.5021 -2.5928
   57MOL   H14711459   5.443   5.466   4.774  0.4940 -0.2838 -0.1054
   57MOL   H14811460   5.638   5.240   4.836 -2.6519 -0.2243  3.4982
   57MOL   H14911461   5.618   5.470   4.639  1.5357  0.4099  1.7697
   57MOL   H15011462   5.855   5.391   4.615 -1.7658  1.9890 -0.8184
   57MOL   H15111463   5.746   5.298   4.508  2.8512  3.2681 -1.0094
   57MOL   C15211464   5.825   5.180   4.664  0.1688 -0.3063 -0.4688
   57MOL   C15311465   5.932   5.117   4.584  0.2376  0.3081  0.0811
   57MOL   C15411466   6.056   5.091   4.627 -0.0851 -0.5686 -0.1502
   57MOL   C15511467   6.162   5.024   4.540 -0.6574 -0.5661 -0.0793
   57MOL   H15611468   5.870   5.188   4.762  0.1323  1.8539 -0.6027
   57MOL   H15711469   5.745   5.105   4.664  2.3439 -2.6796 -0.8323
   57MOL   H15811470   5.909   5.090   4.482 -0.6533 -0.1122  0.3809
   57MOL   H15911471   6.090   5.105   4.729  1.7490  0.7580 -0.9166
   57MOL   H16011472   6.114   4.960   4.466  2.2542  0.1590 -2.6862
   57MOL   H16111473   6.223   4.960   4.604  0.0712 -1.3869 -1.5699
   57MOL   C16211474   6.267   5.119   4.466  0.0610  0.6980  0.0907
   57MOL   C16311475   6.309   5.230   4.560  0.2669  0.9099  0.2567
   57MOL   C16411476   6.434   5.253   4.598  0.0643 -0.3630  0.0315
   57MOL   C16511477   6.482   5.372   4.671 -0.1882  0.1026  1.0243
   57MOL   H16611478   6.340   5.063   4.408  0.5712  0.9233  0.5190
   57MOL   H16711479   6.209   5.178   4.394 -0.1623 -0.6189 -0.8419
   57MOL   H16811480   6.232   5.297   4.596  0.0308 -0.5560  2.5925
   57MOL   H16911481   6.511   5.195   4.548  1.2989  1.2110  0.0746
   57MOL   H17011482   6.517   5.337   4.768  1.6886 -1.7995 -0.2915
   57MOL   H17111483   6.399   5.436   4.701 -2.7537 -2.0892 -1.0763
   57MOL   C17211484   6.604   5.430   4.593 -0.4713  0.1925 -0.0624
   57MOL   C17311485   6.659   5.542   4.673 -0.2989 -0.4195  0.1014
   57MOL   C17411486   6.717   5.650   4.619 -0.1586  0.6492  0.0329
   57MOL   C17511487   6.794   5.749   4.703  0.3775  0.2551  0.0233
   57MOL   H17611488   6.680   5.356   4.569 -0.0993  1.3791 -2.6786
   57MOL   H17711489   6.578   5.474   4.497 -0.4101 -1.1888 -0.7199
   57MOL   H17811490   6.667   5.534   4.781  0.9330  0.4445  0.0893
   57MOL   H17911491   6.720   5.664   4.512 -1.2351 -0.4397 -0.1559
   57MOL   H18011492   6.897   5.744   4.667  0.8331  1.9896  1.0372
   57MOL   H18111493   6.800   5.725   4.809 -0.3905 -1.8809 -0.4030
   57MOL   C18211494   6.739   5.891   4.704  0.8756 -0.0129 -1.2853
   57MOL   C18311495   6.801   5.971   4.811 -0.3480  0.3520 -0.5048
   57MOL   C18411496   6.737   5.996   4.932 -0.2417 -0.1160  0.4967
   57MOL   C18511497   6.798   6.068   5.052  1.1043 -0.3396  0.4614
   57MOL   H18611498   6.740   5.945   4.609  0.5847 -0.7545 -1.7116
   57MOL   H18711499   6.633   5.876   4.724  1.5340 -2.2385  0.6778
   57MOL   H18811500   6.905   6.000   4.808  0.1296 -1.1393  0.6804
   57MOL   H18911501   6.636   5.961   4.945  0.2747 -2.1037 -0.6004
   57MOL   H19011502   6.751   6.166   5.061 -0.7886 -1.2340  0.5389
   57MOL   H19111503   6.902   6.092   5.030  0.4138  2.2961 -0.0621
   57MOL   C19211504   6.766   5.996   5.180  0.1530 -0.7974  0.2186
   57MOL   C19311505   6.810   6.086   5.301 -0.4173  0.1056  0.3589
   57MOL   C19411506   6.869   6.041   5.409  0.3478  0.5932  0.2811
   57MOL   C19511507   6.918   6.128   5.517  0.3806  0.8004 -0.2968
   57MOL   H19611508   6.663   5.962   5.169 -0.6074  1.0802  1.3063
   57MOL   H19711509   6.824   5.904   5.188  0.6898 -0.9372 -4.0730
   57MOL   H19811510   6.784   6.191   5.310  2.3635  1.0060 -1.4484
   57MOL   H19911511   6.896   5.936   5.416 -0.2119  0.4527  0.3273
   57MOL   H20011512   6.907   6.064   5.604 -0.2592  0.9753 -0.2439
   57MOL   H20111513   6.864   6.222   5.528  2.9269  2.1015  1.5621
   57MOL   H20211514   7.025   6.141   5.501  0.4376  0.2927 -0.3212
   58MOL     C111515   2.398   4.884   6.548 -0.0061  0.6163 -0.4424
   58MOL     C211516   2.439   4.901   6.400  0.1383 -0.3196 -0.2387
   58MOL     C311517   2.518   4.813   6.335  0.9649  0.1754  0.5209
   58MOL     C411518   2.546   4.821   6.188  0.2534  0.2092  0.2204
   58MOL     H511519   2.301   4.838   6.564 -1.3003  3.4773  0.0858
   58MOL     H611520   2.383   4.982   6.594 -1.5594  1.0611 -1.8668
   58MOL     H711521   2.401   4.989   6.351  0.3882  0.3779  0.7967
   58MOL     H811522   2.561   4.726   6.384  1.7824 -0.6773 -1.6653
   58MOL     H911523   2.488   4.902   6.145 -0.7087 -0.7979 -0.4170
   58MOL    H1011524   2.519   4.730   6.134  1.3787 -0.6397  1.0403
   58MOL    H1111525   2.474   4.846   6.616 -1.5385  1.2188  1.6704
   58MOL    C1211526   2.703   4.847   6.175  1.0096 -0.1102  0.1436
   58MOL    C1311527   2.780   4.714   6.193  0.4109  0.3619 -0.3331
   58MOL    C1411528   2.837   4.673   6.312 -0.3727 -0.4468 -0.3669
   58MOL    C1511529   2.900   4.531   6.317  0.9853  0.0555  0.6827
   58MOL    H1611530   2.727   4.881   6.074  2.2261  1.6399  0.9811
   58MOL    H1711531   2.745   4.919   6.246  3.8466 -0.6936 -0.8731
   58MOL    H1811532   2.777   4.649   6.106  0.3502 -0.4034  0.2432
   58MOL    H1911533   2.822   4.727   6.405 -1.3006  0.1468 -0.8548
   58MOL    H2011534   3.009   4.534   6.323  1.0050  0.1900  0.2552
   58MOL    H2111535   2.875   4.478   6.225  1.1482 -0.1371  0.7494
   58MOL    C2211536   2.847   4.443   6.429  0.1706  0.1900 -0.7144
   58MOL    C2311537   2.913   4.307   6.438 -0.7757  0.1703  0.6994
   58MOL    C2411538   2.852   4.202   6.494  0.3131  0.1024  0.4552
   58MOL    C2511539   2.922   4.073   6.541 -0.3353  0.4488  0.1605
   58MOL    H2611540   2.851   4.504   6.519 -0.1407 -0.0915 -0.5065
   58MOL    H2711541   2.744   4.412   6.416  1.0803 -2.7666 -1.3583
   58MOL    H2811542   3.019   4.300   6.416 -0.9028  2.3622 -0.7035
   58MOL    H2911543   2.750   4.214   6.526 -0.4011 -1.3308 -1.1355
   58MOL    H3011544   3.024   4.068   6.502  0.8406  2.1233  2.9202
   58MOL    H3111545   2.884   3.985   6.489  3.1734  0.2243 -2.2449
   58MOL    C3211546   2.926   4.060   6.693 -0.0843 -0.0114  0.5536
   58MOL    C3311547   3.007   4.177   6.757 -0.0513  0.2378  0.0308
   58MOL    C3411548   2.966   4.261   6.854  0.4015 -0.3119 -0.8782
   58MOL    C3511549   3.042   4.379   6.915  0.0979  0.4416  0.1817
   58MOL    H3611550   2.823   4.054   6.728 -0.5930  0.7602 -0.7718
   58MOL    H3711551   2.985   3.972   6.717 -0.3231 -0.3899 -0.2515
   58MOL    H3811552   3.107   4.189   6.718 -0.4154  0.9482 -0.6955
   58MOL    H3911553   2.863   4.247   6.886  1.5151 -1.1106  2.6536
   58MOL    H4011554   2.980   4.468   6.914  0.3185  0.5934 -0.0971
   58MOL    H4111555   3.124   4.405   6.848 -0.4718 -0.5003 -0.8940
   58MOL    C4211556   3.091   4.361   7.060  0.0922  0.4690 -0.3634
   58MOL    C4311557   3.156   4.227   7.080 -0.1754 -0.7176 -0.8515
   58MOL    C4411558   3.160   4.159   7.197 -0.1152 -0.0657 -0.3000
   58MOL    C4511559   3.224   4.019   7.207 -0.1047 -0.3879  1.0900
   58MOL    H4611560   3.171   4.431   7.083  0.7183 -0.6172  0.8592
   58MOL    H4711561   3.015   4.378   7.136  2.0789  1.3212  1.4699
   58MOL    H4811562   3.209   4.189   6.995  1.0854 -0.4523 -0.1929
   58MOL    H4911563   3.108   4.205   7.280  0.2410  0.6316 -0.4557
   58MOL    H5011564   3.272   4.002   7.111 -2.7993 -1.1932 -0.1591
   58MOL    H5111565   3.140   3.950   7.216 -0.5124  0.2293  2.1226
   58MOL    C5211566   3.324   4.002   7.315  0.2680 -0.1449  1.1716
   58MOL    C5311567   3.397   3.870   7.307  0.1476  0.2654 -1.0365
   58MOL    C5411568   3.409   3.782   7.408 -0.6794  0.4189 -0.4945
   58MOL    C5511569   3.446   3.628   7.393 -0.2723  0.1132 -0.0676
   58MOL    H5611570   3.397   4.082   7.301  2.4493 -2.1895  0.5348
   58MOL    H5711571   3.286   4.017   7.416 -1.0113 -0.3488  0.7305
   58MOL    H5811572   3.437   3.848   7.210 -0.5234  0.2722 -1.3207
   58MOL    H5911573   3.368   3.824   7.498 -0.1191  1.1203 -0.5655
   58MOL    H6011574   3.547   3.606   7.430 -0.0160  2.1563  0.5150
   58MOL    H6111575   3.458   3.600   7.289 -1.6031  0.2590 -0.2601
   58MOL    C6211576   3.334   3.546   7.459  0.1214 -0.0260 -0.5549
   58MOL    C6311577   3.339   3.396   7.433 -0.0962  0.4602 -0.1180
   58MOL    C6411578   3.441   3.318   7.390  0.2778 -0.0250  0.0261
   58MOL    C6511579   3.433   3.173   7.357  0.5265 -0.1248  0.0790
   58MOL    H6611580   3.337   3.561   7.567  1.5871  0.7791 -0.6878
   58MOL    H6711581   3.235   3.583   7.433 -1.1765 -1.7644  1.7814
   58MOL    H6811582   3.252   3.334   7.451  1.1344 -0.6157  2.3588
   58MOL    H6911583   3.537   3.366   7.380  0.0455  0.8396  1.6990
   58MOL    H7011584   3.329   3.140   7.355  0.5970 -0.2627 -1.9659
   58MOL    H7111585   3.470   3.113   7.440 -0.7122 -1.2601 -0.1800
   58MOL    C7211586   3.516   3.147   7.237  0.0495  0.5716 -0.1545
   58MOL    C7311587   3.515   3.000   7.194 -0.8449 -0.6801  0.1805
   58MOL    C7411588   3.452   2.952   7.086 -0.1735 -0.0697  0.4987
   58MOL    C7511589   3.437   2.802   7.064  0.1743  0.0450  0.8358
   58MOL    H7611590   3.485   3.212   7.155  2.3479  1.7189 -0.1474
   58MOL    H7711591   3.618   3.174   7.264  0.1424 -1.0461  1.1849
   58MOL    H7811592   3.569   2.931   7.256  2.0551  0.5517 -0.8919
   58MOL    H7911593   3.393   3.018   7.025  0.2908  1.0070  1.1934
   58MOL    H8011594   3.526   2.764   7.115 -0.3811  0.3541  2.0431
   58MOL    H8111595   3.441   2.789   6.956 -1.8822  2.0286  0.4859
   58MOL    C8211596   3.302   2.762   7.119 -0.5441 -0.2032 -0.1962
   58MOL    C8311597   3.280   2.608   7.117  1.0889  0.4095  0.0727
   58MOL    C8411598   3.262   2.536   7.231  1.4616  0.2255  0.1986
   58MOL    C8511599   3.237   2.390   7.239 -0.0325  0.3028  0.4380
   58MOL    H8611600   3.296   2.802   7.221  1.1296  2.9411 -1.2653
   58MOL    H8711601   3.221   2.804   7.059  0.3949  1.2164 -0.4752
   58MOL    H8811602   3.292   2.557   7.023  1.5514 -1.4727  1.1371
   58MOL    H8911603   3.258   2.577   7.330  2.2988 -0.3264  0.4624
   58MOL    H9011604   3.241   2.348   7.138 -2.2738  3.4633 -1.0422
   58MOL    H9111605   3.132   2.368   7.261  0.5572 -2.3064  0.8912
   58MOL    C9211606   3.344   2.321   7.326 -0.6311  0.1632  0.2411
   58MOL    C9311607   3.326   2.345   7.472  1.2521 -0.1068  0.1714
   58MOL    C9411608   3.301   2.245   7.554 -0.0252 -0.3552 -0.0809
   58MOL    C9511609   3.291   2.243   7.706 -0.0931 -0.5016 -0.3156
   58MOL    H9611610   3.355   2.215   7.303 -0.8199  0.3547 -0.7809
   58MOL    H9711611   3.441   2.357   7.294  0.3119 -2.5521 -0.0434
   58MOL    H9811612   3.320   2.448   7.505  0.3617 -0.1881  0.2914
   58MOL    H9911613   3.304   2.143   7.517 -1.4765 -0.8342  1.0869
   58MOL   H10011614   3.196   2.202   7.741 -1.0007  1.3539 -0.5149
   58MOL   H10111615   3.294   2.342   7.752  0.7537 -1.4275  1.6393
   58MOL   C10211616   3.414   2.174   7.762 -0.2726 -0.2102 -0.3468
   58MOL   C10311617   3.422   2.201   7.913 -0.3003 -0.7152  0.2568
   58MOL   C10411618   3.409   2.100   0.032  0.2922 -0.8590 -0.4687
   58MOL   C10511619   3.406   2.126   0.188  0.1510 -0.2836  0.1497
   58MOL   H10611620   3.401   2.066   7.755 -0.6459 -0.1339 -0.9093
   58MOL   H10711621   3.498   2.217   7.708  0.5636 -0.3914  0.8027
   58MOL   H10811622   3.442   2.301   7.948  2.1824 -0.6169 -1.3355
   58MOL   H10911623   3.405   1.997   7.977 -0.0505  0.2212 -4.0379
   58MOL   H11011624   3.307   2.097   0.223  0.5092 -1.0976  0.4865
   58MOL   H11111625   3.426   2.233   0.197  1.3049 -0.5387  0.6207
   58MOL   C11211626   3.496   2.037   0.272  1.0378 -0.2430  0.2471
   58MOL   C11311627   3.484   2.070   0.419 -0.3820  0.5566 -0.0826
   58MOL   C11411628   3.477   1.975   0.511 -0.0333 -0.2776 -0.1102
   58MOL   C11511629   3.451   1.994   0.658 -0.4451 -0.5682  0.1999
   58MOL   H11611630   3.477   1.931   0.255  0.0259  0.3270 -2.4095
   58MOL   H11711631   3.598   2.051   0.237  1.6642  0.9333  2.4268
   58MOL   H11811632   3.462   2.173   0.447 -2.1774 -0.0228  0.7416
   58MOL   H11911633   3.497   1.874   0.479  0.7205  0.2796 -1.4205
   58MOL   H12011634   3.442   2.102   0.668  4.1577 -0.1555  0.9036
   58MOL   H12111635   3.535   1.951   0.712 -1.2345 -3.1421 -0.5364
   58MOL   C12211636   3.329   1.908   0.701 -0.0602 -0.0229  0.5241
   58MOL   C12311637   3.294   1.933   0.840 -0.4982 -0.6849  0.3661
   58MOL   C12411638   3.170   1.945   0.890 -0.2024  0.0581  0.0052
   58MOL   C12511639   3.148   1.974   1.036  0.6144 -1.1641  0.7460
   58MOL   H12611640   3.241   1.935   0.642  1.5311  0.9946 -1.4485
   58MOL   H12711641   3.335   1.804   0.671 -0.6314 -0.1837  0.9571
   58MOL   H12811642   3.380   1.938   0.906 -1.0643  1.4079  1.0086
   58MOL   H12911643   3.089   1.955   0.819 -0.8617  3.0156  1.0914
   58MOL   H13011644   3.140   2.082   1.049  0.8581 -1.1986  1.1909
   58MOL   H13111645   3.233   1.946   1.097  1.3581 -2.2839 -0.7910
   58MOL   C13211646   3.027   1.896   1.084 -0.0643  0.4426 -0.3655
   58MOL   C13311647   2.899   1.945   1.027  0.4326 -0.1484 -0.3570
   58MOL   C13411648   2.791   1.870   0.995  0.2343  0.5199 -0.1872
   58MOL   C13511649   2.672   1.937   0.928 -0.1919 -0.1522  0.2188
   58MOL   H13611650   3.041   1.788   1.076 -1.0929  0.3974 -1.7119
   58MOL   H13711651   3.010   1.917   1.189  1.7716 -0.8932  0.2282
   58MOL   H13811652   2.892   2.052   1.012  2.6115 -0.1814 -1.8150
   58MOL   H13911653   2.788   1.762   0.998  1.3903  0.5066  0.6605
   58MOL   H14011654   2.662   1.901   0.825 -0.0537 -1.5260  0.6802
   58MOL   H14111655   2.685   2.044   0.915  3.1664 -0.7012 -1.4641
   58MOL   C14211656   2.547   1.933   1.025 -0.3812 -0.1294 -0.2681
   58MOL   C14311657   2.422   1.921   0.942  0.4174  0.1670  0.0839
   58MOL   C14411658   2.365   1.803   0.908 -0.1104 -0.1970 -0.5338
   58MOL   C14511659   2.232   1.792   0.836  0.4195 -0.4065  0.5465
   58MOL   H14611660   2.556   1.854   1.100 -1.5231  0.2093  0.2359
   58MOL   H14711661   2.546   2.025   1.084 -0.9460  0.6164 -1.4210
   58MOL   H14811662   2.376   2.014   0.911  0.4994  0.1654 -0.0446
   58MOL   H14911663   2.401   1.714   0.957  0.1164 -1.1195 -2.3107
   58MOL   H15011664   2.182   1.884   0.805  0.7845  0.6663  3.0856
   58MOL   H15111665   2.162   1.752   0.909 -2.0970  3.3205  0.3086
   58MOL   C15211666   2.239   1.688   0.721 -0.5545  1.2535 -0.0320
   58MOL   C15311667   2.105   1.655   0.663 -0.3397 -0.2398  0.0447
   58MOL   C15411668   2.058   1.697   0.541 -0.1495  0.6844  0.7479
   58MOL   C15511669   1.929   1.656   0.474 -0.5316 -0.0528 -1.0507
   58MOL   H15611670   2.288   1.731   0.634 -1.3125  1.3483 -0.4218
   58MOL   H15711671   2.295   1.598   0.747  0.6790  1.8353 -0.6560
   58MOL   H15811672   2.048   1.594   0.731  0.9211 -0.5142  0.8590
   58MOL   H15911673   2.104   1.767   0.473 -1.9432  0.2377 -0.9472
   58MOL   H16011674   1.842   1.708   0.515  1.3360  0.5090  2.3286
   58MOL   H16111675   1.913   1.548   0.480 -0.4217 -0.1505 -2.3905
   58MOL   C16211676   1.936   1.684   0.323 -0.7406  0.6022 -0.2680
   58MOL   C16311677   2.038   1.603   0.248  0.7357 -0.3502 -0.3201
   58MOL   C16411678   2.158   1.647   0.208  0.4025 -0.0147  1.2526
   58MOL   C16511679   2.265   1.568   0.139  0.0926 -0.2604 -0.2195
   58MOL   H16611680   1.832   1.676   0.292 -1.7191  2.2892  2.3324
   58MOL   H16711681   1.955   1.789   0.299 -1.3507  1.2979  2.1134
   58MOL   H16811682   2.007   1.501   0.233  0.6817  0.0408 -3.0902
   58MOL   H16911683   2.183   1.747   0.238 -3.2183  1.2941  0.1244
   58MOL   H17011684   2.220   1.480   0.094 -0.1858 -0.5544  0.6161
   58MOL   H17111685   2.337   1.539   0.216 -0.1897  0.3294  0.2745
   58MOL   C17211686   2.325   1.652   0.031 -0.2804 -0.0873  0.7522
   58MOL   C17311687   2.425   1.583   7.919 -0.1245  0.0858 -0.2744
   58MOL   C17411688   2.549   1.629   7.903 -0.5594  0.3434  0.6078
   58MOL   C17511689   2.659   1.577   7.816 -0.4182  0.2978 -0.8357
   58MOL   H17611690   2.253   1.673   7.929 -0.6153  0.4122  1.1871
   58MOL   H17711691   2.368   1.747   0.064  0.5754 -0.0648 -0.4109
   58MOL   H17811692   2.394   1.495   7.864 -1.2810  0.5151 -0.3332
   58MOL   H17911693   2.576   1.720   7.955  1.0833  1.0599 -1.4087
   58MOL   H18011694   2.635   1.477   7.782  1.0475  0.2712 -1.8468
   58MOL   H18111695   2.749   1.569   7.876 -1.3299 -2.3271  0.2339
   58MOL   C18211696   2.685   1.671   7.696 -0.1736 -0.1678  0.3348
   58MOL   C18311697   2.805   1.621   7.622 -0.0443 -0.6445 -0.4904
   58MOL   C18411698   2.798   1.535   7.524  0.2765  0.7741  0.5859
   58MOL   C18511699   2.922   1.476   7.460 -0.1108  0.5697  0.2877
   58MOL   H18611700   2.600   1.700   7.634 -1.2773  0.6729  2.1901
   58MOL   H18711701   2.710   1.764   7.747 -0.6611  1.2196 -1.8992
   58MOL   H18811702   2.900   1.658   7.657  0.3766 -1.7133 -0.4684
   58MOL   H18911703   2.703   1.497   7.491  0.3378 -0.5530  1.8787
   58MOL   H19011704   3.012   1.468   7.521  0.0506  0.3909  0.0295
   58MOL   H19111705   2.947   1.534   7.372  0.6490 -0.9346 -0.5167
   58MOL   C19211706   2.900   1.328   7.419  0.5310 -0.0259  0.0468
   58MOL   C19311707   3.026   1.271   7.364  0.4057 -0.0943 -0.1022
   58MOL   C19411708   3.044   1.204   7.253 -0.0232 -0.3412  0.4959
   58MOL   C19511709   3.171   1.149   7.199  0.2433  0.1490 -0.6516
   58MOL   H19611710   2.865   1.281   7.511  0.2713  1.8079  0.9052
   58MOL   H19711711   2.825   1.318   7.341  0.8418  1.1671 -0.4121
   58MOL   H19811712   3.116   1.291   7.420  0.2431 -4.3822  1.9511
   58MOL   H19911713   2.955   1.195   7.192  0.3794 -2.4348  0.1849
   58MOL   H20011714   3.173   1.044   7.229 -1.2994  0.8780  2.1601
   58MOL   H20111715   3.258   1.205   7.232  0.6054  0.2973 -1.8181
   58MOL   H20211716   3.166   1.145   7.090  1.7544  1.7112 -0.7990
   59MOL     C111717   1.578   6.036   1.345  0.0703  1.2081 -0.0191
   59MOL     C211718   1.474   5.991   1.249  0.2466 -0.2423  0.4335
   59MOL     C311719   1.340   6.016   1.279 -0.0172  0.6541 -0.2669
   59MOL     C411720   1.226   6.007   1.177  0.3419  0.1855  0.2706
   59MOL     H511721   1.640   6.115   1.303  1.9527  0.1296  0.7029
   59MOL     H611722   1.629   5.941   1.361  0.1712  1.4127  0.8876
   59MOL     H711723   1.509   5.969   1.149  1.0242 -2.0675  1.0823
   59MOL     H811724   1.317   6.052   1.379  0.0013  1.1391 -0.4373
   59MOL     H911725   1.157   5.926   1.201 -0.5782  1.4270  1.8622
   59MOL    H1011726   1.273   5.979   1.083  1.1349 -0.7908  0.9497
   59MOL    H1111727   1.543   6.076   1.440 -2.2933  1.2323 -0.8632
   59MOL    C1211728   1.139   6.130   1.176 -0.8236  0.2866 -0.1367
   59MOL    C1311729   1.027   6.137   1.076 -0.9122  0.0590  0.3209
   59MOL    C1411730   1.037   6.206   0.965 -0.3763  0.5127 -0.3271
   59MOL    C1511731   0.934   6.214   0.855  0.0719  0.2105  0.0381
   59MOL    H1611732   1.105   6.138   1.280 -0.1085  0.3697  0.0899
   59MOL    H1711733   1.205   6.216   1.172 -0.1755 -0.1745  0.4880
   59MOL    H1811734   0.946   6.068   1.093 -1.6827  1.3097  1.7991
   59MOL    H1911735   1.126   6.265   0.945  1.0304 -1.9618 -1.6173
   59MOL    H2011736   0.843   6.159   0.880 -0.4859  0.5004 -1.2758
   59MOL    H2111737   0.982   6.156   0.775 -1.8810 -0.7964 -0.4360
   59MOL    C2211738   0.906   6.358   0.808 -0.5116  0.6672 -0.1793
   59MOL    C2311739   0.777   6.362   0.724  0.3033 -0.1089  0.3077
   59MOL    C2411740   0.670   6.432   0.763 -0.7287  0.1840 -0.3742
   59MOL    C2511741   0.550   6.461   0.675 -0.6446 -0.2703  0.2724
   59MOL    H2611742   0.901   6.423   0.895 -0.2633 -0.5290  0.7382
   59MOL    H2711743   0.986   6.395   0.743  0.1421 -1.4732 -0.6448
   59MOL    H2811744   0.780   6.299   0.636 -1.1467  0.2668 -0.0182
   59MOL    H2911745   0.670   6.482   0.859 -1.3377 -1.4317  0.4872
   59MOL    H3011746   0.461   6.407   0.707 -0.8562 -1.5844 -2.3874
   59MOL    H3111747   0.544   6.430   0.571  0.3191 -0.6703  0.3270
   59MOL    C3211748   0.520   6.610   0.672 -0.2641  0.0379  0.0549
   59MOL    C3311749   0.464   6.659   0.541  0.3761  0.9077 -0.5231
   59MOL    C3411750   0.335   6.694   0.529 -0.9098  0.6043 -1.0403
   59MOL    C3511751   0.288   6.728   0.392  0.2022 -0.6060  0.0016
   59MOL    H3611752   0.462   6.641   0.759 -1.3995 -2.9079  0.4233
   59MOL    H3711753   0.615   6.661   0.684  0.7946 -2.0366  0.8189
   59MOL    H3811754   0.527   6.661   0.454 -2.4259  0.1704 -2.6243
   59MOL    H3911755   0.270   6.693   0.615 -2.0589  1.7974 -1.8743
   59MOL    H4011756   0.370   6.714   0.321  0.6941 -0.7312  0.5936
   59MOL    H4111757   0.255   6.831   0.378  0.9599 -0.4438 -0.5760
   59MOL    C4211758   0.173   6.647   0.338  0.4268 -0.0368  0.5890
   59MOL    C4311759   0.156   6.680   0.187 -0.2012  0.7973 -0.1812
   59MOL    C4411760   0.070   6.774   0.148  0.2566  0.2479 -0.0074
   59MOL    C4511761   0.055   6.816   0.005 -0.1078 -0.0645  0.2477
   59MOL    H4611762   0.185   6.539   0.348 -1.2192 -0.1545  1.4447
   59MOL    H4711763   0.093   6.670   0.409  1.4604 -0.2498  1.8468
   59MOL    H4811764   0.234   6.627   0.134 -0.9695  0.0664 -0.5891
   59MOL    H4911765   0.002   6.815   0.221  1.3450  2.3795 -0.1643
   59MOL    H5011766   0.139   6.781   7.922 -0.7603 -0.6729 -0.3219
   59MOL    H5111767   0.052   6.925   0.001 -2.0851 -0.1130  0.1221
   59MOL    C5211768   7.899   6.767   7.922 -0.5356 -0.4597  0.5772
   59MOL    C5311769   7.876   6.810   7.782  0.1189 -0.1602  0.1249
   59MOL    C5411770   7.786   6.901   7.747  0.4611 -0.0203 -0.0326
   59MOL    C5511771   7.759   6.951   7.606  0.1847 -0.5792  0.5629
   59MOL    H5611772   7.900   6.658   7.926 -0.2257 -0.5071 -0.4988
   59MOL    H5711773   7.810   6.791   0.002 -2.5796 -1.9054 -1.8881
   59MOL    H5811774   7.948   6.777   7.707  0.5527  1.1505 -0.0482
   59MOL    H5911775   7.719   6.949   7.817  0.4511  1.1821 -0.8450
   59MOL    H6011776   7.817   6.887   7.539 -0.1273 -0.7517  0.4547
   59MOL    H6111777   7.809   7.042   7.575  0.5149 -1.0038 -0.1538
   59MOL    C6211778   7.613   6.939   7.576  0.1600 -0.0130  0.4899
   59MOL    C6311779   7.522   7.038   7.652 -0.4430 -0.6058  0.0259
   59MOL    C6411780   7.558   7.156   7.703 -0.3507 -0.5060 -0.1707
   59MOL    C6511781   7.463   7.236   7.778  0.1825 -0.2738  0.6925
   59MOL    H6611782   7.596   6.945   7.468 -0.5141 -1.8360  0.4800
   59MOL    H6711783   7.575   6.840   7.602  0.6165  0.2213  2.0936
   59MOL    H6811784   7.421   7.004   7.671 -0.5667  1.0183  2.4366
   59MOL    H6911785   7.653   7.203   7.683 -0.3646 -1.0440 -1.4862
   59MOL    H7011786   7.367   7.186   7.772 -0.0277  0.1456  0.4834
   59MOL    H7111787   7.449   7.337   7.739 -0.7093 -0.2843  0.9787
   59MOL    C7211788   7.512   7.252   7.922 -0.8671  0.2369 -0.1914
   59MOL    C7311789   7.406   7.305   0.038  0.0769 -0.0266  0.4880
   59MOL    C7411790   7.337   7.224   0.119  0.8836 -0.3740  0.2223
   59MOL    C7511791   7.211   7.261   0.202  0.0976 -0.5635 -0.6423
   59MOL    H7611792   7.540   7.156   7.965 -0.9083  0.0115 -0.6632
   59MOL    H7711793   7.600   7.317   7.922 -0.1720 -0.6953 -0.7916
   59MOL    H7811794   7.383   7.410   0.033 -0.6590 -0.2640 -2.0089
   59MOL    H7911795   7.354   7.118   0.119 -0.1461 -0.5440  0.3928
   59MOL    H8011796   7.148   7.173   0.189  0.8998 -1.3607  0.8147
   59MOL    H8111797   7.160   7.346   0.157  1.3233 -0.3412 -1.6577
   59MOL    C8211798   7.251   7.282   0.346  0.1916 -0.4372  0.6519
   59MOL    C8311799   7.357   7.385   0.365  0.3983  0.5457 -0.2580
   59MOL    C8411800   7.482   7.345   0.394 -0.3050  0.1221  0.6506
   59MOL    C8511801   7.610   7.433   0.403  0.4664  0.0743  0.0232
   59MOL    H8611802   7.157   7.312   0.392 -1.1234 -0.3549 -2.0098
   59MOL    H8711803   7.281   7.193   0.402  1.2163 -1.2815 -1.1837
   59MOL    H8811804   7.330   7.487   0.343 -2.9090  0.3154  2.4144
   59MOL    H8911805   7.499   7.240   0.411 -3.1742 -0.7603 -1.6438
   59MOL    H9011806   7.659   7.460   0.310  0.0406 -2.0555 -0.8471
   59MOL    H9111807   7.683   7.371   0.456  1.4163  2.4961  1.6653
   59MOL    C9211808   7.591   7.555   0.475  0.5414  0.5590 -0.6589
   59MOL    C9311809   7.719   7.633   0.510 -0.2337 -0.1951 -0.7132
   59MOL    C9411810   7.735   7.686   0.633  0.3014 -0.2904 -0.2792
   59MOL    C9511811   7.857   7.764   0.680  0.9226  0.1328  0.2120
   59MOL    H9611812   7.536   7.604   0.395 -1.2692 -1.0343 -0.4261
   59MOL    H9711813   7.524   7.547   0.561 -0.3943 -1.0997 -1.5052
   59MOL    H9811814   7.796   7.657   0.439  1.4587  1.4720  1.5966
   59MOL    H9911815   7.665   7.679   0.714  1.0545 -2.3901  0.2019
   59MOL   H10011816   7.821   7.866   0.681  0.3988 -0.0626  1.4142
   59MOL   H10111817   7.938   7.752   0.607  0.3374 -1.0787 -0.2588
   59MOL   C10211818   7.892   7.713   0.822  0.1090 -0.2930 -0.3502
   59MOL   C10311819   0.032   7.786   0.886 -0.4050  0.3290  0.3626
   59MOL   C10411820   0.017   7.875   0.981  0.3095 -0.3168  0.1286
   59MOL   C10511821   0.133   7.950   1.029  0.0436 -0.4388  0.1963
   59MOL   H10611822   7.817   7.710   0.901  1.6857  1.0185  1.2502
   59MOL   H10711823   7.932   7.612   0.816  2.7803  0.6121  1.2875
   59MOL   H10811824   0.126   7.762   0.839 -0.3530  1.3033 -0.0500
   59MOL   H10911825   7.893   7.897   1.012  0.5669 -1.1375  1.5553
   59MOL   H11011826   0.223   7.913   0.980 -1.8414 -2.0178 -2.1479
   59MOL   H11111827   0.138   7.927   1.136  0.1715  2.8995  0.9601
   59MOL   C11211828   0.113   0.119   1.014  0.4347 -0.1871 -0.4036
   59MOL   C11311829   0.234   0.189   1.066 -0.4638  0.0207  0.0644
   59MOL   C11411830   0.315   0.257   0.982 -0.8655 -0.1151 -0.7340
   59MOL   C11511831   0.445   0.314   1.029  0.1423 -0.3225 -0.6088
   59MOL   H11611832   0.084   0.152   0.914  0.1601  1.5556  0.2328
   59MOL   H11711833   0.031   0.160   1.072  1.3786  1.8169 -0.4444
   59MOL   H11811834   0.257   0.172   1.170 -1.0604 -0.0989  0.1779
   59MOL   H11911835   0.293   0.273   0.878  0.4004  0.1426 -0.9719
   59MOL   H12011836   0.527   0.278   0.968 -0.4501 -1.3584 -0.8116
   59MOL   H12111837   0.471   0.282   1.130 -0.4549 -0.9689 -0.6554
   59MOL   C12211838   0.447   0.459   1.019  0.7903 -0.6217  0.5669
   59MOL   C12311839   0.586   0.527   1.037 -0.3421 -0.0992  0.1972
   59MOL   C12411840   0.625   0.599   1.142  0.0066 -0.2284 -0.0059
   59MOL   C12511841   0.764   0.663   1.159 -0.2006  0.4602  0.0580
   59MOL   H12611842   0.400   0.496   0.928  1.1177  0.4288  0.8168
   59MOL   H12711843   0.366   0.489   1.086 -0.3887 -1.2925 -0.5437
   59MOL   H12811844   0.666   0.525   0.965  0.6612 -0.7395  1.3121
   59MOL   H12911845   0.560   0.623   1.224 -1.7279  0.8030 -1.6597
   59MOL   H13011846   0.829   0.624   1.081 -1.9942 -1.3241 -0.6120
   59MOL   H13111847   0.810   0.647   1.256 -1.4094 -0.4910  0.4899
   59MOL   C13211848   0.764   0.817   1.130  0.7782  0.3756 -0.1114
   59MOL   C13311849   0.896   0.880   1.169 -0.1460  0.2065  0.8888
   59MOL   C13411850   0.953   0.978   1.099 -0.0090 -0.2037  0.1782
   59MOL   C13511851   1.090   1.041   1.130 -0.4244 -0.0042 -0.8263
   59MOL   H13611852   0.736   0.848   1.029  0.0055  1.4644  0.4329
   59MOL   H13711853   0.685   0.856   1.194 -0.5959 -3.0072  0.3761
   59MOL   H13811854   0.950   0.852   1.258  2.9074 -1.0679 -1.2756
   59MOL   H13911855   0.900   1.003   1.009 -1.1135 -0.9748  0.5971
   59MOL   H14011856   1.167   1.000   1.064  0.9769  0.3829  0.5418
   59MOL   H14111857   1.126   1.011   1.228 -0.6274 -2.0233 -1.3466
   59MOL   C14211858   1.083   1.194   1.130 -0.3436 -0.4343  1.3194
   59MOL   C14311859   0.991   1.240   1.245  0.3880  0.0322 -0.3945
   59MOL   C14411860   0.893   1.326   1.220  0.1043  0.0037  0.6940
   59MOL   C14511861   0.785   1.366   1.318 -0.4142  0.0816 -0.9037
   59MOL   H14611862   1.177   1.247   1.141  0.3554 -1.7324  1.7355
   59MOL   H14711863   1.044   1.229   1.034 -2.9915 -0.5237  2.3102
   59MOL   H14811864   1.010   1.202   1.344 -2.9546 -0.8478 -0.0299
   59MOL   H14911865   0.880   1.375   1.124 -0.0906 -0.7900  0.3072
   59MOL   H15011866   0.794   1.323   1.417 -0.2147 -2.1798 -1.8620
   59MOL   H15111867   0.688   1.329   1.285  0.0132 -2.2468  0.3399
   59MOL   C15211868   0.774   1.517   1.325  0.5762  0.0825  0.3066
   59MOL   C15311869   0.704   1.571   1.444 -0.4221 -0.2907  0.4028
   59MOL   C15411870   0.754   1.630   1.551  0.5208 -0.0113 -0.1089
   59MOL   C15511871   0.671   1.685   1.664  0.5551  0.2675  0.1673
   59MOL   H15611872   0.873   1.562   1.318  0.7850 -0.8244 -3.5196
   59MOL   H15711873   0.726   1.558   1.237 -0.2838 -0.9656  0.2747
   59MOL   H15811874   0.597   1.562   1.454 -0.6024  1.9369  0.6926
   59MOL   H15911875   0.858   1.656   1.554  0.2880  1.0603 -0.8975
   59MOL   H16011876   0.564   1.664   1.655  1.0361 -3.2862  2.0802
   59MOL   H16111877   0.687   1.792   1.650  0.4762  0.0072 -2.1165
   59MOL   C16211878   0.717   1.624   1.799 -0.2449  0.2550  0.0996
   59MOL   C16311879   0.615   1.620   1.921 -0.2134  0.8612  0.6552
   59MOL   C16411880   0.558   1.510   1.964  0.0047  0.3068  0.4354
   59MOL   C16511881   0.459   1.508   2.077  0.0083  0.6338 -0.1346
   59MOL   H16611882   0.722   1.516   1.781 -0.7866  0.3036 -0.3492
   59MOL   H16711883   0.817   1.659   1.824  0.5517  0.2248 -2.9115
   59MOL   H16811884   0.593   1.717   1.963 -0.1080  0.5757  1.3651
   59MOL   H16911885   0.574   1.415   1.915  2.1041 -0.3286  2.2875
   59MOL   H17011886   0.446   1.610   2.116 -1.8466  0.7326 -0.9927
   59MOL   H17111887   0.501   1.453   2.162 -1.3908 -0.5868 -0.2245
   59MOL   C17211888   0.323   1.454   2.033  0.7094 -0.2771  0.0628
   59MOL   C17311889   0.229   1.468   2.144 -0.1146 -0.2805 -0.2427
   59MOL   C17411890   0.176   1.369   2.216  0.0393 -1.0321  0.2869
   59MOL   C17511891   0.058   1.387   2.315  0.1691  0.2197  0.2726
   59MOL   H17611892   0.275   1.509   1.952 -0.4366 -0.0975  0.8364
   59MOL   H17711893   0.324   1.347   2.013 -2.3779 -0.7851  2.0756
   59MOL   H17811894   0.206   1.572   2.164  1.6019 -0.0663  0.7078
   59MOL   H17911895   0.196   1.266   2.190 -1.1549 -1.4340  0.9355
   59MOL   H18011896   7.946   1.351   2.262  0.6933  1.1485 -1.2790
   59MOL   H18111897   0.032   1.492   2.323  2.8203  0.7065  3.1417
   59MOL   C18211898   0.098   1.328   2.451  0.9309  0.0647 -0.2509
   59MOL   C18311899   0.000   1.361   2.560 -0.3290 -0.0882  0.2981
   59MOL   C18411900   7.892   1.280   2.608  0.1342  0.7243 -0.2317
   59MOL   C18511901   7.798   1.302   2.723  0.4814  0.2767  0.7340
   59MOL   H18611902   0.121   1.221   2.447  0.5971  0.0400 -2.2019
   59MOL   H18711903   0.194   1.373   2.477  0.5743 -0.1854  1.5237
   59MOL   H18811904   0.009   1.462   2.598 -1.5772  0.2113 -0.1959
   59MOL   H18911905   7.886   1.176   2.582  1.7571  0.7698 -0.8201
   59MOL   H19011906   7.821   1.391   2.781  3.4539 -0.7374  1.1854
   59MOL   H19111907   7.835   1.239   2.804  3.8015 -0.6671 -1.4288
   59MOL   C19211908   7.654   1.258   2.684  0.1609 -1.1690 -0.7843
   59MOL   C19311909   7.559   1.255   2.802 -0.0447  0.0074 -0.5595
   59MOL   C19411910   7.460   1.343   2.816 -0.4651  0.6295 -0.2695
   59MOL   C19511911   7.362   1.343   2.932 -0.6138 -0.6121  0.0445
   59MOL   H19611912   7.615   1.320   2.603 -0.5247 -0.3872  0.1313
   59MOL   H19711913   7.661   1.158   2.642  2.1804 -1.4656  0.2051
   59MOL   H19811914   7.593   1.180   2.871 -0.9584  0.3545  0.2835
   59MOL   H19911915   7.436   1.421   2.745  0.8422 -1.1044 -2.6746
   59MOL   H20011916   7.391   1.271   3.008  2.8087  0.2537 -0.3309
   59MOL   H20111917   7.269   1.311   2.886 -0.3873  0.8276 -1.4957
   59MOL   H20211918   7.360   1.447   2.967  0.3869 -0.4656 -0.3070
   60MOL     C111919   0.581   4.106   2.355 -0.1176  0.2204 -0.2035
   60MOL     C211920   0.515   4.242   2.348  0.4346 -0.3397  0.3161
   60MOL     C311921   0.383   4.263   2.373  0.0032  0.1670  0.0677
   60MOL     C411922   0.318   4.405   2.386 -0.2765  0.3609 -0.1161
   60MOL     H511923   0.653   4.088   2.435  1.1833  0.3110 -1.3285
   60MOL     H611924   0.627   4.089   2.257  0.7902  0.9937  0.0895
   60MOL     H711925   0.573   4.328   2.316 -1.6013  0.0662 -2.4105
   60MOL     H811926   0.313   4.184   2.399 -1.3453  0.9756 -1.0077
   60MOL     H911927   0.226   4.404   2.328 -1.2800  1.6605  1.4400
   60MOL    H1011928   0.370   4.483   2.330 -0.9935  0.6460 -0.3914
   60MOL    H1111929   0.500   4.034   2.365  1.1591 -1.3822 -1.0381
   60MOL    C1211930   0.284   4.434   2.535  0.2665 -0.4682  0.2448
   60MOL    C1311931   0.405   4.493   2.606  0.4221 -0.4127 -0.7783
   60MOL    C1411932   0.405   4.615   2.663  0.1153  0.7431  0.5063
   60MOL    C1511933   0.535   4.671   2.721 -0.4381  0.0831  0.2956
   60MOL    H1611934   0.209   4.513   2.544 -0.2241 -1.0237  1.0900
   60MOL    H1711935   0.236   4.355   2.593 -1.5864  1.2133  1.0504
   60MOL    H1811936   0.498   4.439   2.606  0.1129 -0.9664 -1.8878
   60MOL    H1911937   0.321   4.681   2.675  1.7390  2.4690  2.7433
   60MOL    H2011938   0.613   4.605   2.683  0.6290  0.8579  1.0970
   60MOL    H2111939   0.532   4.664   2.830 -0.2233  1.2441  0.3871
   60MOL    C2211940   0.574   4.808   2.668  0.5925 -0.0857 -0.0231
   60MOL    C2311941   0.720   4.841   2.683 -0.3359  0.3411  0.0794
   60MOL    C2411942   0.796   4.825   2.788 -0.4161 -0.5387 -0.2235
   60MOL    C2511943   0.940   4.858   2.811 -0.9208  0.2879  0.0830
   60MOL    H2611944   0.558   4.798   2.561  1.2052  0.2977 -0.1567
   60MOL    H2711945   0.516   4.893   2.705 -1.3005 -1.7063  0.8054
   60MOL    H2811946   0.763   4.884   2.593 -1.5713 -1.9106 -1.6483
   60MOL    H2911947   0.744   4.787   2.875  1.1982 -0.1059  0.9609
   60MOL    H3011948   0.975   4.756   2.829  0.3667  0.5508 -0.8619
   60MOL    H3111949   0.945   4.917   2.903 -0.6938  1.8073 -0.9015
   60MOL    C3211950   1.009   4.950   2.706  0.5893  0.4020  1.1996
   60MOL    C3311951   1.044   4.900   2.570  0.2281 -0.1473  0.2010
   60MOL    C3411952   1.161   4.929   2.503 -0.5005 -0.0847  0.1692
   60MOL    C3511953   1.194   4.873   2.366  0.7011  0.9529  0.5408
   60MOL    H3611954   0.933   5.029   2.699  0.1732 -0.1566 -0.7034
   60MOL    H3711955   1.092   5.004   2.753  0.6513 -0.5725  2.2323
   60MOL    H3811956   0.976   4.835   2.518  0.4834 -0.0012 -0.3225
   60MOL    H3911957   1.241   4.993   2.535  0.2113 -0.7832 -0.1977
   60MOL    H4011958   1.209   4.940   2.281 -2.4874  0.4417 -0.4684
   60MOL    H4111959   1.111   4.809   2.337  0.6314  0.9057  0.8473
   60MOL    C4211960   1.317   4.783   2.374  1.0221  0.0617 -0.5498
   60MOL    C4311961   1.324   4.686   2.254  0.5633  0.5718 -0.4421
   60MOL    C4411962   1.345   4.553   2.271 -0.3181 -0.0721  0.4109
   60MOL    C4511963   1.347   4.441   2.173 -0.1065  0.3923 -0.3752
   60MOL    H4611964   1.408   4.843   2.374  1.4081 -0.4570  2.4573
   60MOL    H4711965   1.312   4.712   2.457  1.1206  0.6747 -0.0190
   60MOL    H4811966   1.296   4.732   2.161 -0.4578  0.1676 -0.3484
   60MOL    H4911967   1.357   4.518   2.372 -0.4012  2.4575  1.3262
   60MOL    H5011968   1.440   4.391   2.201 -0.2248  0.8303  0.7911
   60MOL    H5111969   1.349   4.475   2.069 -0.0727 -0.7840 -0.7608
   60MOL    C5211970   1.224   4.349   2.183  0.7737  0.2178  0.1283
   60MOL    C5311971   1.230   4.229   2.095 -0.3383  0.0006  0.5996
   60MOL    C5411972   1.240   4.099   2.124 -0.1430 -0.5767 -0.6714
   60MOL    C5511973   1.225   3.984   2.028 -0.0455  0.2642  0.6680
   60MOL    H5611974   1.214   4.307   2.283  0.6196  1.4978  0.6688
   60MOL    H5711975   1.132   4.402   2.158 -0.2701 -1.5760  0.1058
   60MOL    H5811976   1.224   4.266   1.994 -0.0645  0.8194  0.8793
   60MOL    H5911977   1.255   4.072   2.228 -1.0163 -1.9544 -0.8948
   60MOL    H6011978   1.309   3.917   2.046 -0.0633  0.0174 -0.1129
   60MOL    H6111979   1.231   4.017   1.924  0.6879 -0.3144  0.5225
   60MOL    C6211980   1.090   3.914   2.047 -0.5094  0.6385 -0.2603
   60MOL    C6311981   1.077   3.791   1.957 -0.0190  0.3342  0.0525
   60MOL    C6411982   1.018   3.676   1.984 -0.9911 -0.2503 -0.0675
   60MOL    C6511983   1.015   3.555   1.887 -0.5607 -0.2083  0.1301
   60MOL    H6611984   1.061   3.884   2.148  1.5675  1.3902  0.5871
   60MOL    H6711985   1.019   3.994   2.025  1.4533  2.3560 -0.4276
   60MOL    H6811986   1.112   3.806   1.856 -0.2469 -1.7369 -0.3481
   60MOL    H6911987   0.990   3.644   2.083  1.1012  0.8158  0.8977
   60MOL    H7011988   1.082   3.578   1.805  0.3824 -1.5372  0.5171
   60MOL    H7111989   0.919   3.555   1.835  1.0316 -3.2260 -3.0184
   60MOL    C7211990   1.043   3.416   1.953  0.0369  0.3967  0.3957
   60MOL    C7311991   1.026   3.306   1.855  0.0633  0.1010  0.0073
   60MOL    C7411992   1.123   3.212   1.824  0.5571 -0.0228 -0.2208
   60MOL    C7511993   1.107   3.093   1.726  1.1194 -0.3700 -0.2009
   60MOL    H7611994   1.144   3.413   1.994  0.4394  2.5580 -0.3652
   60MOL    H7711995   0.970   3.388   2.029 -1.1686 -1.0155 -1.2524
   60MOL    H7811996   0.926   3.297   1.815 -0.5781  0.3468  1.5312
   60MOL    H7911997   1.216   3.208   1.880  0.6360 -2.5532 -0.4892
   60MOL    H8011998   1.141   3.136   1.632  0.2176 -0.1445 -0.4356
   60MOL    H8111999   1.005   3.065   1.699  1.1658  0.6558 -1.5003
   60MOL    C8212000   1.199   2.972   1.765  0.5768  0.0986  0.3246
   60MOL    C8312001   1.146   2.841   1.712  0.5242  0.2614 -0.8403
   60MOL    C8412002   1.195   2.775   1.605  1.2800  0.2474 -0.3340
   60MOL    C8512003   1.142   2.647   1.539  0.1631 -0.2660  0.4631
   60MOL    H8612004   1.300   3.007   1.744  1.1650 -0.4356  2.1924
   60MOL    H8712005   1.207   2.950   1.871  0.5234 -1.5034  0.0092
   60MOL    H8812006   1.058   2.803   1.761  0.8865 -2.9939 -2.5795
   60MOL    H8912007   1.285   2.813   1.559  1.5126  2.0046  1.4941
   60MOL    H9012008   1.224   2.577   1.521  0.3583  1.1021 -4.9296
   60MOL    H9112009   1.118   2.668   1.434 -0.4039  0.4418  0.7297
   60MOL    C9212010   1.025   2.578   1.617 -0.2371 -0.4930  0.2357
   60MOL    C9312011   0.987   2.446   1.548 -0.1833 -0.2982  0.2123
   60MOL    C9412012   0.965   2.331   1.612 -0.0351  0.5758  0.4758
   60MOL    C9512013   0.939   2.203   1.535  0.0125  0.1519  0.1254
   60MOL    H9612014   1.051   2.577   1.723  0.2764  0.5245  0.1204
   60MOL    H9712015   0.949   2.654   1.608  1.8661  1.6163 -0.1984
   60MOL    H9812016   0.989   2.444   1.440 -0.9717  0.0377  0.1877
   60MOL    H9912017   0.964   2.324   1.720 -1.9740  1.8499  0.5638
   60MOL   H10012018   1.027   2.140   1.546  1.1084  1.3420 -1.5573
   60MOL   H10112019   0.944   2.223   1.428  0.6763 -0.4857  0.0305
   60MOL   C10212020   0.818   2.125   1.583 -0.3145  0.2213  0.3329
   60MOL   C10312021   0.791   2.008   1.489  0.3098  0.9472 -0.1504
   60MOL   C10412022   0.706   2.018   1.384 -0.1810 -0.3004  0.0161
   60MOL   C10512023   0.684   1.898   1.287  0.8206 -1.1220  0.5672
   60MOL   H10612024   0.838   2.103   1.688 -1.6337  0.3887  0.6179
   60MOL   H10712025   0.731   2.190   1.584 -2.6879 -2.8172 -1.0064
   60MOL   H10812026   0.845   1.917   1.512 -1.1235 -0.3040 -1.5455
   60MOL   H10912027   0.665   2.116   1.367 -1.5983 -1.0157 -0.8046
   60MOL   H11012028   0.740   1.810   1.318 -1.2312 -2.1446  1.4422
   60MOL   H11112029   0.728   1.943   1.197 -2.3581  1.7150  0.3198
   60MOL   C11212030   0.537   1.872   1.260 -0.0497 -0.2382 -0.3491
   60MOL   C11312031   0.519   1.768   1.157 -0.3219  0.4017  0.3646
   60MOL   C11412032   0.442   1.654   1.171 -0.6327 -0.4480  0.0391
   60MOL   C11512033   0.404   1.550   1.066 -0.4975 -0.1161  0.5647
   60MOL   H11612034   0.496   1.849   1.358 -2.4673  3.0120 -0.5138
   60MOL   H11712035   0.505   1.971   1.227 -0.1404 -0.3726 -0.6737
   60MOL   H11812036   0.572   1.793   1.067  0.9516 -0.9421  0.7179
   60MOL   H11912037   0.392   1.642   1.266  1.3635  1.0553  1.3178
   60MOL   H12012038   0.431   1.590   0.969  0.5727  0.2642  1.0082
   60MOL   H12112039   0.295   1.543   1.068 -0.8311  3.1096 -1.5273
   60MOL   C12212040   0.456   1.411   1.093 -0.5152  0.5681  0.1191
   60MOL   C12312041   0.367   1.297   1.046  0.6490 -0.8182  0.3764
   60MOL   C12412042   0.279   1.236   1.128 -0.2120 -0.8071 -0.0605
   60MOL   C12512043   0.183   1.131   1.082 -0.2404  0.6026 -0.5650
   60MOL   H12612044   0.554   1.394   1.048  0.0850  1.9002  0.9045
   60MOL   H12712045   0.464   1.399   1.201 -1.6404  3.0074  0.5158
   60MOL   H12812046   0.384   1.269   0.943 -0.1056  1.5681 -0.4421
   60MOL   H12912047   0.263   1.282   1.225 -1.8811  0.0866 -0.7460
   60MOL   H13012048   0.207   1.052   1.153 -1.1430 -1.0893 -2.0841
   60MOL   H13112049   0.196   1.094   0.980 -1.0634 -1.3861  0.0171
   60MOL   C13212050   0.038   1.165   1.109 -0.5303 -0.2329 -0.0648
   60MOL   C13312051   7.973   1.283   1.023 -0.0923  0.7416 -0.0193
   60MOL   C13412052   7.916   1.397   1.071  0.0516 -0.1703 -0.6260
   60MOL   C13512053   7.885   1.515   0.983  0.2271  1.1265  0.1506
   60MOL   H13612054   7.945   1.083   1.090  0.3599 -1.0315  0.0253
   60MOL   H13712055   0.029   1.196   1.214  1.1794 -0.6599  0.2207
   60MOL   H13812056   0.018   1.277   0.918 -0.1870 -0.5812  0.0334
   60MOL   H13912057   7.898   1.411   1.176  2.1247  2.5386 -0.5865
   60MOL   H14012058   7.910   1.610   1.030 -0.2572  0.7502  1.1800
   60MOL   H14112059   7.776   1.514   0.983  0.2278  0.7207 -0.5019
   60MOL   C14212060   7.945   1.509   0.842 -0.1138 -0.2518 -0.4992
   60MOL   C14312061   7.915   1.637   0.773 -0.1242  0.3637 -0.7995
   60MOL   C14412062   7.815   1.655   0.689 -0.7756  0.5490  0.5060
   60MOL   C14512063   7.796   1.784   0.622 -0.7607  0.0050 -0.0331
   60MOL   H14612064   0.075   1.489   0.844  0.0686  0.5044 -1.7257
   60MOL   H14712065   7.895   1.432   0.784 -1.6934  1.1276 -1.0195
   60MOL   H14812066   7.973   1.722   0.805 -1.0822  0.6904  0.1349
   60MOL   H14912067   7.747   1.575   0.663  0.9340 -1.4369  2.0084
   60MOL   H15012068   7.862   1.867   0.645 -1.2489  1.0097 -2.1474
   60MOL   H15112069   7.695   1.812   0.650 -0.6813  0.8865 -0.6222
   60MOL   C15212070   7.800   1.765   0.473 -0.2288 -1.0289 -0.1985
   60MOL   C15312071   7.787   1.894   0.396 -0.1648 -0.2176  0.4066
   60MOL   C15412072   7.704   1.914   0.287  0.0651  0.3280  0.4782
   60MOL   C15512073   7.686   2.052   0.221 -0.3717  0.1597 -0.4562
   60MOL   H15612074   7.890   1.705   0.454 -0.3923 -0.9864 -1.1716
   60MOL   H15712075   7.726   1.693   0.436  0.3542 -1.6865 -0.1041
   60MOL   H15812076   7.853   1.975   0.424 -2.2657  1.6879  0.0379
   60MOL   H15912077   7.641   1.832   0.256  0.4395 -0.9708  2.9712
   60MOL   H16012078   7.690   2.040   0.112 -2.0749  1.1242 -0.6439
   60MOL   H16112079   7.766   2.124   0.238  0.6420 -0.5588 -2.0269
   60MOL   C16212080   7.551   2.113   0.260  0.6160 -0.0868  0.1310
   60MOL   C16312081   7.539   2.248   0.195  0.2387 -0.3701  0.5098
   60MOL   C16412082   7.439   2.277   0.104 -0.1206 -0.0508  0.0736
   60MOL   C16512083   7.410   2.414   0.043  0.0624  0.4661 -0.1971
   60MOL   H16612084   7.474   2.041   0.231  0.3382 -0.3455  1.4747
   60MOL   H16712085   7.557   2.126   0.368  5.9787 -3.6587  0.4452
   60MOL   H16812086   7.602   2.328   0.231  1.0836 -0.5482 -0.5356
   60MOL   H16912087   7.372   2.196   0.079 -0.4752  0.3671 -0.3328
   60MOL   H17012088   7.470   2.482   0.103 -0.4843  1.1449 -0.4058
   60MOL   H17112089   7.308   2.448   0.062 -1.2946 -3.1163 -0.7370
   60MOL   C17212090   7.447   2.433   7.873  0.4672  0.3326  0.5700
   60MOL   C17312091   7.368   2.350   7.784 -0.2827 -0.3914 -0.1408
   60MOL   C17412092   7.423   2.274   7.690  0.2074 -0.2940 -0.0762
   60MOL   C17512093   7.338   2.180   7.608  0.5994 -0.2786 -0.4877
   60MOL   H17612094   7.437   2.537   7.844 -2.0466  0.0427  0.3082
   60MOL   H17712095   7.552   2.406   7.865  0.5143 -0.3000  2.8610
   60MOL   H17812096   7.261   2.357   7.796 -0.1605 -1.9868  2.2386
   60MOL   H17912097   7.529   2.275   7.673  0.1043 -0.7466 -0.7735
   60MOL   H18012098   7.233   2.184   7.640  0.3177  0.0476 -1.4234
   60MOL   H18112099   7.347   2.073   7.625  0.4649 -0.0939  0.7573
   60MOL   C18212100   7.365   2.207   7.457 -0.1861  0.2736 -0.6797
   60MOL   C18312101   7.273   2.131   7.374  0.4570  0.1916 -0.5005
   60MOL   C18412102   7.309   2.046   7.281  0.4259  0.2948  0.2911
   60MOL   C18512103   7.224   1.953   7.209 -0.0529 -1.1785 -0.1453
   60MOL   H18612104   7.341   2.313   7.444 -1.2301 -0.0455 -1.4177
   60MOL   H18712105   7.466   2.182   7.425 -0.5850 -1.5603 -0.5721
   60MOL   H18812106   7.170   2.137   7.406 -0.1729 -2.7930 -1.7931
   60MOL   H18912107   7.411   2.030   7.248  0.6868  2.3472  0.0036
   60MOL   H19012108   7.124   1.956   7.253 -0.9238 -1.4501 -2.0263
   60MOL   H19112109   7.269   1.855   7.221 -0.7078 -1.5787 -0.8844
   60MOL   C19212110   7.221   1.979   7.059 -0.5235  0.1928  0.2358
   60MOL   C19312111   7.155   1.877   6.980 -0.1167 -0.0851 -0.6381
   60MOL   C19412112   7.206   1.831   6.863 -0.0052  0.0455  0.2032
   60MOL   C19512113   7.138   1.720   6.791  0.3179  0.4871 -0.3957
   60MOL   H19612114   7.170   2.071   7.032  0.6383  0.6650 -0.3782
   60MOL   H19712115   7.323   1.993   7.024 -1.4683  1.9519 -1.8600
   60MOL   H19812116   7.057   1.847   7.013  0.0585  0.4595  0.3845
   60MOL   H19912117   7.298   1.867   6.820 -1.1274  2.8439  0.0541
   60MOL   H20012118   7.042   1.693   6.836  1.6653 -1.6092  1.3044
   60MOL   H20112119   7.198   1.630   6.780  0.3261  0.6800 -2.0133
   60MOL   H20212120   7.116   1.755   6.690  1.7510 -0.2250 -0.9658
   61MOL     C112121   5.065   4.028   0.297  0.1243 -0.6638  0.6046
   61MOL     C212122   4.989   3.939   0.392 -0.4447  0.0467  0.9448
   61MOL     C312123   4.885   3.979   0.470  0.1003 -0.5510 -0.6474
   61MOL     C412124   4.823   3.899   0.575  0.7220 -0.0887  0.3164
   61MOL     H512125   5.129   4.092   0.358  1.5897 -0.3639 -1.2244
   61MOL     H612126   5.002   4.091   0.234  0.3869 -0.7583  0.2523
   61MOL     H712127   5.024   3.836   0.390  0.2708  0.2690  1.6255
   61MOL     H812128   4.855   4.082   0.460 -0.5920 -0.6444  0.4120
   61MOL     H912129   4.845   3.795   0.553  1.3948 -0.0165  0.6421
   61MOL    H1012130   4.715   3.910   0.566  0.9580  2.3135 -0.0585
   61MOL    H1112131   5.129   3.962   0.240  0.0412  0.7133 -1.1127
   61MOL    C1212132   4.886   3.937   0.714  0.1386 -0.2191  0.9945
   61MOL    C1312133   4.865   4.081   0.751  0.4992 -0.0765 -0.7701
   61MOL    C1412134   4.775   4.113   0.843  0.3698 -0.8929 -0.1883
   61MOL    C1512135   4.725   4.258   0.862 -0.2279 -0.3135  0.2384
   61MOL    H1612136   4.841   3.872   0.790 -0.5479 -1.5796 -0.5408
   61MOL    H1712137   4.991   3.908   0.712  0.3270  0.5370 -1.2093
   61MOL    H1812138   4.902   4.157   0.684 -0.9035  1.2078 -0.1360
   61MOL    H1912139   4.733   4.042   0.912 -0.9490  2.2596  2.3874
   61MOL    H2012140   4.624   4.259   0.901 -0.8533 -1.7059 -1.3293
   61MOL    H2112141   4.721   4.319   0.772 -2.4829  0.5034  0.8594
   61MOL    C2212142   4.810   4.338   0.961  1.0251  0.2759  0.1037
   61MOL    C2312143   4.749   4.472   0.981  0.1617  0.1480  0.5023
   61MOL    C2412144   4.705   4.529   1.098 -0.0095 -0.6255  0.0520
   61MOL    C2512145   4.657   4.671   1.099 -0.2502 -0.1488  0.1618
   61MOL    H2612146   4.836   4.290   1.056 -0.0231  0.9870  0.7596
   61MOL    H2712147   4.905   4.347   0.907  1.2230 -0.2584  0.3579
   61MOL    H2812148   4.727   4.525   0.890 -0.1706  0.8195  0.9728
   61MOL    H2912149   4.714   4.482   1.195  0.1606 -1.4231 -0.3425
   61MOL    H3012150   4.548   4.672   1.097 -0.2420  1.6315 -0.3247
   61MOL    H3112151   4.702   4.717   1.011 -0.0865  1.0591  0.8681
   61MOL    C3212152   4.724   4.746   1.211 -0.3897  0.9241 -0.0086
   61MOL    C3312153   4.671   4.884   1.236  0.2796  0.0968  0.5148
   61MOL    C3412154   4.734   5.001   1.228  0.2184  0.4925  0.5914
   61MOL    C3512155   4.676   5.137   1.246 -0.8525 -0.6995 -0.0693
   61MOL    H3612156   4.717   4.685   1.301  1.6598 -0.9031 -1.0431
   61MOL    H3712157   4.830   4.756   1.188  0.3100 -2.8030  1.3087
   61MOL    H3812158   4.566   4.894   1.260  0.6223  1.7574  1.3709
   61MOL    H3912159   4.839   4.995   1.203  0.0339  1.6763 -0.4948
   61MOL    H4012160   4.695   5.214   1.171  0.0754  0.8697  1.7186
   61MOL    H4112161   4.718   5.186   1.334 -2.9041 -0.8329  1.0056
   61MOL    C4212162   4.521   5.147   1.255  0.2131 -0.3483  0.4056
   61MOL    C4312163   4.472   5.289   1.284  0.1434  1.0061 -0.5318
   61MOL    C4412164   4.505   5.361   1.391  0.4277  0.7422  0.3796
   61MOL    C4512165   4.443   5.492   1.427  0.7444 -0.4486  0.3231
   61MOL    H4612166   4.463   5.088   1.184 -2.6908 -0.1536  2.5230
   61MOL    H4712167   4.497   5.105   1.353 -1.0138 -1.7528 -0.4695
   61MOL    H4812168   4.398   5.330   1.217 -1.2732  1.1463  1.0723
   61MOL    H4912169   4.570   5.317   1.465  1.2585 -0.7454 -1.2080
   61MOL    H5012170   4.419   5.493   1.534  0.3478  1.2670  0.2326
   61MOL    H5112171   4.347   5.518   1.381 -0.9653 -1.7037  3.0339
   61MOL    C5212172   4.541   5.613   1.407 -0.2373 -0.6865  0.3632
   61MOL    C5312173   4.567   5.638   1.260 -0.4839  0.2486  1.1509
   61MOL    C5412174   4.684   5.614   1.200  0.9390  0.2870 -0.1356
   61MOL    C5512175   4.709   5.629   1.044 -0.0823 -0.4185 -0.8220
   61MOL    H5612176   4.513   5.708   1.452  0.9437  0.0575 -0.4524
   61MOL    H5712177   4.632   5.593   1.463  0.6932  3.1983  0.3566
   61MOL    H5812178   4.487   5.663   1.192 -0.5451  0.8775  1.4530
   61MOL    H5912179   4.761   5.568   1.259 -0.5315  0.7230  2.1813
   61MOL    H6012180   4.802   5.686   1.033  0.2788 -0.7030  0.6512
   61MOL    H6112181   4.630   5.695   1.009  1.0578  1.2733 -0.3103
   61MOL    C6212182   4.721   5.487   0.979  0.3596 -0.0135 -0.2951
   61MOL    C6312183   4.672   5.492   0.835 -0.5016  0.0462  0.7489
   61MOL    C6412184   4.752   5.479   0.732 -0.0658  0.0029  0.2081
   61MOL    C6512185   4.714   5.458   0.584  0.2350  0.3450  0.1266
   61MOL    H6612186   4.823   5.454   0.995  0.0821  0.1058  1.8426
   61MOL    H6712187   4.649   5.420   1.025  1.7918 -0.4735  1.3574
   61MOL    H6812188   4.564   5.501   0.831 -0.3891  2.5445  1.9762
   61MOL    H6912189   4.858   5.475   0.754 -0.1452  1.6126  0.9200
   61MOL    H7012190   4.798   5.419   0.527 -1.9983 -1.3909 -2.1307
   61MOL    H7112191   4.693   5.562   0.558  0.8599  0.2562 -0.7184
   61MOL    C7212192   4.584   5.376   0.572 -0.3961 -0.0420 -0.2562
   61MOL    C7312193   4.548   5.353   0.425  0.3149 -0.3451  0.1363
   61MOL    C7412194   4.494   5.245   0.366 -0.0413  0.2678  0.4889
   61MOL    C7512195   4.485   5.220   0.217 -0.2488  0.3971  0.3464
   61MOL    H7612196   4.592   5.276   0.614  0.9652  0.2897  0.3071
   61MOL    H7712197   4.497   5.426   0.614 -0.2878 -0.0401 -0.0269
   61MOL    H7812198   4.582   5.430   0.357  1.3040 -2.3320 -1.6892
   61MOL    H7912199   4.466   5.160   0.428 -0.3045 -1.3621 -1.7941
   61MOL    H8012200   4.378   5.227   0.195 -0.1457 -0.9306 -0.6142
   61MOL    H8112201   4.521   5.120   0.196 -0.0906  0.7909 -1.3479
   61MOL    C8212202   4.554   5.318   0.123 -0.5769  0.1098  0.1836
   61MOL    C8312203   4.698   5.306   0.116  0.0389  0.5697 -0.2556
   61MOL    C8412204   4.764   5.293   0.003  0.0354  0.7304 -0.0111
   61MOL    C8512205   4.915   5.273   0.001 -0.1175  0.4619  0.5460
   61MOL    H8612206   4.509   5.296   0.026 -0.8766 -0.2765  0.4076
   61MOL    H8712207   4.550   5.425   0.146 -1.8912  0.0347  0.3779
   61MOL    H8812208   4.754   5.297   0.208 -0.5960  0.7743  0.1524
   61MOL    H8912209   4.713   5.313   7.887 -0.5248  1.2681  0.4061
   61MOL    H9012210   4.917   5.175   7.931 -2.3700  0.9604 -0.6877
   61MOL    H9112211   4.953   5.256   0.101  3.3383 -2.9467 -1.2188
   61MOL    C9212212   4.986   5.388   7.894  0.7921  0.0409  0.1915
   61MOL    C9312213   5.137   5.393   7.916  0.3194  0.1449  0.4980
   61MOL    C9412214   5.209   5.508   7.934 -0.3648  0.2680  0.1753
   61MOL    C9512215   5.359   5.523   7.931 -0.1170 -0.2184  0.0494
   61MOL    H9612216   4.974   5.369   7.787 -1.6730 -0.2571  0.4991
   61MOL    H9712217   4.947   5.487   7.919  0.3079 -0.2172  0.4556
   61MOL    H9812218   5.177   5.294   7.899 -1.9106 -1.3378  3.4418
   61MOL    H9912219   5.158   5.602   7.945 -0.6921  0.1904 -0.6927
   61MOL   H10012220   5.400   5.562   7.838  1.0726 -0.3742  0.4887
   61MOL   H10112221   5.403   5.423   7.930  2.8955  1.0458 -3.1548
   61MOL   C10212222   5.435   5.611   0.053  0.5398 -0.0877 -0.5306
   61MOL   C10312223   5.577   5.639   7.975 -0.3994 -0.4452  0.3889
   61MOL   C10412224   5.638   5.760   0.014  0.7804  0.7004 -0.2295
   61MOL   C10512225   5.782   5.780   7.948  0.1467 -0.4713  0.3544
   61MOL   H10612226   5.388   5.707   0.073  0.1219 -0.5086  0.5247
   61MOL   H10712227   5.453   5.557   0.147  2.6268 -0.0472 -0.8638
   61MOL   H10812228   5.629   5.558   7.927  0.5195 -0.2363  1.0275
   61MOL   H10912229   5.583   5.844   0.054  1.6040  0.9324  0.4118
   61MOL   H11012230   5.780   5.870   7.886  1.3514 -2.1502 -2.1424
   61MOL   H11112231   5.815   5.700   7.883 -1.8896  1.6814 -3.5027
   61MOL   C11212232   5.882   5.804   0.089 -0.3721  0.3434  0.3324
   61MOL   C11312233   6.022   5.793   0.036 -0.2888 -0.3717 -0.0878
   61MOL   C11412234   6.126   5.876   0.072  0.3630 -0.1550 -0.0349
   61MOL   C11512235   6.267   5.851   0.027 -0.3669 -0.7336 -0.2234
   61MOL   H11612236   5.864   5.907   0.118  1.5236  1.0497 -0.8979
   61MOL   H11712237   5.871   5.729   0.167 -0.9999  1.7071  1.5684
   61MOL   H11812238   6.050   5.712   7.948  1.6568 -1.0138  1.5077
   61MOL   H11912239   6.118   5.951   0.149  0.2380 -0.7058  0.5008
   61MOL   H12012240   6.308   5.941   7.958 -0.3242 -1.2429 -1.2038
   61MOL   H12112241   6.253   5.785   7.919 -2.4399 -0.2131 -0.2968
   61MOL   C12212242   6.349   5.785   0.137  0.0668  0.3311 -0.6433
   61MOL   C12312243   6.486   5.739   0.085 -0.5133 -0.5532 -0.1267
   61MOL   C12412244   6.531   5.618   0.117  0.8794 -0.0518  0.2626
   61MOL   C12512245   6.653   5.549   0.045  0.6475 -0.2519 -0.1550
   61MOL   H12612246   6.365   5.860   0.214  0.3562 -1.1446  0.7606
   61MOL   H12712247   6.292   5.700   0.173  0.3609 -1.1007 -3.4607
   61MOL   H12812248   6.538   5.807   0.019 -0.4713 -1.3199 -0.8782
   61MOL   H12912249   6.484   5.553   0.189 -0.4854 -0.2318 -0.7724
   61MOL   H13012250   6.739   5.534   0.109  0.4365  1.1386  0.4750
   61MOL   H13112251   6.675   5.622   7.944 -0.8804  1.7608  1.2369
   61MOL   C13212252   6.613   5.412   7.962  0.4871 -0.3667 -0.1968
   61MOL   C13312253   6.729   5.340   7.905 -0.2956  0.0938  0.0124
   61MOL   C13412254   6.716   5.268   7.789 -0.2818 -0.4061 -0.0439
   61MOL   C13512255   6.832   5.197   7.718 -0.1460  0.2753  0.2967
   61MOL   H13612256   6.584   5.346   0.067  1.4357  0.5868  0.9441
   61MOL   H13712257   6.528   5.428   7.896 -0.9968  1.3374  2.0519
   61MOL   H13812258   6.818   5.366   7.960 -1.8137  1.2274  2.0193
   61MOL   H13912259   6.617   5.248   7.751  0.1174 -2.1926 -0.1990
   61MOL   H14012260   6.920   5.240   7.766  0.1137 -1.1008  1.0759
   61MOL   H14112261   6.829   5.214   7.610  0.9390 -1.8565 -0.0946
   61MOL   C14212262   6.839   5.047   7.754  0.0105  0.1141 -0.0162
   61MOL   C14312263   6.710   4.974   7.718  0.0582 -0.2058 -0.6557
   61MOL   C14412264   6.640   4.905   7.810  0.6452 -0.5241 -0.3201
   61MOL   C14512265   6.511   4.838   7.777  0.2822 -0.3237 -0.1642
   61MOL   H14612266   6.915   4.992   7.698 -1.0279 -0.3617 -0.9731
   61MOL   H14712267   6.864   5.040   7.860 -1.5851 -1.2190  0.2904
   61MOL   H14812268   6.682   4.986   7.615 -1.4662 -1.4904 -0.4021
   61MOL   H14912269   6.667   4.889   7.913  0.2748 -1.0834 -0.3082
   61MOL   H15012270   6.493   4.863   7.672 -0.2074 -0.8656 -0.2178
   61MOL   H15112271   6.434   4.892   7.831 -0.1000 -0.8363 -0.1896
   61MOL   C15212272   6.499   4.682   7.825  0.8158 -0.4102  0.6047
   61MOL   C15312273   6.358   4.627   7.797  0.5673 -0.2265 -0.0149
   61MOL   C15412274   6.326   4.530   7.707  0.1187  0.4061 -0.7245
   61MOL   C15512275   6.191   4.469   7.691  0.5486 -0.0578 -0.0792
   61MOL   H15612276   6.568   4.631   7.759 -0.4710  0.1099 -1.1670
   61MOL   H15712277   6.529   4.664   7.929 -0.0273  0.0471  0.9346
   61MOL   H15812278   6.288   4.678   7.861  1.3127  2.0355 -0.9175
   61MOL   H15912279   6.408   4.492   7.649  2.6180  1.2671  2.1323
   61MOL   H16012280   6.144   4.504   7.783  3.0650 -0.5918  1.4272
   61MOL   H16112281   6.188   4.360   7.686 -1.1444  0.0045 -0.9872
   61MOL   C16212282   6.111   4.528   7.576 -0.0374 -0.2131  0.2127
   61MOL   C16312283   5.975   4.457   7.557 -0.3622 -0.5901 -0.5439
   61MOL   C16412284   5.861   4.510   7.598 -0.3178  0.5482  0.6752
   61MOL   C16512285   5.724   4.451   7.598 -0.2837  0.3411  0.0167
   61MOL   H16612286   6.100   4.632   7.605  0.7328  0.3160 -1.2950
   61MOL   H16712287   6.167   4.529   7.482 -1.1750 -0.5633 -0.4847
   61MOL   H16812288   5.973   4.355   7.520 -0.6462 -1.7636  2.5530
   61MOL   H16912289   5.872   4.606   7.646 -0.9150  1.4193 -0.8847
   61MOL   H17012290   5.698   4.433   7.703 -0.3819  1.4642  0.1945
   61MOL   H17112291   5.716   4.358   7.543 -0.4374  0.3983 -0.0586
   61MOL   C17212292   5.629   4.557   7.539 -0.0732  0.0610  0.3060
   61MOL   C17312293   5.480   4.532   7.583 -0.5539  0.2460 -0.1548
   61MOL   C17412294   5.389   4.475   7.500 -0.5105  0.2764 -0.0002
   61MOL   C17512295   5.240   4.465   7.538  0.7121 -0.2564 -0.6498
   61MOL   H17612296   5.654   4.656   7.577 -1.9762  1.2275 -1.3030
   61MOL   H17712297   5.640   4.566   7.431  1.6098  0.2897  0.4878
   61MOL   H17812298   5.449   4.563   7.681 -1.1596 -0.5468 -0.0906
   61MOL   H17912299   5.421   4.444   7.402  2.2713  0.2558  0.8584
   61MOL   H18012300   5.187   4.558   7.521  1.3240  0.0378 -0.9405
   61MOL   H18112301   5.236   4.457   7.647 -0.8388  2.4086 -0.4587
   61MOL   C18212302   5.169   4.356   7.465 -0.0479 -0.2314  0.0583
   61MOL   C18312303   5.153   4.394   7.319  0.1979  1.3068  0.3457
   61MOL   C18412304   5.041   4.437   7.254  0.1050  0.2713 -0.8337
   61MOL   C18512305   5.034   4.483   7.112 -0.2405  0.1086  0.5253
   61MOL   H18612306   5.224   4.262   7.471 -0.9480 -0.9016 -1.8578
   61MOL   H18712307   5.069   4.341   7.507 -0.2424  1.7277  0.3373
   61MOL   H18812308   5.243   4.402   7.260  0.6862  0.6899  1.0041
   61MOL   H18912309   4.949   4.439   7.310  0.0176 -1.2677 -0.9041
   61MOL   H19012310   5.133   4.505   7.074  0.2197 -1.8432  0.5386
   61MOL   H19112311   4.987   4.580   7.099 -0.1405 -0.1523 -2.2042
   61MOL   C19212312   4.968   4.374   7.019 -0.4771  0.4656  0.1872
   61MOL   C19312313   4.994   4.392   6.870 -0.2361 -0.6058  0.6091
   61MOL   C19412314   5.003   4.283   6.785 -1.0213 -0.1466  0.1139
   61MOL   C19512315   5.030   4.285   6.633 -0.6099  0.2203  0.9180
   61MOL   H19612316   4.999   4.273   7.045 -2.8230 -0.1993  0.4800
   61MOL   H19712317   4.861   4.376   7.040 -0.4561  1.7363  0.2063
   61MOL   H19812318   4.986   4.493   6.832  0.6053 -0.5187  0.6415
   61MOL   H19912319   4.996   4.186   6.831  2.5597 -1.3300 -1.5924
   61MOL   H20012320   4.932   4.255   6.595 -1.1917  3.1354  0.0307
   61MOL   H20112321   5.107   4.221   6.589 -0.8252  2.7285 -3.2815
   61MOL   H20212322   5.049   4.389   6.607  2.0931 -0.8974 -1.9110
   62MOL     C112323   1.724   0.936   5.669  0.0893 -0.7287  0.3681
   62MOL     C212324   1.703   0.810   5.744  0.0048  0.5049  0.0420
   62MOL     C312325   1.585   0.773   5.797  0.3448 -0.3330  1.0411
   62MOL     C412326   1.565   0.645   5.879 -0.1524 -0.4322 -0.9145
   62MOL     H512327   1.788   0.926   5.582  0.0345  2.3873 -0.0829
   62MOL     H612328   1.775   1.003   5.739 -1.3446 -1.9696  2.6701
   62MOL     H712329   1.791   0.748   5.752 -0.9225 -0.7744  0.5440
   62MOL     H812330   1.499   0.838   5.791  0.3609 -0.4213 -0.4496
   62MOL     H912331   1.657   0.586   5.879  0.1172 -0.0378  0.1242
   62MOL    H1012332   1.498   0.573   5.832  0.3510 -3.3244  2.5381
   62MOL    H1112333   1.632   0.983   5.633  0.8416  1.1628  0.8264
   62MOL    C1212334   1.524   0.663   6.032 -0.0672 -0.2065 -0.2452
   62MOL    C1312335   1.472   0.539   6.104  0.0926  0.1302 -0.0179
   62MOL    C1412336   1.532   0.480   6.212 -0.2032 -0.3278  0.7556
   62MOL    C1512337   1.475   0.367   6.283 -0.7329 -0.4518  0.4059
   62MOL    H1612338   1.602   0.719   6.084  1.0879 -2.2516  0.2772
   62MOL    H1712339   1.448   0.739   6.016 -0.9389 -0.9648  0.2270
   62MOL    H1812340   1.391   0.491   6.052  0.6348 -0.0443 -0.7197
   62MOL    H1912341   1.622   0.520   6.257 -1.3620  3.2074  0.1270
   62MOL    H2012342   1.543   0.281   6.282 -1.3245 -0.9216  0.2267
   62MOL    H2112343   1.383   0.327   6.241 -0.7907  0.5696 -0.4571
   62MOL    C2212344   1.445   0.385   6.436  0.0103 -0.4457  0.7472
   62MOL    C2312345   1.375   0.275   6.494 -0.6080  0.1977 -0.1581
   62MOL    C2412346   1.245   0.292   6.514  0.6523  0.4046  0.3878
   62MOL    C2512347   1.167   0.190   6.583  0.2355  0.0027 -0.6320
   62MOL    H2612348   1.539   0.391   6.490 -1.0479  1.7310  2.4642
   62MOL    H2712349   1.398   0.484   6.439 -1.4631 -1.0865 -0.5450
   62MOL    H2812350   1.432   0.186   6.516  1.3379  1.1257 -1.3608
   62MOL    H2912351   1.191   0.382   6.488 -1.8857 -1.7508 -2.0811
   62MOL    H3012352   1.153   0.223   6.686 -0.9349  0.6375 -0.9899
   62MOL    H3112353   1.217   0.093   6.581  0.5827  0.1844 -0.8500
   62MOL    C3212354   1.024   0.183   6.529  0.0599  0.1360  0.2754
   62MOL    C3312355   0.943   0.102   6.619  0.0267  0.5781 -0.1613
   62MOL    C3412356   0.897   0.146   6.738  0.5045  0.1258  0.5547
   62MOL    C3512357   0.826   0.058   6.836 -0.2776  1.4054 -0.4816
   62MOL    H3612358   0.986   0.284   6.536  1.9075  0.8816 -0.0867
   62MOL    H3712359   1.009   0.151   6.426  2.0688  0.1477 -0.0423
   62MOL    H3812360   0.933   7.977   6.585 -1.0367  1.2716 -2.0239
   62MOL    H3912361   0.910   0.252   6.751  0.5476  0.3046 -0.8359
   62MOL    H4012362   0.731   0.107   6.859 -0.4952  1.4918 -1.5222
   62MOL    H4112363   0.890   0.063   6.923 -1.4143 -1.0078  0.5300
   62MOL    C4212364   0.810   7.887   6.787 -1.2332 -0.2742  0.9193
   62MOL    C4312365   0.740   7.789   6.878 -0.2903  0.3816  0.5126
   62MOL    C4412366   0.629   7.722   6.836  0.0613 -0.1121  0.3456
   62MOL    C4512367   0.565   7.619   6.922  0.5793  0.1818 -0.2918
   62MOL    H4612368   0.753   7.892   6.694 -0.2981 -2.4207  0.1946
   62MOL    H4712369   0.908   7.850   6.757 -0.9238  1.5108 -0.3767
   62MOL    H4812370   0.791   7.755   6.967 -1.9132 -0.4660  1.1570
   62MOL    H4912371   0.589   7.743   6.737 -0.0800  0.1433  0.4578
   62MOL    H5012372   0.464   7.656   6.937  0.8286  1.2727 -1.2699
   62MOL    H5112373   0.621   7.628   7.015  2.0864 -0.1166 -1.1443
   62MOL    C5212374   0.564   7.480   6.854 -0.2464  0.0817 -0.1002
   62MOL    C5312375   0.467   7.390   6.922  0.3591 -0.2279  0.0276
   62MOL    C5412376   0.494   7.294   7.013 -0.2708  0.2100 -0.0367
   62MOL    C5512377   0.378   7.215   7.074  0.4161  0.3558  0.8328
   62MOL    H5612378   0.524   7.473   6.753 -0.1529 -1.1495 -0.0582
   62MOL    H5712379   0.657   7.423   6.864 -1.6558 -2.4274 -0.8568
   62MOL    H5812380   0.365   7.405   6.891 -0.0020  0.0430  1.3349
   62MOL    H5912381   0.595   7.283   7.049 -0.5738  1.3919  1.1989
   62MOL    H6012382   0.413   7.112   7.069 -0.9315 -0.0657 -0.5322
   62MOL    H6112383   0.286   7.216   7.016  1.3925 -0.9563 -0.7751
   62MOL    C6212384   0.349   7.241   7.217  0.2812  0.5941 -0.3796
   62MOL    C6312385   0.301   7.385   7.242  0.0477  0.9849 -0.2212
   62MOL    C6412386   0.192   7.412   7.310 -0.0571  0.3510 -0.6427
   62MOL    C6512387   0.141   7.556   7.315 -0.1059  0.5182 -0.1607
   62MOL    H6612388   0.276   7.173   7.261  0.0283  2.1823  1.7693
   62MOL    H6712389   0.445   7.228   7.268  0.9588 -1.0715 -2.0359
   62MOL    H6812390   0.353   7.462   7.186 -0.1757  2.5731  1.6917
   62MOL    H6912391   0.132   7.333   7.351  0.5489 -0.5106 -1.3945
   62MOL    H7012392   0.202   7.614   7.247 -0.3177  0.7332 -0.1703
   62MOL    H7112393   0.160   7.600   7.413 -0.0321  1.1601 -0.4654
   62MOL    C7212394   7.967   7.574   7.279 -0.3907  0.0789  0.4216
   62MOL    C7312395   7.876   7.524   7.386 -0.1486  0.1240 -0.4829
   62MOL    C7412396   7.793   7.601   7.451  0.5366 -0.4698 -0.9684
   62MOL    C7512397   7.703   7.555   7.565 -0.2493 -0.5074  0.4942
   62MOL    H7612398   7.954   7.681   7.266  0.7714  0.0978 -0.6517
   62MOL    H7712399   7.929   7.528   7.187  0.0323 -0.2584  0.4151
   62MOL    H7812400   7.902   7.426   7.422 -0.1047  1.0805  2.2269
   62MOL    H7912401   7.777   7.704   7.425 -0.8816 -1.0521 -2.5043
   62MOL    H8012402   7.752   7.594   7.654 -1.5517  0.1502  0.9305
   62MOL    H8112403   7.708   7.446   7.555  0.8968 -0.4260  0.0731
   62MOL    C8212404   7.558   7.617   7.559  0.0018 -0.0793 -1.2005
   62MOL    C8312405   7.539   7.764   7.590  0.1342  0.0039 -0.2140
   62MOL    C8412406   7.453   7.813   7.675  0.7264  0.5733 -0.3251
   62MOL    C8512407   7.429   7.961   7.701  0.0521  0.7617  0.1350
   62MOL    H8612408   7.520   7.591   7.461 -1.2389  1.1341 -1.0601
   62MOL    H8712409   7.500   7.552   7.624  1.5558  0.7578  1.1031
   62MOL    H8812410   7.606   7.829   7.535  1.1674  0.7223  1.8272
   62MOL    H8912411   7.393   7.747   7.736  2.3654 -0.0857  0.5910
   62MOL    H9012412   7.494   0.032   7.628  2.6195 -3.5407 -0.6004
   62MOL    H9112413   7.450   0.006   7.806 -0.1152  1.1472  0.0866
   62MOL    C9212414   7.281   0.026   7.668 -0.3779  0.5219 -0.3431
   62MOL    C9312415   7.236   0.156   7.731  0.1765 -0.5407  0.8026
   62MOL    C9412416   7.132   0.229   7.695  0.3709 -0.0923  0.0351
   62MOL    C9512417   7.077   0.351   7.769  0.3139 -0.1378 -0.3689
   62MOL    H9612418   7.255   0.029   7.563  1.4644  1.0153 -0.7979
   62MOL    H9712419   7.223   7.916   7.698  0.6791 -0.3871 -0.9197
   62MOL    H9812420   7.287   0.187   7.821  2.6017 -2.3738  0.1372
   62MOL    H9912421   7.076   0.201   7.607  1.2612 -1.3696 -0.1410
   62MOL   H10012422   7.043   0.420   7.693 -1.7538 -1.7022 -0.9163
   62MOL   H10112423   7.157   0.396   7.827  0.2522  2.0430 -1.9359
   62MOL   C10212424   6.952   0.309   7.847  0.8116 -0.4082  0.0552
   62MOL   C10312425   6.867   0.429   7.897  0.7187  0.3946 -1.1848
   62MOL   C10412426   6.832   0.465   0.041  0.4473  0.1248 -1.2336
   62MOL   C10512427   6.738   0.581   0.072  0.6871 -0.8541  0.1967
   62MOL   H10612428   6.883   0.255   7.781  0.0330 -0.2469  0.7227
   62MOL   H10712429   6.976   0.245   7.931 -0.1290 -1.3724 -0.4016
   62MOL   H10812430   6.811   0.485   7.824  0.6303  2.0107  0.0887
   62MOL   H10912431   6.874   0.415   0.127 -1.1477  0.8605 -0.0009
   62MOL   H11012432   6.661   0.545   0.141 -0.3232  0.8870 -0.0023
   62MOL   H11112433   6.693   0.603   7.952  1.1963 -0.0616  0.1359
   62MOL   C11212434   6.814   0.697   0.133 -0.4398  0.7425  0.1088
   62MOL   C11312435   6.730   0.809   0.172  0.2979 -0.6504  0.2192
   62MOL   C11412436   6.747   0.935   0.134  0.2303  0.8391  0.2873
   62MOL   C11512437   6.660   1.049   0.186 -0.2280  0.0319 -0.1034
   62MOL   H11612438   6.870   0.660   0.220 -0.4704 -1.2617 -0.7145
   62MOL   H11712439   6.889   0.731   0.062 -0.6253  2.5458  0.7500
   62MOL   H11812440   6.657   0.774   0.244 -0.2673 -0.9133 -0.4684
   62MOL   H11912441   6.827   0.945   0.063  0.1679  0.1557  0.1281
   62MOL   H12012442   6.561   1.004   0.190  0.3737 -1.2457  0.6480
   62MOL   H12112443   6.647   1.121   0.104  3.8387  0.7737 -0.1696
   62MOL   C12212444   6.706   1.106   0.317  0.0776 -0.6202 -0.1676
   62MOL   C12312445   6.812   1.221   0.309  0.0674 -0.0964 -0.6573
   62MOL   C12412446   6.864   1.263   0.190 -0.1511 -0.4006 -0.3349
   62MOL   C12512447   6.973   1.372   0.184  0.2309 -0.0791  0.5028
   62MOL   H12612448   6.619   1.149   0.367 -0.2675 -1.0918 -0.3516
   62MOL   H12712449   6.728   1.026   0.388 -0.1616 -1.6050 -1.1822
   62MOL   H12812450   6.847   1.259   0.404  0.1173 -2.8984  0.4698
   62MOL   H12912451   6.836   1.227   0.092  1.9361 -0.4443 -0.9448
   62MOL   H13012452   7.063   1.329   0.141  0.9014 -1.7241  3.4583
   62MOL   H13112453   7.001   1.396   0.287 -1.2397 -0.7931  1.0796
   62MOL   C13212454   6.932   1.505   0.116 -0.2987  0.0044  0.0657
   62MOL   C13312455   6.865   1.489   7.962  0.0341  0.1824  0.2191
   62MOL   C13412456   6.734   1.509   7.945 -0.2270 -0.7201 -0.1329
   62MOL   C13512457   6.660   1.520   7.809  0.3611  0.3216  0.0180
   62MOL   H13612458   6.868   1.565   0.180  1.6213  0.3304  1.7446
   62MOL   H13712459   7.023   1.562   0.099  0.2735 -0.4063  1.6878
   62MOL   H13812460   6.931   1.479   7.877 -0.0159  2.5580 -0.1379
   62MOL   H13912461   6.669   1.539   0.049 -1.9521 -1.0514 -1.3639
   62MOL   H14012462   6.736   1.526   7.731  1.6556  0.8331  1.2868
   62MOL   H14112463   6.608   1.615   7.797  0.7628  0.7355  1.4507
   62MOL   C14212464   6.561   1.401   7.786  0.4365  0.4351 -0.3104
   62MOL   C14312465   6.626   1.268   7.779 -0.0778 -0.2766 -0.1864
   62MOL   C14412466   6.613   1.188   7.668 -0.3274 -0.0688 -0.5735
   62MOL   C14512467   6.686   1.063   7.638 -0.7473  0.0179 -1.0971
   62MOL   H14612468   6.489   1.401   7.868 -0.2437  1.5097 -0.8944
   62MOL   H14712469   6.508   1.408   7.692  0.9500 -0.5213 -0.6751
   62MOL   H14812470   6.691   1.239   7.860  1.6954 -0.2093 -1.5385
   62MOL   H14912471   6.559   1.222   7.582 -0.0941  0.0121 -0.6891
   62MOL   H15012472   6.739   1.076   7.544  0.9779 -1.4638 -0.3471
   62MOL   H15112473   6.611   0.989   7.611 -0.2916 -0.7469 -0.2965
   62MOL   C15212474   6.779   1.010   7.753 -0.4438 -0.1977 -0.2869
   62MOL   C15312475   6.871   0.889   7.722  0.7072 -0.0127  0.1047
   62MOL   C15412476   6.983   0.896   7.656 -0.1569 -0.4998 -0.2112
   62MOL   C15512477   7.083   0.791   7.630  0.1601  0.1474 -0.0898
   62MOL   H15612478   6.836   1.100   7.776 -1.5386  0.7746 -1.3307
   62MOL   H15712479   6.720   0.993   7.843  0.1385  1.1925  0.3768
   62MOL   H15812480   6.838   0.791   7.750  0.2494  0.2706  0.5576
   62MOL   H15912481   7.002   0.996   7.621 -0.7932  0.7530  2.8586
   62MOL   H16012482   7.077   0.767   7.524  0.8149 -1.0058  0.1170
   62MOL   H16112483   7.046   0.703   7.683  3.4349 -1.5222 -0.3901
   62MOL   C16212484   7.230   0.830   7.670  0.8898 -0.1664 -0.5106
   62MOL   C16312485   7.318   0.726   7.618  0.5884 -0.2962 -0.4711
   62MOL   C16412486   7.334   0.612   7.686  0.6140  0.0686 -0.3756
   62MOL   C16512487   7.430   0.504   7.647 -0.3082 -0.0913  0.0443
   62MOL   H16612488   7.245   0.929   7.626  2.1970  0.0866  0.4620
   62MOL   H16712489   7.239   0.851   7.777  0.8385 -2.2582 -0.0642
   62MOL   H16812490   7.373   0.751   7.529  1.1496  1.8144  0.4382
   62MOL   H16912491   7.273   0.606   7.775  1.9380  2.1817  0.7150
   62MOL   H17012492   7.482   0.523   7.553 -0.9965  0.3151 -0.2574
   62MOL   H17112493   7.370   0.415   7.629 -1.4249  0.9322 -1.4592
   62MOL   C17212494   7.525   0.459   7.756  0.0410 -0.1180 -0.4471
   62MOL   C17312495   7.602   0.340   7.706  0.0247 -0.5372  0.6653
   62MOL   C17412496   7.716   0.354   7.633  0.1869 -0.3190 -0.5733
   62MOL   C17512497   7.779   0.231   7.566  0.3875 -0.6947  0.1124
   62MOL   H17612498   7.592   0.543   7.770 -1.2501  0.9490 -0.6623
   62MOL   H17712499   7.478   0.443   7.853 -1.0090  0.6285 -0.8325
   62MOL   H17812500   7.556   0.244   7.725  0.7275 -0.7757  1.1764
   62MOL   H17912501   7.752   0.451   7.606 -1.6197  0.3890 -0.5164
   62MOL   H18012502   7.769   0.247   7.459 -0.2977 -3.6022 -0.3072
   62MOL   H18112503   7.724   0.138   7.581 -0.6231  0.3379  3.4373
   62MOL   C18212504   7.926   0.232   7.603  0.2536  0.1446 -0.1332
   62MOL   C18312505   0.013   0.105   7.539  0.0243  0.0102  0.2436
   62MOL   C18412506   0.114   0.104   7.448 -1.3667  0.4512 -0.7731
   62MOL   C18512507   0.175   7.955   7.393  0.5315  0.2748 -0.1928
   62MOL   H18612508   0.005   0.319   7.569  0.3271  0.7914  1.6012
   62MOL   H18712509   7.943   0.237   7.711  0.5032 -0.2919 -0.1477
   62MOL   H18812510   7.947   0.010   7.567 -0.3110 -1.0279 -3.4623
   62MOL   H18912511   0.170   0.192   7.421  1.3589 -0.1388  2.5510
   62MOL   H19012512   0.137   7.941   7.292 -2.4560 -0.2093  0.9482
   62MOL   H19112513   0.138   7.865   7.441  0.4995  0.1563 -0.4342
   62MOL   C19212514   0.336   7.961   7.393  0.0570  0.5424  1.1097
   62MOL   C19312515   0.403   7.838   7.344 -0.5043 -0.2968  0.7447
   62MOL   C19412516   0.499   7.776   7.417 -0.1560  0.0113 -0.6114
   62MOL   C19512517   0.575   7.659   7.362 -0.1952  0.4420 -0.2829
   62MOL   H19612518   0.372   0.056   7.319 -1.0474 -0.0391 -0.0037
   62MOL   H19712519   0.376   0.013   7.491 -1.0616  2.6665  0.9799
   62MOL   H19812520   0.373   7.822   7.241 -0.9450 -0.8760  0.9614
   62MOL   H19912521   0.523   7.810   7.516 -1.5182  0.6913 -0.5003
   62MOL   H20012522   0.570   7.661   7.253  0.2835  2.1932 -0.2801
   62MOL   H20112523   0.525   7.572   7.405  1.1346 -0.6561 -0.8916
   62MOL   H20212524   0.678   7.666   7.397 -0.4850 -2.7028  1.3671
   63MOL     C112525   5.391   2.769   5.981 -0.1885  0.2275  0.1212
   63MOL     C212526   5.458   2.633   5.960  0.1845  0.2037 -0.1292
   63MOL     C312527   5.504   2.590   5.837 -0.3197  0.0850 -0.4819
   63MOL     C412528   5.588   2.465   5.828 -0.2036  0.8850  0.3652
   63MOL     H512529   5.466   2.839   6.017  0.7656 -1.6203  1.8101
   63MOL     H612530   5.303   2.755   6.045  0.9199  0.4342  1.7157
   63MOL     H712531   5.487   2.568   6.041  2.3668  2.2466  0.7725
   63MOL     H812532   5.494   2.650   5.748  0.9077 -1.1543 -1.4896
   63MOL     H912533   5.537   2.400   5.757 -2.3736  2.2192  0.6484
   63MOL    H1012534   5.580   2.408   5.920  1.3073  0.2690  0.1325
   63MOL    H1112535   5.362   2.800   5.881 -0.7585  0.2594  0.2941
   63MOL    C1212536   5.738   2.499   5.800  0.1041 -0.2519 -0.4134
   63MOL    C1312537   5.810   2.377   5.770 -0.6808  0.6828 -0.6442
   63MOL    C1412538   5.789   2.304   5.660  0.7342  0.4191  0.6158
   63MOL    C1512539   5.860   2.173   5.626 -0.0549 -0.4412  0.3116
   63MOL    H1612540   5.754   2.564   5.714 -2.6336  0.8660 -0.1224
   63MOL    H1712541   5.788   2.540   5.887 -0.8111  0.3437 -0.1590
   63MOL    H1812542   5.880   2.338   5.843  0.4022  2.8844 -0.4648
   63MOL    H1912543   5.723   2.344   5.586  0.2177  1.0785  1.4212
   63MOL    H2012544   5.792   2.096   5.590 -1.5020  1.5320 -1.2797
   63MOL    H2112545   5.910   2.138   5.717  3.7687  2.1019 -0.6680
   63MOL    C2212546   5.958   2.195   5.521 -0.3979  0.3188 -0.1944
   63MOL    C2312547   6.064   2.087   5.513 -0.7169  0.9773  0.3630
   63MOL    C2412548   6.193   2.095   5.552 -0.1275  0.1343 -0.1059
   63MOL    C2512549   6.287   1.979   5.538 -0.2479 -0.4549 -0.2009
   63MOL    H2612550   5.909   2.189   5.423 -1.3284  0.5274  0.2534
   63MOL    H2712551   6.004   2.292   5.539  0.0309 -0.2316  1.7534
   63MOL    H2812552   6.031   1.994   5.468  0.2304  0.6353  0.3628
   63MOL    H2912553   6.229   2.184   5.602 -2.6491  0.5132  1.1086
   63MOL    H3012554   6.223   1.895   5.513  0.0661 -0.5537 -0.6826
   63MOL    H3112555   6.340   1.962   5.631 -0.1380 -0.6540 -0.3007
   63MOL    C3212556   6.392   1.993   5.427 -0.2007 -0.9533  0.1029
   63MOL    C3312557   6.512   1.912   5.462 -0.4144  0.6112 -0.1333
   63MOL    C3412558   6.541   1.792   5.412  0.1031  0.2932 -0.1141
   63MOL    C3512559   6.652   1.712   5.466 -0.5971  0.1642 -0.3243
   63MOL    H3612560   6.339   1.957   5.339 -4.1125 -0.6585  2.2190
   63MOL    H3712561   6.416   2.098   5.410  1.6612 -1.2375  0.8915
   63MOL    H3812562   6.570   1.946   5.547  0.3307 -0.3234 -0.2621
   63MOL    H3912563   6.478   1.747   5.336  0.3935 -0.2111 -0.0620
   63MOL    H4012564   6.597   1.625   5.502  0.2690 -0.4755 -0.5263
   63MOL    H4112565   6.705   1.767   5.544  0.8281 -1.0183 -0.4276
   63MOL    C4212566   6.751   1.685   5.354  0.1359 -0.5879 -0.2204
   63MOL    C4312567   6.875   1.604   5.394  1.4433 -0.0661  0.0538
   63MOL    C4412568   6.921   1.515   5.311  0.3275 -0.2048 -0.3115
   63MOL    C4512569   7.049   1.434   5.328  0.4846  0.0037  0.1925
   63MOL    H4612570   6.695   1.623   5.283 -0.6365  0.2423 -0.3463
   63MOL    H4712571   6.774   1.777   5.299  1.7106 -0.3253  0.8503
   63MOL    H4812572   6.925   1.635   5.485 -1.7455  3.2175  0.8068
   63MOL    H4912573   6.875   1.498   5.214  1.7913  0.0136 -1.0641
   63MOL    H5012574   7.035   1.329   5.303  0.8885  0.3432 -1.5535
   63MOL    H5112575   7.064   1.435   5.436  4.5334 -0.9279 -0.2937
   63MOL    C5212576   7.164   1.495   5.244  0.2216  0.5599  0.6834
   63MOL    C5312577   7.141   1.493   5.097 -0.6204 -0.0565  0.1909
   63MOL    C5412578   7.210   1.424   5.000 -0.6806 -0.2249 -0.1228
   63MOL    C5512579   7.184   1.439   4.850 -0.1002  0.2525 -0.1963
   63MOL    H5612580   7.173   1.600   5.274 -0.7717  0.8990 -0.1800
   63MOL    H5712581   7.252   1.433   5.259  0.1278 -0.4398 -2.4338
   63MOL    H5812582   7.060   1.553   5.057 -0.0724 -0.9960 -2.4477
   63MOL    H5912583   7.296   1.363   5.024 -0.6341 -0.5910 -1.1781
   63MOL    H6012584   7.096   1.503   4.845  0.1270  0.4332 -1.9265
   63MOL    H6112585   7.149   1.338   4.828 -0.9673 -0.0343  2.3262
   63MOL    C6212586   7.312   1.480   4.770  0.1939  0.1584 -0.4996
   63MOL    C6312587   7.275   1.604   4.697  0.5437  0.5415 -0.6593
   63MOL    C6412588   7.335   1.722   4.714 -0.1111  0.4851 -0.1788
   63MOL    C6512589   7.307   1.844   4.623  0.4284 -0.2333  0.6124
   63MOL    H6612590   7.388   1.510   4.843  1.1739 -1.1174 -0.9950
   63MOL    H6712591   7.346   1.400   4.705 -0.8630  1.0991 -2.2414
   63MOL    H6812592   7.204   1.573   4.622  1.4726 -0.2551 -1.2169
   63MOL    H6912593   7.406   1.741   4.793  0.6996 -3.3678  0.0947
   63MOL    H7012594   7.219   1.816   4.566  0.5487  1.1509 -0.2703
   63MOL    H7112595   7.387   1.856   4.550  0.8016  0.3662  1.1157
   63MOL    C7212596   7.306   1.977   4.697 -0.0909 -0.1122 -0.0154
   63MOL    C7312597   7.273   2.107   4.615  0.5458  0.2300 -0.0484
   63MOL    C7412598   7.196   2.203   4.668 -0.0431 -0.4620 -0.3555
   63MOL    C7512599   7.156   2.323   4.593  0.6704  0.6086  0.1149
   63MOL    H7612600   7.248   1.960   4.788  1.5969 -0.1669  1.0573
   63MOL    H7712601   7.406   1.986   4.739 -1.0377 -3.5475  3.2536
   63MOL    H7812602   7.305   2.125   4.513  1.4916  1.6747  0.4953
   63MOL    H7912603   7.154   2.191   4.766 -0.4252  1.5325 -0.2588
   63MOL    H8012604   7.049   2.343   4.604  0.5942  0.3910 -0.2132
   63MOL    H8112605   7.167   2.320   4.484  0.4124 -0.5726  0.1198
   63MOL    C8212606   7.232   2.443   4.644 -0.7388  0.4808 -0.5631
   63MOL    C8312607   7.181   2.574   4.591 -0.6078 -0.0350 -0.1363
   63MOL    C8412608   7.257   2.658   4.521 -0.5092  0.5139  0.3924
   63MOL    C8512609   7.219   2.799   4.475 -0.1572  0.5869 -0.7363
   63MOL    H8612610   7.221   2.453   4.752 -0.4351 -0.8846 -0.3986
   63MOL    H8712611   7.337   2.423   4.623 -0.7116  1.5240 -1.4968
   63MOL    H8812612   7.077   2.596   4.610 -0.8811 -0.9129 -0.5779
   63MOL    H8912613   7.362   2.637   4.501 -0.0412  2.9356  0.1760
   63MOL    H9012614   7.115   2.822   4.495 -0.2106 -0.4672  0.2540
   63MOL    H9112615   7.236   2.796   4.367  2.5407 -0.1578 -0.3232
   63MOL    C9212616   7.298   2.914   4.537  0.2059 -0.3847 -0.3660
   63MOL    C9312617   7.285   3.046   4.469 -0.2298 -0.3345  0.1325
   63MOL    C9412618   7.200   3.145   4.505 -0.3498  0.3180  0.2819
   63MOL    C9512619   7.205   3.283   4.452 -0.0629  0.4476 -0.0539
   63MOL    H9612620   7.281   2.927   4.644  1.5803  0.5492 -0.2478
   63MOL    H9712621   7.401   2.880   4.526  0.2726  0.1336 -1.3703
   63MOL    H9812622   7.355   3.078   4.393 -2.2198  1.8835 -0.8671
   63MOL    H9912623   7.130   3.123   4.584 -0.7993  0.4388 -0.0850
   63MOL   H10012624   7.121   3.289   4.383  0.1465  0.1908 -0.3327
   63MOL   H10112625   7.289   3.294   4.383  0.2154 -0.0657  0.2011
   63MOL   C10212626   7.193   3.394   4.554 -0.5021  0.7010  0.4198
   63MOL   C10312627   7.077   3.381   4.652  0.1989  0.6875 -0.3043
   63MOL   C10412628   6.988   3.483   4.677 -0.4621 -0.2422 -1.2392
   63MOL   C10512629   6.870   3.464   4.772 -0.7843  0.0254  0.2029
   63MOL   H10612630   7.283   3.410   4.612 -1.0443 -0.5668  1.6594
   63MOL   H10712631   7.183   3.491   4.506  0.7788  0.9860  0.7314
   63MOL   H10812632   7.063   3.285   4.700  3.3818 -0.5034 -1.6141
   63MOL   H10912633   7.004   3.575   4.622 -0.1419 -2.1891 -4.4958
   63MOL   H11012634   6.873   3.382   4.844 -3.0891  0.8190  1.2704
   63MOL   H11112635   6.779   3.452   4.713  0.1849  2.1079 -1.7826
   63MOL   C11212636   6.844   3.583   4.862 -0.0242 -0.5443  0.5838
   63MOL   C11312637   6.943   3.588   4.978  0.1212  0.2160  0.4732
   63MOL   C11412638   7.049   3.668   4.984 -0.0793 -0.4216  0.5407
   63MOL   C11512639   7.148   3.672   5.093  0.0279  0.0842 -0.3147
   63MOL   H11612640   6.844   3.668   4.793  1.3675 -0.0343  1.2100
   63MOL   H11712641   6.743   3.582   4.905 -0.4460 -0.3542 -0.3835
   63MOL   H11812642   6.918   3.528   5.065 -1.0820 -0.4106 -0.2899
   63MOL   H11912643   7.058   3.729   4.895 -2.9710  0.0009  0.4926
   63MOL   H12012644   7.248   3.660   5.050  0.0613  1.0894 -0.5385
   63MOL   H12112645   7.128   3.584   5.153  3.2421 -1.5333 -1.4629
   63MOL   C12212646   7.137   3.806   5.162  0.2479  0.8354 -0.5719
   63MOL   C12312647   7.185   3.922   5.081  0.0256  0.0212 -0.0141
   63MOL   C12412648   7.296   3.918   5.005 -1.1313 -0.2064 -0.3941
   63MOL   C12512649   7.359   4.044   4.932  0.2373  0.3318  0.1932
   63MOL   H12612650   7.034   3.830   5.188  0.6033 -0.1895  1.9854
   63MOL   H12712651   7.206   3.820   5.245 -0.6991  1.3247  0.1375
   63MOL   H12812652   7.125   4.009   5.104  0.3573 -0.6488  3.6854
   63MOL   H12912653   7.353   3.827   4.995  1.6256  1.5713 -1.4062
   63MOL   H13012654   7.322   4.136   4.977  1.0459  1.1261 -0.7622
   63MOL   H13112655   7.339   4.039   4.825  1.8972  0.2729 -0.1217
   63MOL   C13212656   7.512   4.045   4.950  0.1799  0.3511  0.7317
   63MOL   C13312657   7.589   3.917   4.912  0.8261  0.1449  0.1369
   63MOL   C13412658   7.705   3.918   4.845 -0.3600 -0.7979  0.2419
   63MOL   C13512659   7.781   3.800   4.810  0.0620 -1.1752 -0.3992
   63MOL   H13612660   7.545   4.136   4.901 -1.1864 -0.1675 -1.2012
   63MOL   H13712661   7.521   4.067   5.056 -0.3781  2.9675  0.2688
   63MOL   H13812662   7.539   3.824   4.936  0.5836  0.1154 -0.4842
   63MOL   H13912663   7.752   4.014   4.832 -3.1689  0.4254 -1.3719
   63MOL   H14012664   7.814   3.809   4.707  0.0327  0.0079 -0.3168
   63MOL   H14112665   7.721   3.709   4.813 -0.2960 -0.9033  1.6278
   63MOL   C14212666   7.910   3.771   4.888  1.1917 -0.3111 -0.1183
   63MOL   C14312667   7.953   3.625   4.869 -0.2954 -0.2773  0.3755
   63MOL   C14412668   7.902   3.521   4.935 -0.0475  0.5366 -0.3044
   63MOL   C14512669   7.942   3.375   4.908 -0.0686 -0.6005  0.1428
   63MOL   H14612670   0.015   3.833   4.852 -0.2870  1.9597  0.3522
   63MOL   H14712671   7.898   3.796   4.994 -0.9682 -0.7059 -0.2555
   63MOL   H14812672   0.054   3.618   4.794 -1.0440 -2.6505 -0.2504
   63MOL   H14912673   7.830   3.530   5.016  1.1171  0.4891  0.7480
   63MOL   H15012674   0.008   3.367   4.808 -0.5224 -1.4831  0.0183
   63MOL   H15112675   7.853   3.312   4.905 -0.4120 -0.0608 -1.4952
   63MOL   C15212676   0.058   3.332   5.018  0.1688  0.2433 -0.1827
   63MOL   C15312677   0.104   3.185   5.013 -0.4329 -0.3720  0.5843
   63MOL   C15412678   0.046   3.093   4.933  0.6578 -0.0351  0.1557
   63MOL   C15512679   0.088   2.950   4.909  1.0288 -0.1884  0.1335
   63MOL   H15612680   0.151   3.388   5.029 -0.9963  1.9965  0.9039
   63MOL   H15712681   0.014   3.343   5.117  0.5311 -2.9409  0.3882
   63MOL   H15812682   0.184   3.154   5.079 -0.5929 -2.1227 -0.0321
   63MOL   H15912683   7.942   3.111   4.864  0.0114 -1.5598  0.4904
   63MOL   H16012684   0.009   2.876   4.896  0.1174  0.9382 -1.0054
   63MOL   H16112685   0.126   2.920   5.007  2.5663 -0.2209 -0.4610
   63MOL   C16212686   0.201   2.940   4.812 -0.5511  0.6997  0.1095
   63MOL   C16312687   0.256   2.798   4.793  0.0689 -0.1235  0.8474
   63MOL   C16412688   0.381   2.771   4.823  0.1017  0.0209  0.5705
   63MOL   C16512689   0.433   2.628   4.817 -0.3303 -0.1214 -0.0192
   63MOL   H16612690   0.153   2.950   4.714 -2.0171  1.8773  0.9261
   63MOL   H16712691   0.276   3.017   4.832  0.7601 -1.0406  1.9974
   63MOL   H16812692   0.182   2.727   4.758  0.7453  0.3074 -1.5403
   63MOL   H16912693   0.451   2.848   4.849 -0.7001  1.0723 -0.3302
   63MOL   H17012694   0.528   2.613   4.765  1.8833  1.5022  3.3528
   63MOL   H17112695   0.357   2.569   4.766 -0.5485 -1.5660  1.9159
   63MOL   C17212696   0.456   2.562   4.952  0.1001  0.6506  0.1996
   63MOL   C17312697   0.497   2.415   4.939  0.0976  0.8458  0.0786
   63MOL   C17412698   0.585   2.364   5.027  0.2277  0.4495 -0.2461
   63MOL   C17512699   0.590   2.215   5.050 -0.0100  1.0843 -0.2396
   63MOL   H17612700   0.527   2.617   5.013  0.3735 -2.6188  3.0108
   63MOL   H17712701   0.361   2.570   5.006 -0.0648 -2.6449  0.4823
   63MOL   H17812702   0.448   2.361   4.860 -1.2177  0.3188  1.2460
   63MOL   H17912703   0.619   2.426   5.108  0.1231 -0.2454  0.3370
   63MOL   H18012704   0.696   2.189   5.057  0.1041  0.9960 -2.0291
   63MOL   H18112705   0.550   2.164   4.962  0.7745 -1.6967  0.9664
   63MOL   C18212706   0.495   2.160   5.160  0.0295  0.3305  0.2906
   63MOL   C18312707   0.525   2.016   5.184  0.6088 -0.3900  0.3035
   63MOL   C18412708   0.432   1.920   5.176 -0.2838  0.8675 -0.0374
   63MOL   C18512709   0.476   1.772   5.168 -0.1380 -0.8687 -0.9991
   63MOL   H18612710   0.521   2.210   5.253 -0.6685  0.7885  0.2371
   63MOL   H18712711   0.389   2.168   5.139  0.3355  0.0064 -1.4271
   63MOL   H18812712   0.631   1.993   5.187  0.8113  0.6525  1.3785
   63MOL   H18912713   0.328   1.942   5.160 -0.4421  0.5211  0.4768
   63MOL   H19012714   0.394   1.701   5.176 -0.9815 -0.0707 -2.2857
   63MOL   H19112715   0.549   1.750   5.246 -2.0747 -2.5627  0.4215
   63MOL   C19212716   0.531   1.750   5.032  0.1771 -0.1975 -1.2407
   63MOL   C19312717   0.555   1.607   4.999  0.4444  0.2155 -0.1114
   63MOL   C19412718   0.682   1.566   4.964  0.1463 -0.4740  0.0618
   63MOL   C19512719   0.719   1.433   4.913  0.2218  0.5260 -0.0520
   63MOL   H19612720   0.465   1.785   4.953 -0.1506 -0.3428 -1.0343
   63MOL   H19712721   0.632   1.792   5.035  1.6997 -3.5675 -2.7963
   63MOL   H19812722   0.470   1.540   5.003 -1.2513  2.1742 -1.7418
   63MOL   H19912723   0.760   1.640   4.974  0.1990 -0.4884 -0.2524
   63MOL   H20012724   0.749   1.365   4.993  1.1098 -1.4103 -1.9535
   63MOL   H20112725   0.793   1.442   4.834  2.2090 -2.8306  1.2984
   63MOL   H20212726   0.633   1.390   4.861  0.5095  1.3694 -1.2441
   64MOL     C112727   4.088   5.139   2.367 -0.3876  0.2733 -0.3403
   64MOL     C212728   4.220   5.215   2.390  0.1985  0.1715 -0.3342
   64MOL     C312729   4.261   5.327   2.327  0.2078  0.1038 -0.3029
   64MOL     C412730   4.388   5.408   2.344 -0.7170 -0.5235 -0.3850
   64MOL     H512731   4.051   5.113   2.466 -0.7316 -1.0074 -0.7934
   64MOL     H612732   4.094   5.049   2.306  2.2008 -0.3279  0.7510
   64MOL     H712733   4.275   5.175   2.473  0.4557  1.0664 -0.0727
   64MOL     H812734   4.196   5.377   2.256 -0.3662 -1.6474 -1.0371
   64MOL     H912735   4.450   5.368   2.424 -1.9054 -0.9988  0.3104
   64MOL    H1012736   4.358   5.502   2.391 -0.2194 -0.0739 -0.9586
   64MOL    H1112737   4.017   5.206   2.317 -0.7750  0.5817  0.6054
   64MOL    C1212738   4.465   5.433   2.217  0.0113 -0.8648 -0.3175
   64MOL    C1312739   4.522   5.302   2.162 -0.3059 -0.7027  0.6058
   64MOL    C1412740   4.501   5.247   2.041 -0.0579  0.1261  0.1108
   64MOL    C1512741   4.548   5.118   1.994 -0.1396  0.2842 -0.9763
   64MOL    H1612742   4.403   5.483   2.143 -0.2505  1.5269  1.4624
   64MOL    H1712743   4.550   5.498   2.235 -0.5466  0.2825 -1.7112
   64MOL    H1812744   4.599   5.259   2.225 -0.2395 -1.2572  0.1465
   64MOL    H1912745   4.435   5.304   1.978 -0.6294  0.9077  1.4065
   64MOL    H2012746   4.596   5.065   2.076 -2.3061  1.0948  0.8653
   64MOL    H2112747   4.620   5.140   1.915 -1.1070 -0.2618 -2.0202
   64MOL    C2212748   4.426   5.042   1.939  0.2866 -0.5135  0.0835
   64MOL    C2312749   4.396   5.074   1.798 -0.2140 -0.0138  0.1734
   64MOL    C2412750   4.311   5.167   1.753  0.3958  0.5832  0.2723
   64MOL    C2512751   4.295   5.200   1.604 -0.3275 -0.2966  0.4142
   64MOL    H2612752   4.434   4.935   1.958 -0.2555 -0.3442  1.3561
   64MOL    H2712753   4.341   5.067   2.003  0.7275  0.1148  0.4305
   64MOL    H2812754   4.466   5.044   1.721 -1.4583  1.6294 -1.6274
   64MOL    H2912755   4.236   5.207   1.820  0.5846  0.2442  0.6798
   64MOL    H3012756   4.371   5.157   1.539  0.7327 -0.6538  1.8819
   64MOL    H3112757   4.308   5.309   1.602 -1.4920 -0.1696 -0.8304
   64MOL    C3212758   4.155   5.178   1.555  0.3447  0.7268 -0.2395
   64MOL    C3312759   4.147   5.238   1.416 -0.2179  0.4535  0.4624
   64MOL    C3412760   4.084   5.178   1.314 -0.4574  0.2653  0.1621
   64MOL    C3512761   4.055   5.243   1.179  0.4695  0.2443 -0.1930
   64MOL    H3612762   4.134   5.071   1.551  3.4120  0.0733 -0.2304
   64MOL    H3712763   4.082   5.225   1.621  1.7555  0.7122  1.3643
   64MOL    H3812764   4.187   5.337   1.401  0.6618  0.0759  0.2946
   64MOL    H3912765   4.029   5.089   1.340 -1.0848  0.3766 -0.7695
   64MOL    H4012766   4.094   5.345   1.188  0.2669  0.6009 -3.0414
   64MOL    H4112767   3.947   5.243   1.162  0.3043 -0.7390  0.7793
   64MOL    C4212768   4.131   5.165   1.069  0.0462  0.6347 -1.2965
   64MOL    C4312769   4.107   5.213   0.932 -0.4620 -0.5823  0.6943
   64MOL    C4412770   4.202   5.292   0.872  0.5628 -0.5508  0.2152
   64MOL    C4512771   4.186   5.341   0.729  0.7615 -0.2516 -0.0653
   64MOL    H4612772   4.238   5.173   1.086 -0.0813 -0.6870  0.3989
   64MOL    H4712773   4.116   5.057   1.068 -0.0219  0.5772  1.5180
   64MOL    H4812774   4.014   5.194   0.881  0.1679  2.2208 -1.6272
   64MOL    H4912775   4.294   5.324   0.918 -1.1442  1.7717  2.1136
   64MOL    H5012776   4.086   5.312   0.697  0.3614  1.3691 -0.3571
   64MOL    H5112777   4.252   5.298   0.653  0.4694  2.6796 -2.0661
   64MOL    C5212778   4.188   5.497   0.742  0.1666  0.4687 -0.4192
   64MOL    C5312779   4.164   5.572   0.618  0.3368 -0.7041 -0.8008
   64MOL    C5412780   4.057   5.646   0.582 -0.3147  0.0792 -0.2568
   64MOL    C5512781   4.043   5.723   0.456  0.1210 -0.0740  0.0747
   64MOL    H5612782   4.126   5.530   0.825 -0.2220 -1.1636 -0.0555
   64MOL    H5712783   4.289   5.529   0.768 -0.2617  1.4516  0.0806
   64MOL    H5812784   4.245   5.562   0.547 -0.0513 -1.1038 -1.1920
   64MOL    H5912785   3.982   5.665   0.657  0.6037  2.2552  0.1355
   64MOL    H6012786   3.947   5.697   0.413 -0.0389 -1.0644  0.9960
   64MOL    H6112787   4.123   5.686   0.393  0.8733  4.9128 -2.1087
   64MOL    C6212788   4.071   5.872   0.485 -0.1008  0.7108  0.3173
   64MOL    C6312789   4.053   5.966   0.367 -0.2505  0.1062 -0.1377
   64MOL    C6412790   4.150   6.036   0.305 -0.5390  0.4441  0.0726
   64MOL    C6512791   4.130   6.126   0.182 -0.7182  0.7168 -0.1766
   64MOL    H6612792   3.988   5.902   0.550  0.0856  2.8204 -0.4137
   64MOL    H6712793   4.169   5.888   0.530 -0.2232  1.2233  0.4012
   64MOL    H6812794   3.951   5.976   0.333 -0.5636  1.4533  1.1372
   64MOL    H6912795   4.251   6.029   0.343 -0.8058 -1.6071  0.4545
   64MOL    H7012796   4.190   6.214   0.204  3.6021 -2.1299 -0.0632
   64MOL    H7112797   4.026   6.160   0.182 -0.3411  1.9186 -1.8930
   64MOL    C7212798   4.172   6.056   0.061 -0.1822  0.5065  0.1291
   64MOL    C7312799   4.115   6.137   7.921 -0.5631 -0.3275 -0.3421
   64MOL    C7412800   3.990   6.126   7.873  0.4630 -0.5988 -0.3246
   64MOL    C7512801   3.943   6.211   7.751 -0.0623  0.6554  0.4195
   64MOL    H7612802   4.279   6.038   0.048 -0.6729 -2.1142 -0.5651
   64MOL    H7712803   4.134   5.954   0.061  1.2399 -0.0526  1.1877
   64MOL    H7812804   4.177   6.218   7.886 -2.1330  1.3813  0.7305
   64MOL    H7912805   3.928   6.049   7.916  1.7874 -1.2565  0.4520
   64MOL    H8012806   3.939   6.143   7.666  1.0641 -1.1682  1.7717
   64MOL    H8112807   4.021   6.281   7.721 -1.8743  3.2405  1.6293
   64MOL    C8212808   3.808   6.279   7.770 -0.4834  0.1674 -0.3467
   64MOL    C8312809   3.806   6.375   7.885  0.8919  0.1235  0.3871
   64MOL    C8412810   3.778   6.504   7.876  0.4299 -0.6684  0.5126
   64MOL    C8512811   3.782   6.602   0.015 -0.3045 -0.2997  0.0325
   64MOL    H8612812   3.767   6.314   7.675 -2.5201 -0.5760  0.2320
   64MOL    H8712813   3.736   6.202   7.796 -1.1847  1.0055  0.2199
   64MOL    H8812814   3.835   6.321   7.974  0.6457 -2.2927 -0.9534
   64MOL    H8912815   3.753   6.556   7.784 -0.8941 -1.0479  0.6383
   64MOL    H9012816   3.791   6.554   0.113  1.0480  1.7235  0.9368
   64MOL    H9112817   3.691   6.662   0.016  0.0907  0.3089  2.1461
   64MOL    C9212818   3.895   6.700   0.000 -0.0233 -0.1754  0.7607
   64MOL    C9312819   3.928   6.779   0.128  0.1506 -0.2689  0.1321
   64MOL    C9412820   4.050   6.830   0.152  0.4124  0.6193  0.2859
   64MOL    C9512821   4.067   6.901   0.286 -0.3196 -0.1540 -0.0991
   64MOL    H9612822   3.983   6.643   7.947  0.8444  0.6422  1.6879
   64MOL    H9712823   3.870   6.767   7.895  0.1726  1.7986  2.2681
   64MOL    H9812824   3.842   6.806   0.188 -0.2745  1.1602 -1.0841
   64MOL    H9912825   4.138   6.825   0.089 -0.6473  0.1351 -1.1874
   64MOL   H10012826   3.971   6.943   0.317 -0.7873 -1.6343  0.4937
   64MOL   H10112827   4.135   6.984   0.266 -1.5102  0.6040 -1.1004
   64MOL   C10212828   4.123   6.792   0.383 -0.2976 -0.0931 -0.4044
   64MOL   C10312829   4.169   6.842   0.519 -0.0502 -0.5277 -0.4349
   64MOL   C10412830   4.161   6.964   0.570 -0.5923  0.4134 -0.1486
   64MOL   C10512831   4.206   7.025   0.705 -0.3594  0.4332 -0.5067
   64MOL   H10612832   4.039   6.726   0.403  0.3615 -0.2904  1.9256
   64MOL   H10712833   4.196   6.723   0.341 -0.6961  0.2705 -1.6959
   64MOL   H10812834   4.203   6.761   0.582 -0.8397  0.0335  0.7380
   64MOL   H10912835   4.128   7.047   0.509  1.0635  0.4648 -0.9823
   64MOL   H11012836   4.113   7.043   0.759 -0.6243  1.0791 -1.1688
   64MOL   H11112837   4.251   7.124   0.695  0.5679  0.4416  2.8792
   64MOL   C11212838   4.292   6.926   0.786  0.0185 -1.0509  0.7501
   64MOL   C11312839   4.342   6.991   0.911 -0.4833  0.1224 -0.4846
   64MOL   C11412840   4.469   7.027   0.928 -0.3046 -0.0371  0.1337
   64MOL   C11512841   4.525   7.087   1.052  0.4356  0.1515 -0.0240
   64MOL   H11612842   4.235   6.836   0.809 -2.9560  0.0635 -1.8905
   64MOL   H11712843   4.382   6.894   0.734 -0.1810  1.1635 -1.0605
   64MOL   H11812844   4.265   6.999   0.987 -1.0443  0.1188 -1.0460
   64MOL   H11912845   4.539   7.014   0.848  1.1752  0.1167  1.3858
   64MOL   H12012846   4.585   7.010   1.099 -0.5588  1.5407  3.7058
   64MOL   H12112847   4.442   7.112   1.117 -0.3156  0.0397 -0.9304
   64MOL   C12212848   4.607   7.210   1.025 -0.2129 -0.1481 -0.6628
   64MOL   C12312849   4.536   7.308   0.931 -0.6819 -0.2410  0.1349
   64MOL   C12412850   4.575   7.325   0.801  0.0430 -0.5088  0.0666
   64MOL   C12512851   4.496   7.407   0.705 -0.2029  0.6200  0.2647
   64MOL   H12612852   4.622   7.257   1.122 -0.4796 -3.2942  0.9650
   64MOL   H12712853   4.711   7.196   0.996  0.2774  2.1797 -0.1455
   64MOL   H12812854   4.446   7.360   0.961  1.3893  4.0682 -0.8185
   64MOL   H12912855   4.663   7.274   0.764  1.7351  1.3973  1.3930
   64MOL   H13012856   4.561   7.492   0.683  1.7334 -0.5624  1.2391
   64MOL   H13112857   4.413   7.456   0.755  0.9852  0.4620  2.4725
   64MOL   C13212858   4.466   7.327   0.581  0.6787 -0.0504  0.4465
   64MOL   C13312859   4.398   7.403   0.475  0.3532 -0.0982  0.3456
   64MOL   C13412860   4.375   7.534   0.471  0.2472 -0.6673  0.4729
   64MOL   C13512861   4.298   7.599   0.353  0.0908 -0.3517  0.1315
   64MOL   H13612862   4.564   7.301   0.541  0.1817 -0.1623 -0.7172
   64MOL   H13712863   4.412   7.234   0.601  1.1521 -0.6327 -0.9022
   64MOL   H13812864   4.366   7.351   0.386 -0.4719  2.8413 -1.1701
   64MOL   H13912865   4.392   7.599   0.556  2.2874 -1.5287  0.7733
   64MOL   H14012866   4.192   7.597   0.375 -0.2541 -1.0752 -1.5155
   64MOL   H14112867   4.313   7.533   0.268  2.0360  0.9172 -0.5568
   64MOL   C14212868   4.362   7.734   0.309  0.2991 -0.6103 -0.0321
   64MOL   C14312869   4.308   7.854   0.383  0.7641 -0.0329 -0.5542
   64MOL   C14412870   4.389   7.944   0.431  0.5584 -0.8985  0.1525
   64MOL   C14512871   4.333   0.090   0.499 -0.6006 -0.0344  0.1795
   64MOL   H14612872   4.467   7.710   0.322  0.3280 -1.5763 -1.8968
   64MOL   H14712873   4.334   7.754   0.206  1.7728  1.6110 -0.0247
   64MOL   H14812874   4.201   7.867   0.385  0.4354 -2.4495  2.2349
   64MOL   H14912875   4.497   7.950   0.432  0.4453  1.7486  0.7945
   64MOL   H15012876   4.411   0.119   0.568  0.6037 -0.7045 -0.8774
   64MOL   H15112877   4.243   0.059   0.552 -0.6589  0.7578  0.5467
   64MOL   C15212878   4.304   0.197   0.392 -0.3724  0.0388  0.4204
   64MOL   C15312879   4.240   0.321   0.456 -0.2882  0.0034  0.0491
   64MOL   C15412880   4.283   0.447   0.443  0.0872  0.4016  1.0200
   64MOL   C15512881   4.231   0.569   0.516 -0.8617 -0.2587 -0.0904
   64MOL   H15612882   4.402   0.220   0.350  0.5950 -2.6720  1.1352
   64MOL   H15712883   4.233   0.160   0.319  1.6628  0.8226 -2.0175
   64MOL   H15812884   4.156   0.309   0.524 -0.7585  0.0986 -0.5114
   64MOL   H15912885   4.360   0.473   0.371 -0.4408  0.9428  0.6497
   64MOL   H16012886   4.161   0.542   0.595  1.1296 -0.2928  1.7117
   64MOL   H16112887   4.176   0.628   0.442  0.2550 -2.6931 -2.9669
   64MOL   C16212888   4.338   0.657   0.584  0.1567  0.3395 -0.7653
   64MOL   C16312889   4.439   0.712   0.485 -0.5651  0.0357  0.0398
   64MOL   C16412890   4.559   0.653   0.472 -0.2267  0.2495 -0.1507
   64MOL   C16512891   4.674   0.709   0.384  0.0544 -0.0198  0.1073
   64MOL   H16612892   4.289   0.733   0.645  0.4352 -0.5519  0.5829
   64MOL   H16712893   4.395   0.597   0.655 -2.0041 -1.9610 -0.9094
   64MOL   H16812894   4.411   0.807   0.443  1.3350  1.2452  1.4171
   64MOL   H16912895   4.579   0.560   0.523  0.6656  0.0274 -0.8937
   64MOL   H17012896   4.767   0.697   0.439 -0.2902 -0.9224  0.5016
   64MOL   H17112897   4.667   0.817   0.373  0.7906  0.2635  2.2169
   64MOL   C17212898   4.689   0.641   0.245  0.0258 -0.9276 -0.3631
   64MOL   C17312899   4.812   0.688   0.164  0.0967 -0.6510  0.2291
   64MOL   C17412900   4.888   0.598   0.098  0.3131 -0.2333 -0.4437
   64MOL   C17512901   5.020   0.624   0.031 -0.3057 -0.6583  0.3495
   64MOL   H17612902   4.697   0.533   0.257 -2.0363 -0.9520  0.8653
   64MOL   H17712903   4.607   0.665   0.178 -0.5722 -1.3416  0.2139
   64MOL   H17812904   4.831   0.794   0.174  0.5500 -0.7428  0.3835
   64MOL   H17912905   4.855   0.496   0.090 -2.2480  0.5595 -0.4274
   64MOL   H18012906   5.020   0.722   7.961  0.0561 -1.6486 -1.7656
   64MOL   H18112907   5.024   0.538   7.942  1.3651 -0.7425  0.5484
   64MOL   C18212908   5.141   0.626   0.121 -0.3733  0.5042  0.2552
   64MOL   C18312909   5.268   0.662   0.041  0.1151 -1.0520  0.9429
   64MOL   C18412910   5.368   0.571   0.022  0.3505 -0.0157 -0.3024
   64MOL   C18512911   5.511   0.604   7.941  0.2422  0.0607 -0.2760
   64MOL   H18612912   5.127   0.709   0.191 -1.4544  1.9154 -1.6020
   64MOL   H18712913   5.151   0.530   0.173  0.0759  0.3948 -0.0394
   64MOL   H18812914   5.285   0.765   0.015  0.4055 -1.1317  0.8106
   64MOL   H18912915   5.354   0.475   0.068  0.3764  0.6180  1.0407
   64MOL   H19012916   5.564   0.637   0.052 -1.6925 -0.6380  1.1988
   64MOL   H19112917   5.507   0.690   7.873 -1.0414  0.5374  0.3860
   64MOL   C19212918   5.572   0.476   7.876 -0.1067 -0.3893  0.2082
   64MOL   C19312919   5.714   0.486   7.824  1.0842  0.5389 -0.5534
   64MOL   C19412920   5.806   0.397   7.851  0.2661  0.3928  0.2160
   64MOL   C19512921   5.951   0.412   7.808 -1.0038 -0.6582 -0.0890
   64MOL   H19612922   5.568   0.409   7.962 -3.3846  2.3261  2.2866
   64MOL   H19712923   5.504   0.445   7.797  0.4690 -0.4768 -0.2622
   64MOL   H19812924   5.728   0.574   7.763  2.1298  1.1802  0.5776
   64MOL   H19912925   5.786   0.309   7.909 -0.7126  0.7913  0.4918
   64MOL   H20012926   5.997   0.435   7.904 -1.2411 -1.1682  0.1492
   64MOL   H20112927   5.970   0.497   7.743  0.0341 -0.4815  0.4488
   64MOL   H20212928   5.989   0.319   7.766  0.6058 -0.3313  0.6446
   65MOL     C112929   2.992   3.020   2.597  0.7396  0.0992  0.6082
   65MOL     C212930   2.949   2.958   2.468  0.3217  0.2182  0.0399
   65MOL     C312931   3.019   2.863   2.398  0.0064 -0.3628 -0.0007
   65MOL     C412932   2.971   2.816   2.260 -0.1702  0.4340 -0.7746
   65MOL     H512933   3.055   2.966   2.667  0.3784 -0.8530  0.2101
   65MOL     H612934   2.903   3.020   2.660  1.4753 -2.6833  1.7089
   65MOL     H712935   2.855   2.995   2.430  1.5045  3.1819 -0.1185
   65MOL     H812936   3.117   2.834   2.434  0.1210  2.3283  2.0060
   65MOL     H912937   3.049   2.840   2.188 -1.8289  1.9133 -2.1144
   65MOL    H1012938   2.890   2.887   2.241 -2.5354 -2.2783 -1.1458
   65MOL    H1112939   3.025   3.123   2.585 -2.7744  1.0833 -1.4336
   65MOL    C1212940   2.922   2.670   2.255  0.5661 -0.7238  0.0855
   65MOL    C1312941   3.039   2.571   2.264 -0.4281  0.6450  0.0943
   65MOL    C1412942   3.024   2.449   2.321  0.2283  0.0905 -0.4135
   65MOL    C1512943   3.132   2.339   2.333  0.0986 -1.0583  0.3445
   65MOL    H1612944   2.853   2.651   2.338  0.0031  2.0518  0.2995
   65MOL    H1712945   2.863   2.642   2.168  0.4150 -1.0288  0.2863
   65MOL    H1812946   3.122   2.597   2.200  0.4385  0.3288  1.0667
   65MOL    H1912947   2.935   2.416   2.372 -1.1388 -0.7777 -3.2294
   65MOL    H2012948   3.175   2.344   2.433  0.2672 -0.3896  0.2381
   65MOL    H2112949   3.215   2.353   2.265  1.9535 -2.1459  2.3244
   65MOL    C2212950   3.072   2.202   2.296 -0.5142 -0.3006  0.0943
   65MOL    C2312951   3.171   2.094   2.329  0.0720 -0.1476 -0.3696
   65MOL    C2412952   3.137   1.974   2.377 -0.2815  0.5692  1.2316
   65MOL    C2512953   3.246   1.870   2.405 -0.0110 -0.0992 -0.7747
   65MOL    H2612954   2.984   2.194   2.360 -1.7620  0.4100 -1.5136
   65MOL    H2712955   3.038   2.198   2.193  0.4465  1.6932 -0.3262
   65MOL    H2812956   3.277   2.112   2.314  0.7185 -0.8269  2.8471
   65MOL    H2912957   3.031   1.958   2.393 -0.6920  0.3534 -1.5086
   65MOL    H3012958   3.347   1.912   2.403  0.2602 -0.6149  1.1587
   65MOL    H3112959   3.241   1.791   2.331  2.2751 -2.2038  1.2381
   65MOL    C3212960   3.233   1.800   2.543  0.6382 -0.1419  0.5311
   65MOL    C3312961   3.100   1.728   2.573 -0.0217 -0.8316 -0.6545
   65MOL    C3412962   3.032   1.756   2.689 -0.3906 -0.9931 -0.5099
   65MOL    C3512963   2.894   1.690   2.718 -0.9265 -0.0470  0.2559
   65MOL    H3612964   3.304   1.721   2.566 -1.4060 -1.8598  1.1724
   65MOL    H3712965   3.246   1.885   2.610  2.6045 -0.9712  1.2331
   65MOL    H3812966   3.055   1.661   2.502 -0.9304  0.6131 -1.4687
   65MOL    H3912967   3.069   1.829   2.760 -0.5666 -0.0219 -1.4044
   65MOL    H4012968   2.927   1.617   2.792  0.2380  0.7270  0.5125
   65MOL    H4112969   2.853   1.635   2.633  0.7262  0.8801 -1.1891
   65MOL    C4212970   2.795   1.791   2.770 -0.4474  0.1735 -0.7414
   65MOL    C4312971   2.742   1.874   2.662  0.7625 -0.4948  0.1646
   65MOL    C4412972   2.698   1.998   2.661  0.4331  0.3045 -0.8036
   65MOL    C4512973   2.629   2.071   2.547 -0.9814 -0.2683 -0.9126
   65MOL    H4612974   2.722   1.728   2.820  0.5951 -0.2522  0.2762
   65MOL    H4712975   2.837   1.848   2.853 -3.0221  0.6854  0.2476
   65MOL    H4812976   2.725   1.829   2.566 -1.5036  1.7656 -0.5527
   65MOL    H4912977   2.687   2.051   2.755  0.1021 -1.6136  0.2704
   65MOL    H5012978   2.523   2.087   2.565 -0.5913 -0.2222  1.5603
   65MOL    H5112979   2.636   2.003   2.462  1.4179  0.7307 -1.5798
   65MOL    C5212980   2.709   2.200   2.507  0.2561  0.7118  0.1122
   65MOL    C5312981   2.653   2.278   2.386 -0.4726 -0.2269 -0.1071
   65MOL    C5412982   2.615   2.407   2.405 -0.9105 -0.1271  0.1031
   65MOL    C5512983   2.556   2.493   2.291  0.2546  0.0001  0.2223
   65MOL    H5612984   2.714   2.270   2.590  2.1509 -1.4508  1.8878
   65MOL    H5712985   2.813   2.173   2.488 -0.2882 -1.1944 -0.3163
   65MOL    H5812986   2.660   2.224   2.293  0.4691 -1.7011  0.7853
   65MOL    H5912987   2.619   2.449   2.504 -2.7548  0.6708 -0.1471
   65MOL    H6012988   2.586   2.596   2.306 -0.1935  0.3819 -1.4706
   65MOL    H6112989   2.450   2.472   2.306 -0.3767  1.7354 -1.6110
   65MOL    C6212990   2.596   2.436   2.154 -0.3325  0.2221  0.2606
   65MOL    C6312991   2.524   2.516   2.048  0.0875 -0.5370  0.4616
   65MOL    C6412992   2.416   2.477   1.982  0.5477 -0.1469  0.1877
   65MOL    C6512993   2.346   2.550   1.869  0.6105  0.2001  0.0344
   65MOL    H6612994   2.702   2.459   2.139 -0.5462  1.7167  0.9376
   65MOL    H6712995   2.565   2.333   2.137 -1.3474  0.6452 -0.4573
   65MOL    H6812996   2.571   2.611   2.025 -2.4119  0.5822 -0.2553
   65MOL    H6912997   2.387   2.375   2.002  0.9306 -0.4845 -0.9404
   65MOL    H7012998   2.336   2.475   1.790 -2.0200 -0.7372  1.1685
   65MOL    H7112999   2.431   2.606   1.832  0.2913 -0.5496 -1.9315
   65MOL    C7213000   2.217   2.640   1.893  0.3727  0.6248  0.7284
   65MOL    C7313001   2.177   2.707   1.765 -0.2027 -0.0087  0.3666
   65MOL    C7413002   2.051   2.753   1.747  0.5756 -0.0538 -0.8041
   65MOL    C7513003   1.996   2.815   1.622 -0.6398 -0.0621  0.4903
   65MOL    H7613004   2.142   2.570   1.932 -0.0415 -0.7732 -2.4099
   65MOL    H7713005   2.237   2.701   1.980  1.4110 -0.4508  1.2519
   65MOL    H7813006   2.252   2.705   1.688  0.9203  0.2233  1.4306
   65MOL    H7913007   1.979   2.744   1.827 -0.2950 -0.8643 -1.6564
   65MOL    H8013008   2.068   2.796   1.543 -0.6868  0.2780  0.3654
   65MOL    H8113009   2.003   2.923   1.633  0.7556 -0.0099 -0.8353
   65MOL    C8213010   1.859   2.767   1.585 -0.4076 -0.0089  0.1624
   65MOL    C8313011   1.740   2.823   1.668 -0.2786 -0.4207 -0.0251
   65MOL    C8413012   1.645   2.752   1.722  0.0259  0.3475  0.1274
   65MOL    C8513013   1.527   2.792   1.807  0.0558  0.3470 -0.2496
   65MOL    H8613014   1.838   2.789   1.481 -0.7490 -0.5521  0.1175
   65MOL    H8713015   1.852   2.658   1.583 -4.1081  0.1711 -0.2410
   65MOL    H8813016   1.736   2.929   1.687 -0.5304 -0.5232  0.5077
   65MOL    H8913017   1.640   2.647   1.697  1.7315  0.3750 -0.4202
   65MOL    H9013018   1.496   2.708   1.870 -0.1317 -1.2910 -2.4421
   65MOL    H9113019   1.444   2.813   1.740 -0.5690 -1.3066 -0.0343
   65MOL    C9213020   1.559   2.913   1.891 -0.3719  0.2934 -0.2253
   65MOL    C9313021   1.476   2.907   2.014 -0.0430 -0.1898  0.1626
   65MOL    C9413022   1.416   3.015   2.067  0.1121  0.4595  0.7994
   65MOL    C9513023   1.336   3.010   2.193 -0.1692  0.2941 -0.9183
   65MOL    H9613024   1.661   2.922   1.926 -0.1768 -1.0905 -0.4158
   65MOL    H9713025   1.538   3.002   1.832 -0.8158 -1.1143 -2.2467
   65MOL    H9813026   1.461   2.813   2.064 -1.9773 -0.4632 -0.8730
   65MOL    H9913027   1.421   3.109   2.015  1.5294  0.2979  0.6271
   65MOL   H10013028   1.399   3.031   2.280 -0.1221 -0.7582 -0.6953
   65MOL   H10113029   1.320   2.904   2.210 -0.9331  0.7055  1.2066
   65MOL   C10213030   1.207   3.084   2.194  0.3039 -0.4374 -0.2382
   65MOL   C10313031   1.167   3.089   2.340  0.4073 -0.1757 -0.1373
   65MOL   C10413032   1.075   3.007   2.383  0.0300 -0.4555 -0.4023
   65MOL   C10513033   1.022   2.997   2.525 -0.1750  0.2835  0.3543
   65MOL   H10613034   1.215   3.186   2.158 -3.8463 -0.5537 -1.7117
   65MOL   H10713035   1.139   3.026   2.132  0.1811 -0.5873  0.0343
   65MOL   H10813036   1.219   3.162   2.400 -0.8816 -1.0294  2.0537
   65MOL   H10913037   1.013   2.953   2.313 -0.5310 -0.5048  0.1253
   65MOL   H11013038   0.925   3.046   2.532  0.1862  0.7884  2.0869
   65MOL   H11113039   1.094   3.058   2.579  0.4395  0.6458 -0.8603
   65MOL   C11213040   1.007   2.858   2.582 -0.4148 -0.2123  0.3626
   65MOL   C11313041   1.134   2.779   2.569  0.1985 -0.5122  0.1566
   65MOL   C11413042   1.158   2.700   2.465  0.2486 -0.4245  0.5367
   65MOL   C11513043   1.296   2.647   2.422 -0.4007  0.1550  0.6826
   65MOL   H11613044   0.988   2.859   2.690  1.6534 -1.0791  0.7659
   65MOL   H11713045   0.923   2.803   2.540  1.0882 -2.1007 -0.2353
   65MOL   H11813046   1.212   2.826   2.627  1.3881 -0.6833 -1.2701
   65MOL   H11913047   1.073   2.684   2.399  1.4053 -1.2487 -0.7899
   65MOL   H12013048   1.363   2.656   2.507 -1.3246 -0.2690  1.4647
   65MOL   H12113049   1.347   2.710   2.349 -0.4072  2.0096  2.2409
   65MOL   C12213050   1.292   2.493   2.379  0.2739 -0.8017  0.0212
   65MOL   C12313051   1.415   2.465   2.299  0.2344  0.2063 -0.5958
   65MOL   C12413052   1.502   2.372   2.328 -0.0109 -0.0223 -0.1744
   65MOL   C12513053   1.624   2.345   2.247 -0.1661 -0.0336 -0.0272
   65MOL   H12613054   1.276   2.427   2.464 -0.0202 -0.8829 -0.0975
   65MOL   H12713055   1.202   2.492   2.317  1.5815  0.8944 -1.9873
   65MOL   H12813056   1.437   2.526   2.212  0.7933 -1.1955 -1.4573
   65MOL   H12913057   1.487   2.317   2.420 -0.5229  0.4704  0.0410
   65MOL   H13013058   1.671   2.435   2.206  0.1685 -0.2770 -0.1785
   65MOL   H13113059   1.597   2.288   2.158 -0.6165 -1.2343  0.8696
   65MOL   C13213060   1.737   2.282   2.327  0.8430 -0.2819  0.4462
   65MOL   C13313061   1.860   2.258   2.235 -0.3588  0.6222  0.5171
   65MOL   C13413062   1.911   2.132   2.219 -0.7783 -0.6467 -0.3601
   65MOL   C13513063   2.022   2.098   2.118 -0.1043 -0.3173  0.3020
   65MOL   H13613064   1.754   2.350   2.411 -0.2712 -0.2774  0.6826
   65MOL   H13713065   1.712   2.190   2.380  0.6347 -0.1522  0.5755
   65MOL   H13813066   1.902   2.340   2.179  0.7323  0.0688  0.5157
   65MOL   H13913067   1.877   2.045   2.273 -0.5695 -1.3606 -1.3609
   65MOL   H14013068   2.118   2.144   2.139  0.0702  0.1920 -1.4815
   65MOL   H14113069   2.003   2.148   2.022  1.1155  0.1759  0.3117
   65MOL   C14213070   2.025   1.944   2.076  0.5887 -0.3303  0.0842
   65MOL   C14313071   2.086   1.853   2.186 -0.0568  0.3415 -0.5398
   65MOL   C14413072   2.166   1.752   2.153  0.1171  0.3772 -0.4092
   65MOL   C14513073   2.238   1.673   2.261  0.0590 -0.3684 -0.1098
   65MOL   H14613074   1.923   1.913   2.053  0.3161  0.0907  0.7010
   65MOL   H14713075   2.087   1.952   1.987  1.2565  1.4322  0.6831
   65MOL   H14813076   2.062   1.885   2.287 -2.7680  0.2975 -1.1412
   65MOL   H14913077   2.192   1.714   2.055 -3.2329 -1.6097 -0.5970
   65MOL   H15013078   2.214   1.717   2.358 -0.1780 -0.7772  0.0167
   65MOL   H15113079   2.346   1.688   2.256  0.1572 -1.1110 -0.3705
   65MOL   C15213080   2.214   1.524   2.280  0.2024  0.1675 -0.0032
   65MOL   C15313081   2.061   1.503   2.295 -0.1525  0.1897 -0.2158
   65MOL   C15413082   1.995   1.395   2.253  0.3332  0.2310 -0.3101
   65MOL   C15513083   1.847   1.362   2.279  0.6909 -0.3144 -0.3624
   65MOL   H15613084   2.262   1.482   2.192 -1.1979 -0.5990 -0.4150
   65MOL   H15713085   2.264   1.487   2.369  1.0002  2.3185  0.4821
   65MOL   H15813086   2.002   1.570   2.355  0.3736 -0.0829  0.6028
   65MOL   H15913087   2.047   1.318   2.198 -2.7995 -1.2177 -1.3405
   65MOL   H16013088   1.798   1.447   2.327 -0.6789 -1.5472  0.4792
   65MOL   H16113089   1.840   1.280   2.351 -0.1242 -1.0150 -1.2362
   65MOL   C16213090   1.776   1.339   2.149 -0.6728  0.1432 -0.4378
   65MOL   C16313091   1.638   1.280   2.160 -0.3988 -0.3109 -0.4399
   65MOL   C16413092   1.527   1.336   2.119  0.2821  0.4815 -0.5757
   65MOL   C16513093   1.387   1.286   2.143  0.3632  0.0289  0.2697
   65MOL   H16613094   1.767   1.426   2.086 -0.5692 -0.1657 -0.8806
   65MOL   H16713095   1.827   1.260   2.095 -1.1298  0.1775 -0.9222
   65MOL   H16813096   1.626   1.196   2.227  0.4006  1.5781  2.1719
   65MOL   H16913097   1.529   1.430   2.067  1.0620  1.2556  0.8065
   65MOL   H17013098   1.364   1.322   2.243 -0.5003  1.4859 -0.4466
   65MOL   H17113099   1.396   1.177   2.144  0.1147  0.0078  0.2042
   65MOL   C17213100   1.277   1.327   2.045 -0.3822 -0.7696  0.2689
   65MOL   C17313101   1.145   1.265   2.085  0.8209  0.2635 -0.5987
   65MOL   C17413102   1.045   1.337   2.129  0.2341 -0.3334 -0.4370
   65MOL   C17513103   0.908   1.282   2.162 -0.3514 -0.2673  0.5257
   65MOL   H17613104   1.267   1.435   2.047 -2.6647 -0.9390 -0.4053
   65MOL   H17713105   1.308   1.298   1.944 -0.0880 -0.7594  0.3534
   65MOL   H17813106   1.126   1.161   2.063  2.5129 -0.0646 -0.5811
   65MOL   H17913107   1.060   1.443   2.138 -1.2397  0.1248 -2.7447
   65MOL   H18013108   0.901   1.178   2.132 -0.1470 -0.1302 -0.0036
   65MOL   H18113109   0.836   1.343   2.106 -0.9673  0.1827  1.7846
   65MOL   C18213110   0.877   1.297   2.312 -0.0169 -0.0499 -0.3535
   65MOL   C18313111   0.731   1.288   2.343 -1.0159  0.2313  0.0761
   65MOL   C18413112   0.670   1.214   2.438 -0.8501 -0.1466 -0.3074
   65MOL   C18513113   0.518   1.198   2.445 -0.0894  0.1452  0.2397
   65MOL   H18613114   0.917   1.219   2.376 -0.0473 -2.6856 -3.3980
   65MOL   H18713115   0.910   1.400   2.329  1.0080  0.0165 -2.5296
   65MOL   H18813116   0.673   1.337   2.266  0.9789  1.0387 -0.9523
   65MOL   H18913117   0.732   1.148   2.496 -1.9735 -0.6573  0.3192
   65MOL   H19013118   0.465   1.258   2.370  0.7708  0.6329  0.0152
   65MOL   H19113119   0.480   1.241   2.538 -2.0684 -2.3432  0.6541
   65MOL   C19213120   0.479   1.050   2.424  0.2421 -0.3760 -0.4796
   65MOL   C19313121   0.329   1.019   2.408  0.1642 -0.1509  0.6159
   65MOL   C19413122   0.264   0.980   2.298 -0.1504  0.3931 -0.4135
   65MOL   C19513123   0.109   0.983   2.280 -0.3902  0.3784 -0.4620
   65MOL   H19613124   0.518   1.029   2.324 -0.7264  1.5795 -1.2934
   65MOL   H19713125   0.503   0.982   2.506  0.4319  1.5749  1.1158
   65MOL   H19813126   0.265   1.039   2.493 -0.1792  0.7428  0.1619
   65MOL   H19913127   0.315   0.973   2.203  1.1659 -1.0477  0.3617
   65MOL   H20013128   0.077   1.057   2.207  1.1504  1.3402 -0.1738
   65MOL   H20113129   0.051   1.003   2.371  1.0197  2.2218  0.0636
   65MOL   H20213130   0.090   0.883   2.241 -0.0492  0.5320 -1.0224
   66MOL     C113131   6.998   6.700   1.705 -0.3888 -0.0945  0.2732
   66MOL     C213132   6.917   6.770   1.598  0.0586 -0.3772  1.0867
   66MOL     C313133   6.812   6.846   1.639 -0.2221 -0.0492 -0.5215
   66MOL     C413134   6.728   6.911   1.533  0.0024  0.3977  0.7068
   66MOL     H513135   7.087   6.761   1.723  0.5929 -1.3526 -0.2701
   66MOL     H613136   7.018   6.597   1.676 -0.6159 -0.2564  0.6808
   66MOL     H713137   6.942   6.766   1.493 -3.5941 -0.3970  0.1778
   66MOL     H813138   6.776   6.857   1.740  0.0013 -0.7783 -0.3590
   66MOL     H913139   6.628   6.910   1.577  0.7221  0.4389  2.3778
   66MOL    H1013140   6.729   6.858   1.438 -1.7898  1.4690  0.0723
   66MOL    H1113141   6.949   6.691   1.802 -0.5919  2.8821  0.5005
   66MOL    C1213142   6.767   7.056   1.496 -0.1269 -0.0597 -0.6251
   66MOL    C1313143   6.669   7.121   1.402 -0.8785 -0.4610  0.4167
   66MOL    C1413144   6.704   7.174   1.282 -0.0565 -0.7686  0.6182
   66MOL    C1513145   6.612   7.242   1.183 -0.8720  0.1234 -0.3695
   66MOL    H1613146   6.768   7.109   1.591 -0.9899 -0.9789 -0.1005
   66MOL    H1713147   6.865   7.067   1.449  0.5015 -0.9145  0.4603
   66MOL    H1813148   6.568   7.133   1.437 -0.1858  0.4655  2.1830
   66MOL    H1913149   6.810   7.171   1.259 -0.0506 -1.3071  0.7206
   66MOL    H2013150   6.508   7.216   1.202  0.2918 -4.3168  0.4582
   66MOL    H2113151   6.650   7.219   1.084 -0.0922  1.3275 -0.3631
   66MOL    C2213152   6.621   7.398   1.182  0.5548 -0.4278 -0.4507
   66MOL    C2313153   6.763   7.438   1.145 -0.2678  0.5342  0.5090
   66MOL    C2413154   6.779   7.536   1.054  0.1855  0.6258  0.3151
   66MOL    C2513155   6.907   7.596   0.999  0.4095 -0.6930  0.0043
   66MOL    H2613156   6.557   7.443   1.106  0.0531  1.5113  1.0715
   66MOL    H2713157   6.592   7.439   1.279 -1.5268 -3.3695  0.2592
   66MOL    H2813158   6.851   7.385   1.179  0.6247  1.8532  0.2917
   66MOL    H2913159   6.689   7.586   1.021 -0.5414 -0.8499  0.0308
   66MOL    H3013160   6.991   7.568   1.063 -0.0311 -1.2399  0.3473
   66MOL    H3113161   6.914   7.704   1.012  1.8197 -0.9329  1.4493
   66MOL    C3213162   6.932   7.549   0.860  0.3562 -1.0577  0.1151
   66MOL    C3313163   7.070   7.572   0.804 -0.0695  0.4911  0.6995
   66MOL    C3413164   7.149   7.481   0.743 -0.5032 -0.2661  0.3490
   66MOL    C3513165   7.290   7.505   0.697 -0.0269 -0.1051 -0.2906
   66MOL    H3613166   6.915   7.441   0.859 -1.9526 -0.7294  1.1317
   66MOL    H3713167   6.869   7.605   0.792  4.2111  1.2347 -1.7405
   66MOL    H3813168   7.105   7.674   0.806  1.2160  0.2004 -2.5519
   66MOL    H3913169   7.115   7.379   0.752 -1.5470 -0.0221 -0.5957
   66MOL    H4013170   7.313   7.612   0.699  0.9034 -0.3151  2.7015
   66MOL    H4113171   7.293   7.477   0.591  0.8896  1.2842 -0.6553
   66MOL    C4213172   7.387   7.442   0.787 -0.7746 -0.2368 -0.0291
   66MOL    C4313173   7.411   7.305   0.756 -0.7254  0.1860  0.0545
   66MOL    C4413174   7.375   7.197   0.837 -0.0555 -0.2166 -0.2784
   66MOL    C4513175   7.393   7.051   0.807 -0.3254  0.2807 -0.4876
   66MOL    H4613176   7.484   7.487   0.765  0.3514 -2.0723  1.1109
   66MOL    H4713177   7.365   7.466   0.891 -0.7260  1.2898 -0.3448
   66MOL    H4813178   7.463   7.287   0.663  0.8777 -2.4895  1.4097
   66MOL    H4913179   7.319   7.221   0.926  0.0893  0.0742 -0.2651
   66MOL    H5013180   7.453   7.028   0.719 -0.0483  3.3614 -1.1824
   66MOL    H5113181   7.288   7.027   0.788 -0.7228  0.6940  1.1503
   66MOL    C5213182   7.452   6.986   0.936 -0.6625 -0.3640 -0.0423
   66MOL    C5313183   7.470   6.834   0.916 -0.1817  0.2342 -0.0120
   66MOL    C5413184   7.432   6.734   0.997  0.5453 -0.1670  0.5938
   66MOL    C5513185   7.469   6.587   0.984  0.4988  0.2530  0.0564
   66MOL    H5613186   7.549   7.035   0.942 -0.5100 -0.3690 -2.1962
   66MOL    H5713187   7.394   7.009   1.026 -0.8247  2.1848 -0.7579
   66MOL    H5813188   7.529   6.813   0.828 -0.2078  2.6346 -0.6156
   66MOL    H5913189   7.376   6.758   1.086  0.2217  1.2224  0.0285
   66MOL    H6013190   7.523   6.549   1.070  0.1882 -1.2344 -0.3783
   66MOL    H6113191   7.536   6.586   0.898 -0.7226 -1.1012 -0.9127
   66MOL    C6213192   7.343   6.496   0.961  0.1593  0.1875  0.1731
   66MOL    C6313193   7.255   6.486   1.081  0.5929 -0.0383  0.0288
   66MOL    C6413194   7.140   6.555   1.105  0.8219  0.2866  0.3311
   66MOL    C6513195   7.050   6.541   1.226  0.0338  0.0708  0.2138
   66MOL    H6613196   7.286   6.525   0.873 -0.8253 -0.3716  0.6253
   66MOL    H6713197   7.385   6.397   0.946 -2.2749 -1.3822  3.1667
   66MOL    H6813198   7.283   6.397   1.136  0.9154  0.9417  1.4582
   66MOL    H6913199   7.116   6.633   1.035  0.0864 -1.3215 -1.2428
   66MOL    H7013200   7.072   6.618   1.299 -1.2355 -0.2407  0.9385
   66MOL    H7113201   7.062   6.444   1.275  2.6667 -0.9361 -2.2227
   66MOL    C7213202   6.904   6.540   1.184  0.1261  0.1021  0.0735
   66MOL    C7313203   6.811   6.515   1.299  0.2305 -0.0791 -0.1286
   66MOL    C7413204   6.717   6.421   1.305 -0.5189 -0.1680 -0.5163
   66MOL    C7513205   6.624   6.395   1.426  0.5478  0.3232 -0.0612
   66MOL    H7613206   6.881   6.634   1.135  2.0095  0.9511  0.7765
   66MOL    H7713207   6.882   6.467   1.106  1.4076 -1.8405  1.4820
   66MOL    H7813208   6.818   6.577   1.387  0.6101  1.2167 -1.0582
   66MOL    H7913209   6.695   6.350   1.227  0.2305 -0.6042 -0.3419
   66MOL    H8013210   6.664   6.310   1.481 -0.6791  0.1128  0.5453
   66MOL    H8113211   6.529   6.372   1.378 -0.6836  1.4680  1.7554
   66MOL    C8213212   6.603   6.518   1.516  0.1287  0.0350 -0.4910
   66MOL    C8313213   6.512   6.489   1.627 -0.2736  0.4276 -0.2730
   66MOL    C8413214   6.402   6.557   1.650 -0.6672  0.6764 -0.5528
   66MOL    C8513215   6.299   6.524   1.762  0.1680 -0.8419  0.5098
   66MOL    H8613216   6.696   6.547   1.564  0.5055  0.9565 -1.7575
   66MOL    H8713217   6.560   6.607   1.470 -2.1458 -0.8803 -0.2444
   66MOL    H8813218   6.529   6.394   1.676 -1.8025  0.7855  0.9606
   66MOL    H8913219   6.375   6.642   1.589 -0.9695 -0.4808 -2.0865
   66MOL    H9013220   6.341   6.552   1.858  1.7343 -0.9345 -0.1307
   66MOL    H9113221   6.284   6.417   1.772 -0.1148 -1.0221 -1.5342
   66MOL    C9213222   6.165   6.587   1.737  0.5420 -0.0472 -0.0917
   66MOL    C9313223   6.075   6.550   1.846 -0.2985 -0.2453 -0.4909
   66MOL    C9413224   5.995   6.635   1.909 -0.2795 -0.5004  0.4080
   66MOL    C9513225   5.888   6.598   2.011 -0.2145  0.6823 -0.4988
   66MOL    H9613226   6.169   6.696   1.735 -1.1246  0.0724  1.8996
   66MOL    H9713227   6.131   6.560   1.637  1.3867 -3.0571  0.3712
   66MOL    H9813228   6.050   6.446   1.864 -2.4299  0.3855  0.4349
   66MOL    H9913229   5.993   6.739   1.878  0.6518 -1.3249 -2.5215
   66MOL   H10013230   5.863   6.492   2.009 -1.9613  1.0202  1.8683
   66MOL   H10113231   5.792   6.644   1.988 -0.6945 -0.1352 -0.1355
   66MOL   C10213232   5.917   6.641   2.158 -0.5476 -0.2581  0.2910
   66MOL   C10313233   5.801   6.629   2.253  0.2909 -0.0855 -0.3522
   66MOL   C10413234   5.808   6.591   2.381 -0.1923  0.6242  0.1103
   66MOL   C10513235   5.678   6.582   2.467 -0.5929 -0.4956 -0.0567
   66MOL   H10613236   5.995   6.582   2.206  0.8590  1.6037  0.3227
   66MOL   H10713237   5.947   6.745   2.161 -0.0710 -0.3916  0.0850
   66MOL   H10813238   5.704   6.656   2.213 -0.4638 -0.1133  1.4247
   66MOL   H10913239   5.892   6.546   2.433 -1.5583 -0.0122  1.8008
   66MOL   H11013240   5.590   6.624   2.418 -0.0057 -0.8189 -1.4229
   66MOL   H11113241   5.698   6.643   2.555  0.3811  0.2525 -0.7823
   66MOL   C11213242   5.647   6.445   2.521 -0.3650  0.6731  0.7188
   66MOL   C11313243   5.650   6.326   2.425 -1.1161  0.1078 -0.5668
   66MOL   C11413244   5.737   6.222   2.434 -0.2940  0.2295  0.8956
   66MOL   C11513245   5.721   6.100   2.346 -0.2590 -0.4048 -0.2711
   66MOL   H11613246   5.711   6.414   2.603  0.6115  0.2748 -0.1801
   66MOL   H11713247   5.547   6.454   2.563 -0.4869  0.5542  0.4532
   66MOL   H11813248   5.571   6.325   2.351  0.0304 -3.5391 -1.8743
   66MOL   H11913249   5.823   6.232   2.498  0.3111  1.0551 -0.0430
   66MOL   H12013250   5.782   6.116   2.257 -1.2603 -1.3058 -1.1295
   66MOL   H12113251   5.621   6.086   2.307 -0.0466 -1.7646 -0.3393
   66MOL   C12213252   5.759   5.962   2.405 -1.0217  0.1605 -0.1319
   66MOL   C12313253   5.909   5.943   2.437  0.1083  0.1262 -0.2670
   66MOL   C12413254   5.989   5.852   2.386 -0.3646  0.1575  0.0673
   66MOL   C12513255   6.131   5.827   2.423 -0.1459  0.3474  1.0383
   66MOL   H12613256   5.713   5.945   2.502 -0.2680 -0.9487  0.0433
   66MOL   H12713257   5.731   5.875   2.345 -1.1551  0.1608 -0.0689
   66MOL   H12813258   5.944   6.020   2.504 -0.9910 -1.1428  1.8148
   66MOL   H12913259   5.942   5.778   2.324 -0.4462 -0.1317  0.4693
   66MOL   H13013260   6.136   5.732   2.477  0.7402 -0.2549 -0.0582
   66MOL   H13113261   6.165   5.903   2.492 -1.0449  1.8342 -0.1324
   66MOL   C13213262   6.232   5.803   2.306  0.4309  0.2448 -0.4373
   66MOL   C13313263   6.372   5.762   2.353 -0.6677  0.1427  0.1079
   66MOL   C13413264   6.435   5.657   2.301  0.9971 -0.1445 -0.4074
   66MOL   C13513265   6.575   5.618   2.348 -0.5569  0.4274 -0.2047
   66MOL   H13613266   6.194   5.723   2.244  2.1221 -1.3118  0.4667
   66MOL   H13713267   6.244   5.896   2.250  2.5130 -0.4794 -1.2466
   66MOL   H13813268   6.423   5.834   2.416  1.7183 -1.0800 -0.3817
   66MOL   H13913269   6.382   5.589   2.236 -1.4587  1.2276  0.0531
   66MOL   H14013270   6.570   5.544   2.429  0.6180  0.3690 -0.1800
   66MOL   H14113271   6.635   5.704   2.377  0.7029 -0.2164 -0.8722
   66MOL   C14213272   6.672   5.578   2.238 -1.0914  0.1138 -0.2795
   66MOL   C14313273   6.617   5.456   2.164 -0.3075  0.0399  0.5552
   66MOL   C14413274   6.627   5.434   2.035 -0.1415  0.1000 -0.3472
   66MOL   C14513275   6.576   5.307   1.968 -0.2556  0.9762 -0.5781
   66MOL   H14613276   6.690   5.650   2.159 -3.2667 -0.2829 -1.1665
   66MOL   H14713277   6.771   5.555   2.277 -1.5192  0.9069  1.3288
   66MOL   H14813278   6.559   5.382   2.217  0.2917 -0.0048  1.1604
   66MOL   H14913279   6.682   5.503   1.974  0.5906  1.8496  2.1969
   66MOL   H15013280   6.648   5.236   1.929 -1.5533  0.2892 -1.7772
   66MOL   H15113281   6.530   5.349   1.879 -0.8716  1.5969  0.0239
   66MOL   C15213282   6.461   5.237   2.038  0.1060  0.1370 -0.4487
   66MOL   C15313283   6.390   5.150   1.933  0.3752  0.3852 -1.0205
   66MOL   C15413284   6.338   5.029   1.962  0.0209 -0.3367 -0.2631
   66MOL   C15513285   6.261   4.938   1.864  0.2014 -0.2773  0.2031
   66MOL   H15613286   6.489   5.185   2.129  2.6326 -0.6294 -1.6259
   66MOL   H15713287   6.387   5.313   2.065  1.7918  1.3776  0.7772
   66MOL   H15813288   6.379   5.194   1.835  1.1173  0.7863 -0.9228
   66MOL   H15913289   6.365   4.992   2.059  0.7150 -2.0161 -1.0692
   66MOL   H16013290   6.339   4.864   1.847  1.2234  0.9056 -0.3369
   66MOL   H16113291   6.251   5.002   1.777 -2.7123  0.6591  1.1628
   66MOL   C16213292   6.128   4.882   1.920  0.8043 -0.1655  0.0085
   66MOL   C16313293   6.031   4.835   1.811  1.0292  0.2577 -0.0276
   66MOL   C16413294   5.940   4.732   1.821  0.1822 -0.6135 -0.1010
   66MOL   C16513295   5.841   4.687   1.708 -0.2983  0.0829  0.3180
   66MOL   H16613296   6.143   4.799   1.989 -2.0071 -0.1172  0.7454
   66MOL   H16713297   6.086   4.968   1.975 -0.4464 -1.4044  1.0370
   66MOL   H16813298   6.031   4.884   1.715 -3.2337  1.2724  0.3930
   66MOL   H16913299   5.910   4.680   1.911  1.1740  0.3177  0.7768
   66MOL   H17013300   5.870   4.728   1.612  0.2374 -0.8622  0.0700
   66MOL   H17113301   5.750   4.743   1.729 -0.5010 -0.0853 -0.1154
   66MOL   C17213302   5.820   4.535   1.715  0.4080  0.1118 -0.6037
   66MOL   C17313303   5.739   4.492   1.599  0.9909  0.8904 -0.5578
   66MOL   C17413304   5.785   4.413   1.504 -1.0018  0.7447  0.4312
   66MOL   C17513305   5.702   4.352   1.382  0.3538 -0.8445 -0.0424
   66MOL   H17613306   5.910   4.474   1.711 -0.5647 -1.4849  1.0072
   66MOL   H17713307   5.778   4.497   1.808  2.3289  1.2935  0.7754
   66MOL   H17813308   5.639   4.530   1.584  0.8994  0.4811 -0.9684
   66MOL   H17913309   5.883   4.368   1.513 -0.7077  1.3249  0.1682
   66MOL   H18013310   5.600   4.389   1.371  0.4501 -0.8018 -0.7580
   66MOL   H18113311   5.690   4.245   1.401 -1.5267 -0.8687 -1.2742
   66MOL   C18213312   5.778   4.380   1.246  0.1129  0.0561  0.4835
   66MOL   C18313313   5.734   4.301   1.125  0.5454 -0.0629 -0.4145
   66MOL   C18413314   5.786   4.183   1.091 -0.2969 -0.7566 -0.6085
   66MOL   C18513315   5.746   4.107   0.969  0.0225  0.4674 -0.3857
   66MOL   H18613316   5.797   4.483   1.215  1.4485  0.1276  1.4925
   66MOL   H18713317   5.877   4.339   1.265  1.0997  2.0538 -0.2289
   66MOL   H18813318   5.652   4.334   1.064  0.8933 -1.2368 -1.5172
   66MOL   H18913319   5.866   4.143   1.151 -1.6850  0.0015  1.8462
   66MOL   H19013320   5.667   4.164   0.920 -0.3911 -1.2709 -1.8166
   66MOL   H19113321   5.700   4.012   0.998 -0.9566  0.6166 -1.3908
   66MOL   C19213322   5.865   4.082   0.879 -0.0661 -0.5384  1.2382
   66MOL   C19313323   5.836   3.983   0.767 -0.5425 -0.3187 -0.1985
   66MOL   C19413324   5.898   3.867   0.749  0.0811 -0.0931  0.2056
   66MOL   C19513325   5.854   3.779   0.638 -0.1269 -0.0493  0.6417
   66MOL   H19613326   5.897   4.168   0.820  0.5745 -0.4162  1.7587
   66MOL   H19713327   5.952   4.044   0.931  0.4967 -1.6616 -0.4737
   66MOL   H19813328   5.763   4.012   0.693 -0.0275  0.0923 -0.5453
   66MOL   H19913329   5.986   3.846   0.808  0.9021  0.3539 -0.8165
   66MOL   H20013330   5.835   3.675   0.667 -0.7214  0.0034  0.4443
   66MOL   H20113331   5.912   3.793   0.547 -1.8539 -0.7328 -0.5914
   66MOL   H20213332   5.751   3.807   0.619  0.7328  1.8451 -1.4072
   67MOL     C113333   4.387   3.028   4.928 -0.0811 -0.3679  0.3261
   67MOL     C213334   4.358   2.952   4.798 -0.1616 -0.4735 -0.2207
   67MOL     C313335   4.442   2.842   4.768  0.0857  0.1036  0.5043
   67MOL     C413336   4.418   2.739   4.659  0.2707  0.5424 -0.1767
   67MOL     H513337   4.297   3.033   4.989 -0.9537  1.3113 -1.0362
   67MOL     H613338   4.403   3.134   4.905 -0.7448 -0.4561 -0.5807
   67MOL     H713339   4.272   2.970   4.735  0.1253  2.3721  0.1143
   67MOL     H813340   4.528   2.819   4.828 -0.4794  0.4251  1.4474
   67MOL     H913341   4.505   2.676   4.672  0.4970  1.0171  0.6027
   67MOL    H1013342   4.423   2.793   4.564 -1.0497  0.0078 -0.5663
   67MOL    H1113343   4.469   2.988   4.987  0.4475  2.5281  1.6329
   67MOL    C1213344   4.298   2.656   4.689  0.2413  0.3187 -0.6801
   67MOL    C1313345   4.299   2.586   4.831  0.7198 -0.4710  0.3803
   67MOL    C1413346   4.318   2.455   4.847  0.2652  0.5646  0.1643
   67MOL    C1513347   4.310   2.378   4.977 -0.7597  0.1772 -0.1977
   67MOL    H1613348   4.208   2.718   4.684  1.1186  1.5870 -1.1534
   67MOL    H1713349   4.291   2.577   4.615 -0.4264 -0.7848  0.5344
   67MOL    H1813350   4.289   2.654   4.914 -1.6320  0.1018 -0.3212
   67MOL    H1913351   4.330   2.395   4.758  0.4992  3.1797 -1.6253
   67MOL    H2013352   4.280   2.431   5.067 -0.6240 -0.1186  0.0209
   67MOL    H2113353   4.408   2.331   4.984  0.2104  2.2852  0.5630
   67MOL    C2213354   4.204   2.267   4.959 -0.8485  0.5148 -0.3491
   67MOL    C2313355   4.064   2.314   4.947  0.2485  0.4848  0.6985
   67MOL    C2413356   3.961   2.272   5.018  0.1470  0.5393 -0.4449
   67MOL    C2513357   3.823   2.322   4.999  0.8256 -0.0648 -0.1368
   67MOL    H2613358   4.221   2.209   4.868 -0.7739  0.1731 -0.1145
   67MOL    H2713359   4.217   2.200   5.044  0.3912  0.1318 -0.8317
   67MOL    H2813360   4.050   2.382   4.864 -1.0985 -1.6291 -0.8417
   67MOL    H2913361   3.980   2.194   5.090 -0.6550  0.8381  0.0939
   67MOL    H3013362   3.827   2.419   4.950  1.6294 -0.0731 -0.1020
   67MOL    H3113363   3.775   2.318   5.097  0.9163 -0.3830 -0.1064
   67MOL    C3213364   3.732   2.225   4.921  0.1883  0.4560  0.6830
   67MOL    C3313365   3.608   2.295   4.866 -0.3602 -0.2443  0.5002
   67MOL    C3413366   3.560   2.284   4.739  0.1305  0.6106  0.0863
   67MOL    C3513367   3.441   2.359   4.683  0.7456  0.0779 -0.1962
   67MOL    H3613368   3.773   2.173   4.834  0.2221  0.6146  0.6041
   67MOL    H3713369   3.693   2.149   4.989  0.8532 -2.9223 -2.5340
   67MOL    H3813370   3.563   2.359   4.941  0.9583 -0.6061  1.6220
   67MOL    H3913371   3.610   2.217   4.671  0.1158  0.5117  0.1730
   67MOL    H4013372   3.482   2.402   4.591  0.9942  1.6961  0.6534
   67MOL    H4113373   3.425   2.441   4.752  0.4719  0.0742 -0.2557
   67MOL    C4213374   3.313   2.283   4.652 -0.7611 -0.2659 -0.4365
   67MOL    C4313375   3.204   2.383   4.614  0.4307 -0.4861  0.6260
   67MOL    C4413376   3.130   2.375   4.498 -0.3015 -0.1278  0.0510
   67MOL    C4513377   3.022   2.476   4.448 -0.1130 -0.0733 -0.5284
   67MOL    H4613378   3.334   2.205   4.578 -0.1094 -0.1785 -0.3537
   67MOL    H4713379   3.281   2.231   4.742  0.2904  1.5843  1.0613
   67MOL    H4813380   3.195   2.457   4.692 -0.6503  0.1690 -0.1036
   67MOL    H4913381   3.156   2.293   4.433  2.3463  0.3539  0.4478
   67MOL    H5013382   3.079   2.542   4.383 -1.2727  0.5251 -0.9651
   67MOL    H5113383   2.983   2.532   4.532  1.9532  0.9757 -0.2428
   67MOL    C5213384   2.911   2.405   4.368 -0.3711  0.5632  0.8530
   67MOL    C5313385   2.956   2.348   4.234  0.0927  0.2863  0.6685
   67MOL    C5413386   2.931   2.224   4.187 -0.7819 -0.1630 -0.4901
   67MOL    C5513387   2.973   2.173   4.053 -0.0748  0.1285 -0.6554
   67MOL    H5613388   2.866   2.319   4.417 -0.1343  0.3396  0.6787
   67MOL    H5713389   2.832   2.476   4.341 -0.7912 -0.4014 -0.5271
   67MOL    H5813390   3.019   2.408   4.170 -0.4539 -1.1061 -1.2363
   67MOL    H5913391   2.864   2.157   4.238  0.7388 -1.3664 -0.0300
   67MOL    H6013392   3.018   2.246   3.985  1.1801  0.7078  0.7839
   67MOL    H6113393   2.880   2.162   3.998 -0.2913  1.2881 -0.5312
   67MOL    C6213394   3.044   2.036   4.060  0.1498  0.0587  0.2810
   67MOL    C6313395   3.199   2.042   4.073  0.6954  0.5270 -0.2878
   67MOL    C6413396   3.258   2.012   4.188 -0.1906  0.3541 -0.1202
   67MOL    C6513397   3.408   2.030   4.197 -0.1287 -0.2444 -0.6967
   67MOL    H6613398   3.002   1.981   4.144  0.5948  1.7456  1.6281
   67MOL    H6713399   3.023   1.981   3.968  1.9437  0.3236 -0.3116
   67MOL    H6813400   3.248   2.079   3.984 -0.3890  2.4234 -0.1364
   67MOL    H6913401   3.190   1.987   4.268  1.9800 -0.0448  1.6318
   67MOL    H7013402   3.444   2.043   4.095  0.3383 -3.4540 -0.9897
   67MOL    H7113403   3.451   1.944   4.247 -0.7360 -0.9719 -1.4237
   67MOL    C7213404   3.455   2.146   4.282 -0.5070 -0.7137  0.8000
   67MOL    C7313405   3.599   2.180   4.252 -0.4717  0.3161 -0.3504
   67MOL    C7413406   3.707   2.157   4.326  0.0264  0.0682 -0.8487
   67MOL    C7513407   3.843   2.200   4.296 -0.7872  0.2332 -0.4578
   67MOL    H7613408   3.391   2.234   4.273 -0.3881 -0.7632 -0.5267
   67MOL    H7713409   3.461   2.122   4.389  3.3178  2.3752  1.3879
   67MOL    H7813410   3.617   2.228   4.157 -2.8121 -2.3614 -2.2344
   67MOL    H7913411   3.692   2.097   4.415 -1.1827 -1.2971 -1.9350
   67MOL    H8013412   3.839   2.292   4.238 -2.7907  0.3223 -0.2006
   67MOL    H8113413   3.886   2.128   4.227 -1.0146 -1.5692  1.2388
   67MOL    C8213414   3.934   2.215   4.417 -0.0825 -0.5197  0.4802
   67MOL    C8313415   4.072   2.251   4.378  0.9502  0.1938 -0.1786
   67MOL    C8413416   4.178   2.182   4.406  0.1690  0.2819  0.0954
   67MOL    C8513417   4.322   2.200   4.358  0.1241  0.0360 -0.1821
   67MOL    H8613418   3.884   2.287   4.482 -0.8598 -0.4603 -0.1848
   67MOL    H8713419   3.934   2.126   4.480  3.9186  0.6356  2.2770
   67MOL    H8813420   4.079   2.332   4.307 -3.3910  0.5389 -0.3202
   67MOL    H8913421   4.168   2.098   4.474  4.1172  0.3586  0.9079
   67MOL    H9013422   4.395   2.178   4.435 -0.0369  1.5267  0.4180
   67MOL    H9113423   4.348   2.302   4.330  1.7907 -0.1339  0.6982
   67MOL    C9213424   4.358   2.112   4.234  0.3423 -0.4315  0.1341
   67MOL    C9313425   4.506   2.102   4.215  0.1744  0.3567 -0.2274
   67MOL    C9413426   4.574   2.173   4.126  0.3818  0.3764  0.1596
   67MOL    C9513427   4.723   2.169   4.107  0.2671  0.7816  1.0775
   67MOL    H9613428   4.313   2.014   4.245  1.4333 -1.1408 -1.5311
   67MOL    H9713429   4.318   2.154   4.142  0.6009 -0.1747  0.1357
   67MOL    H9813430   4.560   2.024   4.266  0.7139  1.4710  0.9155
   67MOL    H9913431   4.526   2.252   4.071  2.1500  0.0564 -1.9011
   67MOL   H10013432   4.754   2.107   4.022 -0.5692  0.6932  0.8358
   67MOL   H10113433   4.782   2.126   4.188 -1.1019 -2.5659  0.4088
   67MOL   C10213434   4.776   2.314   4.074 -0.1779 -0.5050 -0.0306
   67MOL   C10313435   4.760   2.403   4.188 -0.4595  0.3348 -0.2026
   67MOL   C10413436   4.708   2.528   4.176  0.0858 -0.2114 -0.0306
   67MOL   C10513437   4.674   2.620   4.288  0.3670 -0.0943 -0.4314
   67MOL   H10613438   4.880   2.312   4.043 -0.0719 -0.0796  0.2935
   67MOL   H10713439   4.732   2.368   3.990 -0.4352 -2.8179 -1.4372
   67MOL   H10813440   4.774   2.374   4.291  1.2368  0.2149 -0.4419
   67MOL   H10913441   4.673   2.562   4.080 -1.9177  0.2550  0.8315
   67MOL   H11013442   4.721   2.582   4.379 -2.1072 -1.0891  0.4678
   67MOL   H11113443   4.569   2.626   4.314  0.3780 -0.7614 -0.2193
   67MOL   C11213444   4.728   2.758   4.253 -0.1105  0.1085 -0.0454
   67MOL   C11313445   4.693   2.850   4.361 -0.5278  0.2118  0.2661
   67MOL   C11413446   4.783   2.902   4.444  0.0400  0.2368 -0.3119
   67MOL   C11513447   4.749   2.972   4.576 -0.3339 -0.3807 -0.3690
   67MOL   H11613448   4.836   2.751   4.242 -0.1411 -0.5434  0.0177
   67MOL   H11713449   4.679   2.794   4.163 -1.8644  2.9584  1.9976
   67MOL   H11813450   4.594   2.861   4.403 -0.6962  0.3040 -0.1539
   67MOL   H11913451   4.889   2.887   4.425  0.0065  1.6074 -1.7334
   67MOL   H12013452   4.643   2.977   4.598 -0.2628  1.3129 -0.3294
   67MOL   H12113453   4.776   3.076   4.561 -1.9587  0.5987  2.9079
   67MOL   C12213454   4.834   2.915   4.688  1.2204 -0.5870 -0.2369
   67MOL   C12313455   4.796   2.987   4.822 -0.3841  0.3624 -0.8329
   67MOL   C12413456   4.826   2.938   4.942  0.4889 -0.0866  0.0267
   67MOL   C12513457   4.812   3.022   5.065  0.0150  0.0173 -0.2668
   67MOL   H12613458   4.814   2.808   4.694  2.4577 -0.9209 -1.6733
   67MOL   H12713459   4.938   2.934   4.662  0.9219 -0.2587 -1.2424
   67MOL   H12813460   4.769   3.091   4.809 -2.6762 -0.0402  0.4016
   67MOL   H12913461   4.856   2.835   4.949 -0.8891 -0.5022  0.0174
   67MOL   H13013462   4.727   2.978   5.118  0.5434  0.0244  0.5996
   67MOL   H13113463   4.763   3.118   5.050 -1.4022 -0.4457  1.1433
   67MOL   C13213464   4.945   3.021   5.154  0.0522  0.3303 -0.2053
   67MOL   C13313465   4.971   2.882   5.216  0.1309  0.0673 -0.3826
   67MOL   C13413466   5.087   2.811   5.200  0.0330 -0.9439  0.2230
   67MOL   C13513467   5.109   2.673   5.258  0.3007  0.7668  0.3378
   67MOL   H13613468   5.028   3.067   5.100  0.9061 -0.4988  0.4085
   67MOL   H13713469   4.936   3.079   5.246  2.2417  0.7822 -0.2516
   67MOL   H13813470   4.892   2.836   5.274  0.2065  0.6545  0.1788
   67MOL   H13913471   5.163   2.866   5.147  0.2461  0.2278  1.7192
   67MOL   H14013472   5.024   2.638   5.317 -0.4645 -0.2940 -1.3470
   67MOL   H14113473   5.193   2.688   5.326  0.9658 -2.9655  0.4428
   67MOL   C14213474   5.137   2.553   5.161 -0.5623  0.4330  0.0342
   67MOL   C14313475   5.268   2.578   5.086 -0.7991 -0.3850  0.3942
   67MOL   C14413476   5.378   2.499   5.074  0.0888  0.4460 -0.0485
   67MOL   C14513477   5.508   2.522   5.001 -0.4052 -0.3713  0.0944
   67MOL   H14613478   5.150   2.460   5.216 -1.2018 -0.2370 -0.9315
   67MOL   H14713479   5.055   2.530   5.093  0.1918  1.7666 -1.3733
   67MOL   H14813480   5.273   2.673   5.035 -1.5470  0.2791  1.5446
   67MOL   H14913481   5.365   2.409   5.133  0.3805  0.8717  0.6693
   67MOL   H15013482   5.513   2.625   4.964 -1.6580 -1.6269 -3.8028
   67MOL   H15113483   5.516   2.448   4.922  0.2441 -3.1858  2.7210
   67MOL   C15213484   5.621   2.494   5.108  0.2248 -0.1561 -0.0001
   67MOL   C15313485   5.613   2.362   5.180 -0.2162 -0.0647  0.0423
   67MOL   C15413486   5.590   2.342   5.311  0.6487  0.1829 -0.8255
   67MOL   C15513487   5.577   2.200   5.368  0.3215  0.5871  0.4781
   67MOL   H15613488   5.714   2.512   5.055 -0.7554  2.3719 -0.9536
   67MOL   H15713489   5.618   2.568   5.188  1.1125 -0.6518  0.5046
   67MOL   H15813490   5.636   2.276   5.119  0.2259  0.0534  0.0414
   67MOL   H15913491   5.570   2.420   5.383 -1.2482 -0.2930 -0.8179
   67MOL   H16013492   5.648   2.172   5.446 -1.0563 -1.3301  1.0999
   67MOL   H16113493   5.604   2.132   5.287 -0.8594  0.8943 -0.1722
   67MOL   C16213494   5.441   2.179   5.430  0.3510 -0.2265 -0.4019
   67MOL   C16313495   5.325   2.191   5.332  0.2227 -0.4041 -0.1863
   67MOL   C16413496   5.265   2.088   5.267 -0.1254  0.4283  0.0208
   67MOL   C16513497   5.135   2.104   5.191 -0.3532 -0.2268 -0.0548
   67MOL   H16613498   5.442   2.078   5.470 -1.7582  0.1783  0.7424
   67MOL   H16713499   5.422   2.250   5.511 -0.8661  0.8413 -1.6039
   67MOL   H16813500   5.287   2.291   5.316  1.2522  0.1449  0.6731
   67MOL   H16913501   5.305   1.990   5.288 -0.7729 -0.3680 -2.2215
   67MOL   H17013502   5.155   2.079   5.087  1.0890  0.2504  0.0924
   67MOL   H17113503   5.123   2.212   5.192  0.2036 -0.1645  1.0544
   67MOL   C17213504   5.027   2.010   5.243  0.2535 -0.7033  0.3168
   67MOL   C17313505   4.905   1.994   5.149  0.2990  0.8817  0.2038
   67MOL   C17413506   4.776   1.984   5.203 -0.4003  0.1490 -0.0596
   67MOL   C17513507   4.652   1.952   5.122 -0.6409 -0.9188 -0.6364
   67MOL   H17613508   5.069   1.911   5.265 -0.0755 -0.5100  1.9088
   67MOL   H17713509   5.001   2.046   5.343 -2.0822 -0.8432 -0.2232
   67MOL   H17813510   4.915   1.969   5.044  1.0282 -3.2056  1.1774
   67MOL   H17913511   4.762   2.006   5.308 -1.9286  1.2216 -0.4731
   67MOL   H18013512   4.565   1.968   5.186 -0.1265 -0.7068  0.0100
   67MOL   H18113513   4.657   1.844   5.115 -1.6302 -0.8267 -3.7934
   67MOL   C18213514   4.643   2.038   4.994  0.4187 -0.2873  0.2230
   67MOL   C18313515   4.511   2.020   4.910  0.5968  0.0449  0.5167
   67MOL   C18413516   4.438   1.911   4.918  0.4173 -0.1376 -0.2965
   67MOL   C18513517   4.323   1.880   4.835 -0.1728  0.3471 -0.6513
   67MOL   H18613518   4.648   2.143   5.021  1.3393  0.2877 -2.0485
   67MOL   H18713519   4.724   2.007   4.928  1.8610  0.3287  1.6833
   67MOL   H18813520   4.473   2.088   4.834 -0.8074 -2.7393 -1.3749
   67MOL   H18913521   4.468   1.834   4.986 -0.5335 -1.7863 -1.7099
   67MOL   H19013522   4.343   1.786   4.783  2.4043  0.9346 -0.7678
   67MOL   H19113523   4.325   1.958   4.758 -0.8277  1.0697  0.0473
   67MOL   C19213524   4.190   1.876   4.920 -0.5690  0.4071  0.0780
   67MOL   C19313525   4.054   1.829   4.858  0.3783 -0.2349  0.3354
   67MOL   C19413526   3.935   1.892   4.871 -0.1526  0.1235  0.1454
   67MOL   C19513527   3.797   1.846   4.825  0.3971 -0.5082  0.2637
   67MOL   H19613528   4.214   1.816   5.008 -0.7499  0.0872 -0.0928
   67MOL   H19713529   4.171   1.972   4.966  1.2715  0.4249  0.8688
   67MOL   H19813530   4.060   1.735   4.805 -1.6880  0.1008 -0.5759
   67MOL   H19913531   3.933   1.982   4.930  2.5766 -0.9057  1.8947
   67MOL   H20013532   3.721   1.847   4.904 -0.2367 -1.2014 -0.3332
   67MOL   H20113533   3.784   1.749   4.777  0.1476 -0.9096  1.1266
   67MOL   H20213534   3.764   1.915   4.748 -0.7889 -2.3634 -0.9460
   68MOL     C113535   5.903   2.275   1.396 -0.0810 -0.3029 -0.4273
   68MOL     C213536   6.014   2.230   1.309  0.1373  0.4614 -1.2427
   68MOL     C313537   5.997   2.154   1.198 -0.5321 -0.2727  0.3064
   68MOL     C413538   6.099   2.135   1.089 -0.5463 -0.1894 -0.1955
   68MOL     H513539   5.908   2.237   1.498 -1.0235  1.2245  0.2040
   68MOL     H613540   5.807   2.237   1.359 -1.1797  0.3856  1.6210
   68MOL     H713541   6.113   2.274   1.320  0.1585 -0.0458  0.7601
   68MOL     H813542   5.902   2.105   1.186 -0.7469  0.1649  0.2102
   68MOL     H913543   6.190   2.183   1.124 -0.5942 -0.1207 -0.1654
   68MOL    H1013544   6.057   2.182   1.000  2.2773 -0.3894 -1.6697
   68MOL    H1113545   5.899   2.384   1.401  1.9577 -0.1865 -0.8966
   68MOL    C1213546   6.122   1.982   1.066 -0.6567 -0.3824 -0.4310
   68MOL    C1313547   6.196   1.968   0.934  0.0244  0.2916  0.3373
   68MOL    C1413548   6.167   1.875   0.837  0.4887 -0.2442 -0.0746
   68MOL    C1513549   6.246   1.863   0.709 -0.1164  0.4497  0.7555
   68MOL    H1613550   6.171   1.933   1.150 -2.4926 -1.3782  0.0873
   68MOL    H1713551   6.024   1.938   1.045 -1.2438  0.6597  0.0721
   68MOL    H1813552   6.287   2.025   0.922 -0.8417  1.6017 -0.1181
   68MOL    H1913553   6.075   1.820   0.849 -0.0684  0.6166 -0.3889
   68MOL    H2013554   6.318   1.945   0.706  4.1877 -3.1694  1.4506
   68MOL    H2113555   6.198   1.901   0.619  1.6335  1.5275  0.2497
   68MOL    C2213556   6.332   1.739   0.705 -0.0197  0.0521 -0.1967
   68MOL    C2313557   6.271   1.613   0.654  0.2907  0.2218 -0.3910
   68MOL    C2413558   6.287   1.486   0.697  0.0312 -0.2790 -0.1477
   68MOL    C2513559   6.226   1.365   0.628  0.3054  0.1825  0.7476
   68MOL    H2613560   6.428   1.751   0.656  0.3560  1.3196  0.8168
   68MOL    H2713561   6.364   1.723   0.808 -1.8212 -0.5172  0.3016
   68MOL    H2813562   6.224   1.627   0.558 -0.2213 -0.4882 -0.2535
   68MOL    H2913563   6.334   1.471   0.793 -1.7897  1.0277  0.9665
   68MOL    H3013564   6.165   1.388   0.540 -0.9556  0.1060  1.5756
   68MOL    H3113565   6.162   1.309   0.696  1.7567 -3.4890 -0.7699
   68MOL    C3213566   6.348   1.267   0.601  0.1735  0.6210  0.4294
   68MOL    C3313567   6.320   1.127   0.559  0.5136 -0.2870 -0.2242
   68MOL    C3413568   6.365   1.020   0.625  1.0800  0.1916 -0.3836
   68MOL    C3513569   6.337   0.869   0.604  0.3159 -0.2923  0.4209
   68MOL    H3613570   6.414   1.305   0.523 -0.3934  0.6167 -0.0615
   68MOL    H3713571   6.405   1.260   0.694  3.6752  3.1344 -1.4166
   68MOL    H3813572   6.252   1.123   0.476  0.3587 -0.1479 -0.1053
   68MOL    H3913573   6.410   1.042   0.721 -1.7275  0.4640  0.9265
   68MOL    H4013574   6.274   0.864   0.515 -0.5740  2.4977  0.8499
   68MOL    H4113575   6.280   0.823   0.684  1.4045 -1.0004  0.8020
   68MOL    C4213576   6.469   0.800   0.577  0.9293  0.4086 -0.8474
   68MOL    C4313577   6.529   0.755   0.709  1.1057 -0.6597  0.0180
   68MOL    C4413578   6.645   0.802   0.764  0.5646 -0.6140 -0.2089
   68MOL    C4513579   6.697   0.761   0.903  0.5915 -0.1002  0.3654
   68MOL    H4613580   6.441   0.714   0.516  0.5886  0.8662 -1.3470
   68MOL    H4713581   6.542   0.851   0.514 -0.6648  1.7034 -1.6811
   68MOL    H4813582   6.468   0.690   0.770 -0.9931  0.7393 -0.5566
   68MOL    H4913583   6.700   0.881   0.717 -1.0999  1.0364  0.5355
   68MOL    H5013584   6.804   0.750   0.881  0.3773  0.6500 -1.0600
   68MOL    H5113585   6.663   0.665   0.941 -0.7874  0.4224  0.4547
   68MOL    C5213586   6.673   0.867   1.010 -0.0428 -0.0999 -0.4752
   68MOL    C5313587   6.724   0.830   1.149  0.1988 -0.2330 -0.5283
   68MOL    C5413588   6.821   0.877   1.231 -0.1096  0.1827  0.6260
   68MOL    C5513589   6.833   0.830   1.382 -0.6134 -0.3986 -0.2859
   68MOL    H5613590   6.697   0.970   0.982 -1.5863  0.4300  0.0759
   68MOL    H5713591   6.565   0.857   1.027  0.0586  0.1419  0.3353
   68MOL    H5813592   6.653   0.768   1.202  2.3967  1.1195  4.2928
   68MOL    H5913593   6.890   0.949   1.190 -0.2760 -0.9135 -1.6323
   68MOL    H6013594   6.936   0.808   1.410 -0.3878  0.8570 -0.0943
   68MOL    H6113595   6.784   0.734   1.396 -0.5653 -0.5561 -1.1952
   68MOL    C6213596   6.770   0.931   1.484 -0.0874  0.5723  0.3823
   68MOL    C6313597   6.770   0.889   1.625  0.2640  0.3296  0.1257
   68MOL    C6413598   6.824   0.957   1.725 -0.3503  0.3119 -0.3076
   68MOL    C6513599   6.822   0.923   1.869 -0.0202 -0.7825  0.0206
   68MOL    H6613600   6.826   1.024   1.472  1.7984 -0.6874 -0.8513
   68MOL    H6713601   6.663   0.943   1.468 -0.1679 -1.8313 -1.1972
   68MOL    H6813602   6.727   0.793   1.649  1.3429  0.3728  2.3076
   68MOL    H6913603   6.859   1.056   1.703 -1.0521  0.4714 -0.7161
   68MOL    H7013604   6.840   0.816   1.881  1.0423 -0.6134  0.0133
   68MOL    H7113605   6.720   0.946   1.900  0.3568  0.9864  0.0143
   68MOL    C7213606   6.933   0.999   1.944 -0.7007  0.0077  0.4167
   68MOL    C7313607   6.947   0.946   2.087 -0.6142  0.6592 -0.1826
   68MOL    C7413608   7.063   0.907   2.136  0.1703  0.5434 -1.0144
   68MOL    C7513609   7.073   0.844   2.275 -0.2028  0.0275 -0.4191
   68MOL    H7613610   7.022   0.965   1.892 -2.3229  0.4107 -2.7671
   68MOL    H7713611   6.918   1.106   1.936 -1.1968 -0.1504 -0.9502
   68MOL    H7813612   6.858   0.934   2.148  0.4962  1.5577  1.6654
   68MOL    H7913613   7.158   0.915   2.085  1.2047  1.4818  1.0251
   68MOL    H8013614   7.088   0.736   2.274  1.7096  0.2790 -0.2753
   68MOL    H8113615   6.981   0.867   2.329 -0.8788  3.8616 -2.9679
   68MOL    C8213616   7.192   0.878   2.356 -0.4045  0.1927  0.1119
   68MOL    C8313617   7.225   1.027   2.370  0.3766 -0.0873  1.0804
   68MOL    C8413618   7.217   1.095   2.480 -0.6501  0.0129 -0.5368
   68MOL    C8513619   7.261   1.239   2.491  0.3891 -0.3156 -0.0698
   68MOL    H8613620   7.192   0.823   2.450 -1.3068 -2.7084 -1.5161
   68MOL    H8713621   7.282   0.831   2.318 -1.6563 -2.1007 -0.0977
   68MOL    H8813622   7.256   1.082   2.282 -0.8514 -0.6914  0.2449
   68MOL    H8913623   7.184   1.046   2.570 -2.0967 -0.7976 -1.4820
   68MOL    H9013624   7.299   1.273   2.395  1.8202 -0.0984  0.5504
   68MOL    H9113625   7.341   1.251   2.565  0.6554 -2.5351  0.0423
   68MOL    C9213626   7.145   1.325   2.532  0.9030  0.0268  0.0582
   68MOL    C9313627   7.176   1.467   2.582  0.4568  0.5606  0.3711
   68MOL    C9413628   7.180   1.577   2.508  0.0214  0.3593 -0.3494
   68MOL    C9513629   7.203   1.716   2.567  0.7596 -0.2170  0.0021
   68MOL    H9613630   7.069   1.333   2.454 -0.0710  1.3579  1.1280
   68MOL    H9713631   7.099   1.271   2.614  1.7410 -1.5042 -0.4611
   68MOL    H9813632   7.188   1.472   2.689  0.7433  0.6961  0.3339
   68MOL    H9913633   7.165   1.567   2.401  1.7950 -0.0138 -0.5710
   68MOL   H10013634   7.237   1.707   2.670 -1.7748  3.0879  1.2074
   68MOL   H10113635   7.105   1.760   2.586  0.8081 -0.5540  1.0668
   68MOL   C10213636   7.296   1.804   2.481 -0.0489 -1.1270 -1.0104
   68MOL   C10313637   7.350   1.933   2.547  0.1566 -0.5734  0.1957
   68MOL   C10413638   7.453   2.011   2.500  0.6140 -1.0760 -0.1756
   68MOL   C10513639   7.477   2.147   2.556  0.0184 -0.1069 -0.3829
   68MOL   H10613640   7.384   1.752   2.442  3.5038  1.6882  2.8079
   68MOL   H10713641   7.246   1.838   2.390  1.8289  1.0929 -1.2902
   68MOL   H10813642   7.302   1.963   2.639 -1.2395 -0.8687 -0.4133
   68MOL   H10913643   7.502   1.986   2.406 -0.7913  1.4499 -1.6281
   68MOL   H11013644   7.580   2.167   2.583 -0.4249  0.0196  1.2983
   68MOL   H11113645   7.413   2.165   2.643  0.4753 -1.3789  0.2317
   68MOL   C11213646   7.441   2.253   2.449  0.1311  0.1495 -0.2902
   68MOL   C11313647   7.437   2.391   2.504 -0.1787  0.3120  0.6178
   68MOL   C11413648   7.471   2.500   2.432 -0.4350  0.2260  0.4053
   68MOL   C11513649   7.463   2.653   2.475 -0.8007  0.2587  0.4581
   68MOL   H11613650   7.507   2.247   2.363  1.5210 -1.6316  0.8550
   68MOL   H11713651   7.334   2.237   2.431  0.7189 -2.1768 -1.9106
   68MOL   H11813652   7.418   2.395   2.610  0.5799  0.2793  0.7615
   68MOL   H11913653   7.511   2.472   2.336  0.1166 -0.3582  0.8046
   68MOL   H12013654   7.394   2.651   2.560 -0.5965  1.0950  0.6474
   68MOL   H12113655   7.422   2.717   2.397 -0.8583  1.3836  1.4042
   68MOL   C12213656   7.608   2.695   2.513  0.0660 -0.5276  0.4194
   68MOL   C12313657   7.613   2.817   2.602  0.0970 -0.1493  1.1459
   68MOL   C12413658   7.665   2.820   2.728  0.7869 -0.7991  0.9158
   68MOL   C12513659   7.665   2.935   2.822 -0.3092 -0.5137 -0.1692
   68MOL   H12613660   7.661   2.611   2.559  0.4299 -1.5351 -1.8059
   68MOL   H12713661   7.660   2.726   2.422 -0.7105 -0.6298 -0.0573
   68MOL   H12813662   7.555   2.902   2.568  2.5754  1.9026  1.9287
   68MOL   H12913663   7.708   2.730   2.770  2.0935 -1.2410 -1.2291
   68MOL   H13013664   7.586   2.922   2.896 -0.1476 -3.0447 -0.4007
   68MOL   H13113665   7.650   3.028   2.767  1.2809 -0.6083 -0.7978
   68MOL   C13213666   7.791   2.939   2.909  0.1525 -0.1387  0.0486
   68MOL   C13313667   7.787   3.053   3.015 -0.0426 -0.0199  0.5682
   68MOL   C13413668   7.854   3.172   2.999  0.7173  0.6070 -0.3674
   68MOL   C13513669   7.855   3.283   3.098  0.0160  0.2645  0.1221
   68MOL   H13613670   7.819   2.847   2.960 -0.4684  1.5725  3.6520
   68MOL   H13713671   7.878   2.964   2.848 -0.2757 -0.9265 -0.8965
   68MOL   H13813672   7.723   3.036   3.100  0.1569  1.9929  1.1432
   68MOL   H13913673   7.932   3.176   2.924  1.9454 -0.0988  0.8468
   68MOL   H14013674   7.939   3.276   3.167 -0.3391  2.6470  0.8365
   68MOL   H14113675   7.764   3.271   3.157 -1.7927 -2.6828 -3.0973
   68MOL   C14213676   7.876   3.417   3.035  0.6231 -0.2834 -0.4204
   68MOL   C14313677   7.851   3.534   3.124  0.4288  0.0145  0.5798
   68MOL   C14413678   7.904   3.658   3.107  0.2002 -0.1568 -0.4955
   68MOL   C14513679   7.856   3.783   3.180  0.1092 -0.0427 -0.7542
   68MOL   H14613680   7.963   3.423   2.969  2.2685  2.4315  1.8934
   68MOL   H14713681   7.795   3.420   2.962  1.2070  1.0465 -1.0243
   68MOL   H14813682   7.769   3.518   3.192  0.2637  0.5699  0.5169
   68MOL   H14913683   0.007   3.665   3.035  1.4717  0.8051  0.9768
   68MOL   H15013684   7.810   3.843   3.101 -0.1591 -0.0279 -0.5873
   68MOL   H15113685   7.948   3.828   3.217 -0.1588 -0.2757  0.1937
   68MOL   C15213686   7.749   3.771   3.292  0.4712  0.1669  0.7839
   68MOL   C15313687   7.694   3.908   3.335  0.0093 -0.0272  0.0106
   68MOL   C15413688   7.710   3.968   3.456 -0.4097  0.0999 -0.1427
   68MOL   C15513689   7.652   4.106   3.488  0.0110 -0.1685  0.5854
   68MOL   H15613690   7.654   3.719   3.277  1.4372 -1.1435 -0.9552
   68MOL   H15713691   7.793   3.720   3.378 -0.2658 -0.9358  0.5165
   68MOL   H15813692   7.643   3.964   3.257  0.6004 -0.7576 -0.9154
   68MOL   H15913693   7.758   3.907   3.531  1.1953  1.6254  0.1115
   68MOL   H16013694   7.552   4.089   3.527  0.0859  1.1406  1.3711
   68MOL   H16113695   7.647   4.158   3.393 -1.1996 -1.2416  0.0418
   68MOL   C16213696   7.748   4.195   3.577 -0.0087  0.4031 -0.0676
   68MOL   C16313697   7.687   4.323   3.618  0.2919 -0.3929  0.1464
   68MOL   C16413698   7.686   4.376   3.740 -0.1529 -0.8572 -0.1761
   68MOL   C16513699   7.643   4.505   3.779 -0.0877 -0.1493  0.1760
   68MOL   H16613700   7.754   4.134   3.667  0.0534  1.4576  0.6552
   68MOL   H16713701   7.847   4.208   3.534  1.3298 -1.8625  2.1969
   68MOL   H16813702   7.654   4.380   3.532  1.0596 -0.4029 -0.1508
   68MOL   H16913703   7.721   4.310   3.818  0.8520  0.2972  0.3797
   68MOL   H17013704   7.602   4.555   3.691 -1.0527 -1.3282 -0.0565
   68MOL   H17113705   7.732   4.565   3.800 -0.0881 -0.3591  0.7793
   68MOL   C17213706   7.534   4.505   3.890  0.0994 -0.0086 -0.1167
   68MOL   C17313707   7.494   4.641   3.941  0.0543  0.8512  0.0885
   68MOL   C17413708   7.372   4.699   3.926  0.2616  0.0544  0.1117
   68MOL   C17513709   7.332   4.841   3.974 -0.4634  0.3780  0.7813
   68MOL   H17613710   7.446   4.447   3.864  0.8833 -1.1083 -0.3808
   68MOL   H17713711   7.584   4.453   3.972  3.0835  0.0216 -1.8453
   68MOL   H17813712   7.572   4.697   3.991  1.8137 -1.3831 -0.0608
   68MOL   H17913713   7.291   4.645   3.879 -0.9497  1.2723  0.7828
   68MOL   H18013714   7.398   4.890   4.045  0.4902  2.9652 -1.7728
   68MOL   H18113715   7.237   4.826   4.026 -0.0437 -0.9492  1.1861
   68MOL   C18213716   7.317   4.942   3.868  0.1000 -0.3916 -0.0443
   68MOL   C18313717   7.291   5.078   3.914  0.3189  0.2063 -0.3946
   68MOL   C18413718   7.199   5.160   3.867  0.6051  0.8968 -0.2729
   68MOL   C18513719   7.162   5.298   3.925  0.0053 -0.0652 -0.7018
   68MOL   H18613720   7.416   4.956   3.823  0.8862 -0.2767  1.6744
   68MOL   H18713721   7.242   4.927   3.790  0.5833 -0.7267 -0.4543
   68MOL   H18813722   7.342   5.114   4.002 -0.8495  0.8101  0.0442
   68MOL   H18913723   7.136   5.137   3.782 -1.1993  1.1506  0.9523
   68MOL   H19013724   7.153   5.285   4.033 -1.3941  0.1452 -0.7870
   68MOL   H19113725   7.062   5.326   3.891 -0.9234  0.1405  2.0237
   68MOL   C19213726   7.277   5.405   3.912  0.5133  0.3777 -0.1787
   68MOL   C19313727   7.328   5.432   3.769 -0.0994  0.4029 -0.5609
   68MOL   C19413728   7.440   5.372   3.736  0.0446 -0.5050 -0.0202
   68MOL   C19513729   7.509   5.393   3.603 -0.0797 -0.2004 -0.2322
   68MOL   H19613730   7.254   5.501   3.959  0.6882  0.3190  0.0264
   68MOL   H19713731   7.363   5.367   3.966 -0.1894 -0.4663  0.3583
   68MOL   H19813732   7.272   5.496   3.703  0.0122  0.3443 -0.7122
   68MOL   H19913733   7.494   5.307   3.803 -0.0182  0.8109  1.3360
   68MOL   H20013734   7.609   5.432   3.621 -0.1856 -0.0085 -0.0482
   68MOL   H20113735   7.450   5.456   3.537  0.1200 -0.1232 -0.3360
   68MOL   H20213736   7.523   5.297   3.554  1.8035  0.3880 -0.9044
   69MOL     C113737   7.222   2.430   5.495 -0.3904 -0.2345 -0.0430
   69MOL     C213738   7.273   2.319   5.579 -0.4673  0.4437  0.0367
   69MOL     C313739   7.228   2.192   5.582  0.0914 -0.2837 -0.2331
   69MOL     C413740   7.276   2.067   5.651  0.7144  0.4043 -0.0610
   69MOL     H513741   7.276   2.423   5.400 -2.1368  0.4173 -1.1130
   69MOL     H613742   7.243   2.527   5.539  1.7761 -0.7725  0.1574
   69MOL     H713743   7.365   2.329   5.636  0.3276  2.3224 -1.5491
   69MOL     H813744   7.134   2.178   5.531 -0.4528  2.5598 -0.1149
   69MOL     H913745   7.204   2.034   5.725 -0.7085  0.6445 -1.2999
   69MOL    H1013746   7.362   2.093   5.712  0.3417  0.4681  0.4363
   69MOL    H1113747   7.114   2.423   5.480 -0.2307  1.3173 -2.1759
   69MOL    C1213748   7.315   1.949   5.562  0.4452  0.0164  0.0361
   69MOL    C1313749   7.367   1.833   5.638 -0.2139 -0.1974  0.8012
   69MOL    C1413750   7.492   1.792   5.611 -0.4220  0.2766 -0.2937
   69MOL    C1513751   7.560   1.676   5.678  0.6483 -0.9401  0.0594
   69MOL    H1613752   7.240   1.913   5.491  2.1240 -1.1178 -1.1888
   69MOL    H1713753   7.389   1.988   5.493  1.3610 -1.4763  0.1647
   69MOL    H1813754   7.303   1.783   5.709 -1.5571 -1.5633 -1.3070
   69MOL    H1913755   7.550   1.824   5.526  0.3243 -2.0906 -0.7131
   69MOL    H2013756   7.500   1.632   5.757 -0.7388  0.3187 -0.2822
   69MOL    H2113757   7.655   1.708   5.722  0.2050  1.2675 -0.4905
   69MOL    C2213758   7.590   1.567   5.573  0.3766 -0.4346  0.2210
   69MOL    C2313759   7.710   1.581   5.485 -1.1389  0.1641 -0.5544
   69MOL    C2413760   7.795   1.690   5.484  0.3563  0.7511 -0.4932
   69MOL    C2513761   7.923   1.692   5.403 -0.1957 -0.5542 -0.1516
   69MOL    H2613762   7.580   1.469   5.619 -2.2010  1.0940  3.1294
   69MOL    H2713763   7.504   1.556   5.507  0.0572  0.0971  0.5443
   69MOL    H2813764   7.732   1.496   5.423 -1.2273 -0.2279 -0.0465
   69MOL    H2913765   7.773   1.772   5.550  0.1344  1.0096 -0.8875
   69MOL    H3013766   7.927   1.615   5.327 -0.2902  0.6824 -1.4290
   69MOL    H3113767   0.033   1.689   5.468 -0.2092 -0.7412 -0.1432
   69MOL    C3213768   7.933   1.829   5.339  0.9277  0.1569  0.1256
   69MOL    C3313769   7.974   1.932   5.439  0.8448 -0.3145 -0.7329
   69MOL    C3413770   0.101   2.017   5.425  1.2445 -0.3214  1.1863
   69MOL    C3513771   0.122   2.133   5.515  0.5457  0.6670  0.3622
   69MOL    H3613772   0.029   1.829   5.258  1.7458  1.3979  0.8378
   69MOL    H3713773   7.842   1.857   5.286 -1.0386 -0.8895  2.8078
   69MOL    H3813774   7.895   1.947   5.511  1.3133 -0.3974 -0.1983
   69MOL    H3913775   0.161   1.999   5.337 -1.7252 -0.0024 -0.9823
   69MOL    H4013776   0.065   2.129   5.607 -1.9252  2.2111 -1.0491
   69MOL    H4113777   0.082   2.215   5.455 -0.9571  0.5897  1.2408
   69MOL    C4213778   0.274   2.140   5.543  0.0926 -0.2106 -0.7161
   69MOL    C4313779   0.307   2.239   5.657  0.7488 -0.1916  0.2986
   69MOL    C4413780   0.349   2.370   5.639 -0.1673  0.7474 -0.2010
   69MOL    C4513781   0.382   2.458   5.756 -0.2559 -0.3857  0.8101
   69MOL    H4613782   0.312   2.041   5.569 -1.5504 -0.5855  0.2747
   69MOL    H4713783   0.331   2.174   5.456  1.4753  1.5110  0.8056
   69MOL    H4813784   0.290   2.200   5.756  3.0966  0.0116  0.8199
   69MOL    H4913785   0.375   2.419   5.547  1.4568 -0.3254 -0.3379
   69MOL    H5013786   0.475   2.509   5.731 -0.8807  0.5029  0.2843
   69MOL    H5113787   0.400   2.400   5.846  0.0190 -1.7272 -0.0850
   69MOL    C5213788   0.266   2.553   5.775  0.0033 -0.2059 -0.2767
   69MOL    C5313789   0.300   2.653   5.888  0.5445  0.4685 -0.0362
   69MOL    C5413790   0.306   2.787   5.878  1.0792 -0.3025  0.0611
   69MOL    C5513791   0.359   2.877   5.990  0.0841  1.0131 -0.6006
   69MOL    H5613792   0.233   2.606   5.686 -0.9982 -2.7318 -1.4497
   69MOL    H5713793   0.178   2.494   5.800  1.5003 -2.1566  0.5083
   69MOL    H5813794   0.324   2.620   5.988  2.2401  1.2928 -0.1385
   69MOL    H5913795   0.290   2.841   5.787 -2.0668  0.0238  0.7554
   69MOL    H6013796   0.372   2.815   6.079  0.3620  2.0026  0.0515
   69MOL    H6113797   0.275   2.943   6.013  0.2096  0.7361  0.7196
   69MOL    C6213798   0.485   2.963   5.976  0.7490 -0.2896  0.6362
   69MOL    C6313799   0.616   2.884   5.976 -0.3527 -0.2078 -0.1091
   69MOL    C6413800   0.628   2.746   5.982 -0.1880  0.5563 -0.5778
   69MOL    C6513801   0.763   2.661   5.975  0.5765 -0.2347  0.8675
   69MOL    H6613802   0.473   3.023   5.887  1.6380  0.6662  1.1471
   69MOL    H6713803   0.481   3.032   6.060 -0.5231 -0.1781  0.4818
   69MOL    H6813804   0.703   2.948   5.977  0.6630 -1.5660  1.1610
   69MOL    H6913805   0.544   2.679   5.998  1.0403 -1.0069 -0.4867
   69MOL    H7013806   0.801   2.636   6.074  0.7070  0.0034  0.8800
   69MOL    H7113807   0.843   2.721   5.930  0.1487 -2.0860 -2.4544
   69MOL    C7213808   0.758   2.531   5.894  0.4237  0.2135  0.1015
   69MOL    C7313809   0.880   2.447   5.905 -0.4646  1.0814 -0.6153
   69MOL    C7413810   0.872   2.314   5.923  0.4844  0.1541  0.6073
   69MOL    C7513811   0.984   2.217   5.928 -0.1089  0.1275 -0.3679
   69MOL    H7613812   0.672   2.471   5.925 -2.1634  3.2168 -1.0349
   69MOL    H7713813   0.741   2.559   5.790 -1.4646 -0.6260  0.1487
   69MOL    H7813814   0.972   2.501   5.888  0.7184 -0.8135 -0.2872
   69MOL    H7913815   0.777   2.264   5.934 -0.6965  1.9769 -0.9449
   69MOL    H8013816   0.983   2.165   6.024 -1.8950 -1.1713 -1.0670
   69MOL    H8113817   1.077   2.273   5.924 -0.1165  0.1857  0.1929
   69MOL    C8213818   0.980   2.119   5.807  0.0066  0.3498 -0.0013
   69MOL    C8313819   1.101   2.028   5.809 -0.3377 -0.2288  0.0843
   69MOL    C8413820   1.180   2.005   5.702 -0.0562 -0.3678 -0.0335
   69MOL    C8513821   1.310   1.920   5.695  0.4024 -0.6357  0.3557
   69MOL    H8613822   0.894   2.053   5.796  1.6868 -2.0693  0.7833
   69MOL    H8713823   0.978   2.178   5.716 -0.0957  1.1673  0.5245
   69MOL    H8813824   1.132   1.976   5.899 -0.7983 -0.0523  0.3464
   69MOL    H8913825   1.164   2.055   5.608 -2.0738  0.4274  0.6898
   69MOL    H9013826   1.346   1.885   5.793 -0.2309 -1.1920  0.3926
   69MOL    H9113827   1.393   1.988   5.678 -0.3854 -0.3974 -2.8026
   69MOL    C9213828   1.309   1.812   5.588  0.4494  0.3868  0.0211
   69MOL    C9313829   1.437   1.735   5.573 -0.5986  0.3314 -0.1619
   69MOL    C9413830   1.456   1.602   5.584 -0.8313 -0.0101 -0.3019
   69MOL    C9513831   1.591   1.530   5.565  0.0438 -0.7659 -0.4602
   69MOL    H9613832   1.229   1.742   5.614  1.6411 -0.8086  0.5112
   69MOL    H9713833   1.285   1.855   5.490  0.1585 -0.0400 -0.0983
   69MOL    H9813834   1.519   1.797   5.542  0.6430 -1.4079 -0.4377
   69MOL    H9913835   1.377   1.534   5.616  0.1719 -1.1772 -0.2586
   69MOL   H10013836   1.627   1.495   5.662  0.4909  2.5623  0.6492
   69MOL   H10113837   1.675   1.597   5.544 -0.2174  0.2108  1.4849
   69MOL   C10213838   1.571   1.411   5.469  0.0613 -0.4034 -0.9393
   69MOL   C10313839   1.699   1.341   5.432 -1.0510  0.1949  0.3764
   69MOL   C10413840   1.738   1.316   5.304 -0.4384  0.4017  0.2334
   69MOL   C10513841   1.861   1.235   5.257  0.0977 -0.5594  0.3564
   69MOL   H10613842   1.517   1.330   5.516 -0.1048  0.2305 -0.0189
   69MOL   H10713843   1.502   1.438   5.389 -0.7105  0.3876 -0.0187
   69MOL   H10813844   1.764   1.304   5.511 -0.9000 -1.2705 -0.4275
   69MOL   H10913845   1.669   1.355   5.230 -0.1256 -1.5326 -1.1380
   69MOL   H11013846   1.916   1.218   5.350  0.6981  2.8036  0.6947
   69MOL   H11113847   1.929   1.287   5.190  0.1665 -2.3656 -0.9986
   69MOL   C11213848   1.812   1.100   5.203  0.1935 -0.4841 -1.0102
   69MOL   C11313849   1.938   1.021   5.183  0.2919 -0.4356 -0.4417
   69MOL   C11413850   1.984   0.921   5.268 -1.0083 -0.5295 -0.0994
   69MOL   C11513851   2.121   0.856   5.250 -0.3656 -0.3423 -0.3367
   69MOL   H11613852   1.740   1.046   5.264  0.1959 -0.1213 -0.6826
   69MOL   H11713853   1.761   1.124   5.110 -0.4150 -1.8948 -1.0592
   69MOL   H11813854   1.998   1.045   5.096 -0.3743  1.0001 -0.5204
   69MOL   H11913855   1.938   0.887   5.360 -1.7933 -0.4429 -0.4522
   69MOL   H12013856   2.165   0.901   5.161  0.2193  2.3908  1.2571
   69MOL   H12113857   2.096   0.754   5.223  1.1348 -0.6070 -0.7434
   69MOL   C12213858   2.215   0.870   5.372 -0.0728  0.2896  0.0269
   69MOL   C12313859   2.216   1.018   5.406 -0.6797 -0.2494 -0.8717
   69MOL   C12413860   2.206   1.062   5.538  0.3451 -0.0326 -0.0475
   69MOL   C12513861   2.192   1.207   5.567  0.0298  0.3717 -0.2143
   69MOL   H12613862   2.164   0.817   5.452  0.8124  0.2393  0.5575
   69MOL   H12713863   2.314   0.833   5.347  0.6194  1.3801  1.1085
   69MOL   H12813864   2.219   1.097   5.333 -1.1697  2.2778  1.7632
   69MOL   H12913865   2.221   0.997   5.622 -0.3143 -1.6960 -1.2044
   69MOL   H13013866   2.192   1.256   5.470 -1.3521 -1.1319 -0.9897
   69MOL   H13113867   2.283   1.242   5.615 -1.1312  1.8760  0.9705
   69MOL   C13213868   2.075   1.254   5.651  0.4454  0.2361 -0.4598
   69MOL   C13313869   2.062   1.400   5.679 -0.3195 -0.3592  0.3185
   69MOL   C13413870   2.150   1.495   5.649 -0.4856 -0.3218 -0.2054
   69MOL   C13513871   2.131   1.642   5.691 -0.4887  0.4388  0.4787
   69MOL   H13613872   1.978   1.236   5.604  1.2651 -1.7398 -1.4795
   69MOL   H13713873   2.080   1.192   5.741 -1.1264 -1.0202 -1.1946
   69MOL   H13813874   1.974   1.424   5.736 -0.6465  0.5004 -0.5339
   69MOL   H13913875   2.239   1.470   5.593 -0.9359  0.1891 -1.1700
   69MOL   H14013876   2.036   1.659   5.741 -0.7054 -0.6668  0.4631
   69MOL   H14113877   2.127   1.700   5.599 -0.2600  1.5022  1.1274
   69MOL   C14213878   2.242   1.689   5.777 -0.4564  0.1485 -1.0288
   69MOL   C14313879   2.212   1.817   5.848  0.0975 -0.4624  0.7082
   69MOL   C14413880   2.312   1.905   5.866  0.0997 -0.5192 -0.4194
   69MOL   C14513881   2.296   2.040   5.929  0.2426  0.8608  0.7359
   69MOL   H14613882   2.257   1.608   5.848 -0.1275 -1.2258 -2.6119
   69MOL   H14713883   2.330   1.696   5.713 -0.8625  0.9802 -1.5070
   69MOL   H14813884   2.108   1.836   5.868 -0.0496  0.6105 -1.0072
   69MOL   H14913885   2.410   1.873   5.835  0.9122  1.5023 -0.0201
   69MOL   H15013886   2.383   2.055   5.992  0.2104 -1.7777  1.5007
   69MOL   H15113887   2.204   2.055   5.986 -0.4895 -1.8221  0.3707
   69MOL   C15213888   2.316   2.136   5.816 -0.6803  0.1295  0.1243
   69MOL   C15313889   2.306   2.287   5.850 -0.4735 -0.0899 -0.6112
   69MOL   C15413890   2.382   2.352   5.936 -0.3857  0.7146 -0.6812
   69MOL   C15513891   2.393   2.502   5.954 -0.1986  0.1232 -0.6632
   69MOL   H15613892   2.407   2.112   5.762 -0.7058 -1.9995  0.9842
   69MOL   H15713893   2.222   2.125   5.762 -2.1493 -0.9348  2.7684
   69MOL   H15813894   2.237   2.347   5.792  0.2267 -0.0252 -1.3860
   69MOL   H15913895   2.448   2.292   5.998 -1.3532 -0.8934 -1.1716
   69MOL   H16013896   2.315   2.555   5.900  1.6769  0.6484 -2.9580
   69MOL   H16113897   2.481   2.549   5.910 -1.3588  1.6436 -1.3948
   69MOL   C16213898   2.375   2.540   6.102  0.5226 -0.1969  0.3829
   69MOL   C16313899   2.391   2.686   6.132 -0.0999  0.4288 -0.1394
   69MOL   C16413900   2.446   2.730   6.249 -0.3767 -1.1883  0.3353
   69MOL   C16513901   2.450   2.879   6.283 -1.0181 -0.3981 -0.7361
   69MOL   H16613902   2.281   2.499   6.137 -0.5580  2.3525  0.5352
   69MOL   H16713903   2.451   2.480   6.153  1.9631  0.7732 -0.5685
   69MOL   H16813904   2.341   2.746   6.058  0.1124  1.3795  0.4906
   69MOL   H16913905   2.487   2.661   6.321  0.1257 -2.0096 -0.7181
   69MOL   H17013906   2.365   2.928   6.234 -0.6188 -0.4103 -1.4454
   69MOL   H17113907   2.538   2.925   6.239 -0.4306 -1.4705 -0.6860
   69MOL   C17213908   2.431   2.906   6.434  0.6575 -0.2515  0.1009
   69MOL   C17313909   2.550   2.850   6.531  0.8326  0.3359  0.6547
   69MOL   C17413910   2.661   2.778   6.502 -0.0856  0.6795 -0.5925
   69MOL   C17513911   2.766   2.739   6.602 -0.0626 -0.2952 -0.0622
   69MOL   H17613912   2.424   3.015   6.439 -3.9833 -0.3315 -2.2570
   69MOL   H17713913   2.334   2.875   6.471  1.0729  1.2661  2.6079
   69MOL   H17813914   2.534   2.887   6.631  0.9911 -0.2313  0.8894
   69MOL   H17913915   2.678   2.742   6.401 -1.3939 -4.6267  0.9426
   69MOL   H18013916   2.739   2.782   6.698 -2.3429 -1.3190 -0.2280
   69MOL   H18113917   2.866   2.784   6.597  0.0180 -0.0794  2.7118
   69MOL   C18213918   2.787   2.588   6.615 -1.3001 -0.4533  0.9918
   69MOL   C18313919   2.875   2.565   6.735  0.1873  0.6461  0.3513
   69MOL   C18413920   2.830   2.535   6.858  0.8765  0.0561  0.1087
   69MOL   C18513921   2.924   2.499   6.974 -0.6830  0.4518  0.4887
   69MOL   H18613922   2.694   2.532   6.621 -1.6746  0.3033  2.4545
   69MOL   H18713923   2.838   2.552   6.525  0.4374 -0.4422  1.9365
   69MOL   H18813924   2.980   2.579   6.717  0.5840 -1.1711  1.0743
   69MOL   H18913925   2.724   2.525   6.877  1.1294  0.0329  1.5828
   69MOL   H19013926   3.024   2.469   6.944 -0.6392  2.0919 -1.1075
   69MOL   H19113927   2.886   2.404   7.012  0.7970  0.0569  1.0167
   69MOL   C19213928   2.938   2.590   7.089  0.3210 -0.2088  0.3959
   69MOL   C19313929   2.803   2.622   7.151 -0.1073 -0.6318  0.6838
   69MOL   C19413930   2.754   2.554   7.254  0.1263  0.4102  0.2216
   69MOL   C19513931   2.606   2.585   7.307  0.1234  0.3504 -0.0898
   69MOL   H19613932   2.998   2.545   7.168 -1.1930  1.0106  2.3183
   69MOL   H19713933   2.989   2.679   7.053  1.3032 -0.2322  1.6796
   69MOL   H19813934   2.745   2.692   7.093  1.7056  0.3002 -0.0811
   69MOL   H19913935   2.809   2.478   7.307  4.6327  0.8879 -3.4275
   69MOL   H20013936   2.622   2.619   7.409  0.2523  0.6009 -0.1921
   69MOL   H20113937   2.552   2.491   7.307 -0.0689  0.4592 -0.1000
   69MOL   H20213938   2.559   2.657   7.239 -0.9662  0.5002  0.8159
   70MOL     C113939   5.683   4.882   2.964 -0.5689 -0.1565 -0.2097
   70MOL     C213940   5.809   4.900   2.892  0.3234  0.2801 -0.1782
   70MOL     C313941   5.923   4.913   2.956  0.1918  0.0197  0.6999
   70MOL     C413942   6.059   4.929   2.896 -0.6306  0.2055 -0.4570
   70MOL     H513943   5.647   4.783   2.934 -5.1848  1.8843 -1.8116
   70MOL     H613944   5.603   4.955   2.955  1.0999  1.6006 -0.9224
   70MOL     H713945   5.806   4.926   2.787  2.4384  1.1192 -0.0507
   70MOL     H813946   5.926   4.903   3.064  0.1072  0.0603  0.7058
   70MOL     H913947   6.104   5.019   2.937  1.0796 -1.0356  0.4457
   70MOL    H1013948   6.061   4.939   2.787  0.0978 -1.4164 -0.6059
   70MOL    H1113949   5.716   4.872   3.068  2.2437  3.4491 -0.6694
   70MOL    C1213950   6.165   4.826   2.936 -0.6133  0.6795 -0.1514
   70MOL    C1313951   6.307   4.855   2.890 -0.8166 -0.4109  0.7075
   70MOL    C1413952   6.382   4.771   2.819 -0.2869  0.2310  0.4754
   70MOL    C1513953   6.519   4.796   2.761  1.2870  0.2591 -0.1505
   70MOL    H1613954   6.164   4.806   3.043  0.6914 -1.6794 -0.5653
   70MOL    H1713955   6.137   4.728   2.896 -1.3689  1.0308 -0.5018
   70MOL    H1813956   6.338   4.956   2.911 -0.9597 -0.2992  0.3954
   70MOL    H1913957   6.341   4.672   2.807 -0.0215  0.0599  0.9753
   70MOL    H2013958   6.526   4.898   2.724 -0.4196 -0.2438 -1.9600
   70MOL    H2113959   6.528   4.730   2.675  0.5182  0.5274 -0.4380
   70MOL    C2213960   6.631   4.762   2.854  0.3741  0.7986  0.0968
   70MOL    C2313961   6.771   4.795   2.803  0.2491 -0.0889  0.6614
   70MOL    C2413962   6.798   4.861   2.693  0.0984  0.1568 -0.0986
   70MOL    C2513963   6.941   4.904   2.638 -0.2285 -0.7899 -0.2711
   70MOL    H2613964   6.613   4.825   2.941 -0.2734 -0.3384  0.8008
   70MOL    H2713965   6.626   4.658   2.886 -0.3909  0.4360 -1.1826
   70MOL    H2813966   6.855   4.766   2.864  0.2499 -3.4635 -0.8208
   70MOL    H2913967   6.719   4.901   2.630  0.3829  0.1986 -0.4329
   70MOL    H3013968   6.930   5.010   2.620 -2.4894 -0.9319  0.1278
   70MOL    H3113969   6.941   4.867   2.536 -1.0082  2.3694 -1.4581
   70MOL    C3213970   7.059   4.872   2.732 -0.5908 -0.0102  0.2500
   70MOL    C3313971   7.196   4.886   2.665 -0.1293  0.2492 -0.5398
   70MOL    C3413972   7.297   4.950   2.726 -1.1834  0.1770 -0.0118
   70MOL    C3513973   7.441   4.955   2.688 -0.2207  0.0556  0.1516
   70MOL    H3613974   7.049   4.923   2.827  0.1091  0.0329  0.3045
   70MOL    H3713975   7.057   4.764   2.747 -1.7725  0.0317  0.4052
   70MOL    H3813976   7.216   4.830   2.575 -0.2040 -2.1190  0.8753
   70MOL    H3913977   7.263   5.009   2.810 -0.9032  1.0361 -0.4962
   70MOL    H4013978   7.458   5.062   2.701  1.7415 -0.4836  2.3578
   70MOL    H4113979   7.449   4.937   2.581 -1.6800 -1.0108  0.2177
   70MOL    C4213980   7.538   4.865   2.763 -0.4143  0.2078  0.6668
   70MOL    C4313981   7.686   4.892   2.733  0.1178 -0.7047  1.0439
   70MOL    C4413982   7.778   4.796   2.693  0.1480 -0.5023 -0.1952
   70MOL    C4513983   7.924   4.825   2.675  0.0807  0.1645  0.0475
   70MOL    H4613984   7.540   4.861   2.872  2.8622 -1.4317  0.6059
   70MOL    H4713985   7.516   4.762   2.738  0.2958  0.4099 -0.8443
   70MOL    H4813986   7.722   4.992   2.749  1.7881 -1.1568  0.2157
   70MOL    H4913987   7.747   4.696   2.665 -1.2392  0.4507 -2.2049
   70MOL    H5013988   0.012   4.785   2.752 -0.0450 -0.2883 -0.0809
   70MOL    H5113989   7.931   4.932   2.691 -4.1439  0.8625 -2.0178
   70MOL    C5213990   0.001   4.785   2.537  0.1524 -1.0142 -0.2674
   70MOL    C5313991   0.142   4.829   2.501  0.2880  0.7025  0.3804
   70MOL    C5413992   0.192   4.829   2.377 -0.2784  0.3059  0.5201
   70MOL    C5513993   0.331   4.884   2.336 -0.2092  0.4168  0.0755
   70MOL    H5613994   0.008   4.677   2.531  0.8073 -1.0401  0.9236
   70MOL    H5713995   7.907   4.815   2.459 -0.3700  0.6359  0.8068
   70MOL    H5813996   0.203   4.863   2.583 -1.9189 -0.6352  2.6610
   70MOL    H5913997   0.120   4.816   2.298  0.1364  0.7639  0.0603
   70MOL    H6013998   0.379   4.938   2.419 -0.8055  0.2912  0.5087
   70MOL    H6113999   0.317   4.956   2.255  0.3245 -2.2013 -2.4122
   70MOL    C6214000   0.424   4.768   2.290 -0.9413 -0.2981 -0.3528
   70MOL    C6314001   0.557   4.809   2.238 -0.0121  0.7618  0.6008
   70MOL    C6414002   0.669   4.747   2.285 -1.2550  0.1775  0.0440
   70MOL    C6514003   0.819   4.782   2.251 -0.0936  0.0818 -0.1180
   70MOL    H6614004   0.443   4.696   2.369 -2.6525 -0.1632  0.1930
   70MOL    H6714005   0.375   4.705   2.216 -0.9752  1.6671 -2.0572
   70MOL    H6814006   0.558   4.889   2.166 -0.6669  0.0319 -0.2203
   70MOL    H6914007   0.660   4.672   2.363  3.3653 -0.6235 -0.0429
   70MOL    H7014008   0.881   4.703   2.294  0.3071  0.9087  0.8483
   70MOL    H7114009   0.857   4.871   2.301  0.6828 -0.0448 -0.4757
   70MOL    C7214010   0.845   4.763   2.105  0.3625 -0.4776 -0.0940
   70MOL    C7314011   0.987   4.799   2.064 -0.6367 -0.7293 -0.2534
   70MOL    C7414012   1.019   4.892   1.970  0.9278 -0.4614 -0.3057
   70MOL    C7514013   1.162   4.933   1.939 -0.0691  0.6269 -0.3700
   70MOL    H7614014   0.829   4.660   2.072  0.4118 -0.5987  0.2688
   70MOL    H7714015   0.772   4.815   2.043  0.4486 -2.1084 -1.6314
   70MOL    H7814016   1.073   4.768   2.122  1.0789  0.7882 -1.9102
   70MOL    H7914017   0.935   4.930   1.914  1.4287  0.9978 -0.0753
   70MOL    H8014018   1.200   4.890   1.846 -0.5235 -1.0158  0.1836
   70MOL    H8114019   1.214   4.880   2.019 -0.0936 -0.2827 -0.9407
   70MOL    C8214020   1.185   5.082   1.944 -0.3731 -0.3268 -0.1183
   70MOL    C8314021   1.330   5.125   1.983 -0.3655  0.4505 -0.5203
   70MOL    C8414022   1.426   5.135   1.890  0.6457  0.0762 -0.4028
   70MOL    C8514023   1.572   5.167   1.922 -0.2698  0.2217 -0.3268
   70MOL    H8614024   1.164   5.137   1.853  0.1107 -0.3904 -0.2713
   70MOL    H8714025   1.129   5.128   2.026  1.8236  2.8141 -0.3151
   70MOL    H8814026   1.359   5.125   2.087  1.1008  2.3260 -0.8993
   70MOL    H8914027   1.396   5.118   1.788  1.7987  0.6985 -0.8482
   70MOL    H9014028   1.622   5.071   1.907  0.5561  0.1709  2.5421
   70MOL    H9114029   1.595   5.192   2.025 -1.0365  0.5827 -0.2440
   70MOL    C9214030   1.623   5.279   1.836  0.0847 -0.5601  0.2761
   70MOL    C9314031   1.607   5.253   1.686  0.2378  0.8369  0.4672
   70MOL    C9414032   1.712   5.247   1.603  0.0044 -0.0988 -0.2390
   70MOL    C9514033   1.716   5.205   1.451  0.4180  0.5881 -0.1741
   70MOL    H9614034   1.568   5.371   1.854  2.4699  0.7957  0.8989
   70MOL    H9714035   1.729   5.294   1.854  0.2964  0.0858 -1.4068
   70MOL    H9814036   1.505   5.234   1.657  1.2854 -2.6452 -1.1634
   70MOL    H9914037   1.812   5.251   1.642  0.2087  2.7674 -0.8944
   70MOL   H10014038   1.613   5.182   1.425  0.3997  2.3651 -1.8006
   70MOL   H10114039   1.778   5.119   1.427 -2.2224 -1.1957 -0.7847
   70MOL   C10214040   1.745   5.329   1.367 -0.0054 -0.3073 -0.2939
   70MOL   C10314041   1.766   5.305   1.215 -0.0936  0.6732  0.2599
   70MOL   C10414042   1.693   5.216   1.139 -0.5846 -0.3968 -0.6654
   70MOL   C10514043   1.702   5.216   0.987  0.3793  0.7303 -0.4086
   70MOL   H10614044   1.675   5.412   1.383  0.6189 -0.0510  1.1895
   70MOL   H10714045   1.845   5.364   1.394 -0.8398  1.9855 -0.0454
   70MOL   H10814046   1.843   5.355   1.158  1.2138 -0.9800  0.5259
   70MOL   H10914047   1.614   5.165   1.191  0.3858  1.1707  2.5000
   70MOL   H11014048   1.806   5.232   0.960  0.8647  0.5024  1.2600
   70MOL   H11114049   1.639   5.295   0.947 -0.0600 -0.9353 -3.1195
   70MOL   C11214050   1.653   5.081   0.937  0.0137 -0.2603  0.0618
   70MOL   C11314051   1.625   5.079   0.785 -0.2579  0.4074  0.1245
   70MOL   C11414052   1.689   4.994   0.701  0.1093 -0.0153  0.1893
   70MOL   C11514053   1.673   5.000   0.552  0.1383  0.1961  0.6189
   70MOL   H11614054   1.724   4.999   0.951  1.9744  1.2930 -0.6283
   70MOL   H11714055   1.561   5.056   0.990  0.3609 -1.3936  0.1458
   70MOL   H11814056   1.560   5.158   0.751  0.1326  0.0422 -1.4994
   70MOL   H11914057   1.761   4.921   0.733 -0.4229 -0.7691 -0.3291
   70MOL   H12014058   1.614   5.086   0.520  0.1666  0.6943  1.8769
   70MOL   H12114059   1.623   4.912   0.511  1.3138  0.3697 -1.2947
   70MOL   C12214060   1.799   5.006   0.461 -0.4112 -0.1787 -0.3692
   70MOL   C12314061   1.888   5.127   0.488  0.4011  0.0428 -0.8838
   70MOL   C12414062   1.886   5.243   0.420 -0.3603 -0.0922 -0.3985
   70MOL   C12514063   1.979   5.361   0.445  0.1329 -0.4849  0.3446
   70MOL   H12614064   1.855   4.914   0.481  0.4935  0.3599 -0.3938
   70MOL   H12714065   1.770   4.997   0.357  0.1499  1.7675 -0.7063
   70MOL   H12814066   1.948   5.124   0.578  0.3321 -1.8656 -0.8888
   70MOL   H12914067   1.818   5.257   0.337 -1.4147  0.4094  0.5182
   70MOL   H13014068   2.048   5.332   0.525 -0.4840 -0.0895  1.0245
   70MOL   H13114069   1.927   5.449   0.483  0.9274 -0.4953  1.4918
   70MOL   C13214070   2.056   5.395   0.313  0.1998 -0.2195 -0.1943
   70MOL   C13314071   2.127   5.526   0.309  0.2788  0.2069 -0.1089
   70MOL   C13414072   2.262   5.540   0.303 -0.4788 -0.3373 -0.4935
   70MOL   C13514073   2.338   5.671   0.315  0.2399  0.2048  0.1141
   70MOL   H13614074   2.115   5.310   0.279 -0.0847 -0.2114 -0.7180
   70MOL   H13714075   1.982   5.416   0.236 -1.1738  1.1404  1.4518
   70MOL   H13814076   2.053   5.603   0.318  0.0085 -0.1288  0.6678
   70MOL   H13914077   2.332   5.458   0.310  0.0208  0.2553  2.3790
   70MOL   H14014078   2.264   5.750   0.304  0.7239  1.1244  3.0119
   70MOL   H14114079   2.406   5.670   0.230 -0.1877  0.8553 -0.2400
   70MOL   C14214080   2.421   5.696   0.444  0.0673  0.7495 -0.3821
   70MOL   C14314081   2.330   5.701   0.553  0.2246 -0.0689 -0.1237
   70MOL   C14414082   2.290   5.815   0.613 -0.3571 -0.1802  0.1949
   70MOL   C14514083   2.191   5.820   0.723 -0.9260 -0.1462 -0.4648
   70MOL   H14614084   2.500   5.623   0.462 -0.5931 -0.4832 -2.2757
   70MOL   H14714085   2.484   5.784   0.431 -2.1626  2.2634 -1.1968
   70MOL   H14814086   2.299   5.611   0.605 -1.1871  1.9055  2.5886
   70MOL   H14914087   2.315   5.911   0.572  0.2879 -0.1074  0.7502
   70MOL   H15014088   2.218   5.889   0.803 -1.9047 -0.3237  0.0188
   70MOL   H15114089   2.174   5.727   0.777 -2.2096  1.5647  2.2113
   70MOL   C15214090   2.053   5.865   0.670 -0.2966 -0.2727  0.4469
   70MOL   C15314091   2.037   6.010   0.639  0.7372 -0.6178 -0.5304
   70MOL   C15414092   1.996   6.056   0.516 -0.4535 -0.1844 -0.4786
   70MOL   C15514093   1.977   6.197   0.481 -0.6967  1.0636  0.5792
   70MOL   H15614094   2.005   5.811   0.587  0.0037  3.8868 -2.6199
   70MOL   H15714095   1.985   5.853   0.754 -1.6470  2.4205 -0.1727
   70MOL   H15814096   2.062   6.078   0.719  0.3268 -1.6895  0.5077
   70MOL   H15914097   1.967   5.979   0.447 -0.4898  0.3216 -1.0376
   70MOL   H16014098   1.891   6.230   0.540 -0.7917  3.4591 -0.7846
   70MOL   H16114099   1.936   6.203   0.380  1.9214 -1.0536 -0.6485
   70MOL   C16214100   2.088   6.297   0.496  0.4190  0.3846  0.4681
   70MOL   C16314101   2.212   6.251   0.417  0.0943  0.1253 -0.4027
   70MOL   C16414102   2.329   6.209   0.473 -0.3808  0.5954 -0.0087
   70MOL   C16514103   2.442   6.156   0.397 -0.0634 -0.4807  0.5789
   70MOL   H16614104   2.063   6.401   0.475 -2.6739  0.0098  2.0472
   70MOL   H16714105   2.121   6.299   0.600  0.5207  2.3843  0.4141
   70MOL   H16814106   2.203   6.267   0.311  2.0572  4.8138 -0.0045
   70MOL   H16914107   2.338   6.189   0.579 -2.3694  2.8074  0.6353
   70MOL   H17014108   2.431   6.166   0.289  0.0365 -2.3737  0.3679
   70MOL   H17114109   2.444   6.048   0.411 -1.3050 -0.4967  0.6649
   70MOL   C17214110   2.572   6.227   0.439  0.9294  0.1628  1.2530
   70MOL   C17314111   2.695   6.180   0.362 -0.7266  0.5814 -0.8442
   70MOL   C17414112   2.791   6.266   0.322  0.4554 -0.3306 -0.5166
   70MOL   C17514113   2.921   6.221   0.257 -0.6514  0.0248 -0.3734
   70MOL   H17614114   2.561   6.335   0.424  0.1270 -0.1292 -0.3840
   70MOL   H17714115   2.600   6.203   0.542 -2.4270 -2.2948  1.6633
   70MOL   H17814116   2.702   6.073   0.347 -0.4474  0.5449 -0.4734
   70MOL   H17914117   2.779   6.372   0.336  0.8865 -0.5215  1.4331
   70MOL   H18014118   2.904   6.226   0.149 -2.5660  0.5325 -0.0736
   70MOL   H18114119   2.931   6.114   0.273  1.0865 -0.1349 -2.3396
   70MOL   C18214120   3.050   6.288   0.309  0.1972 -0.9014 -0.4085
   70MOL   C18314121   3.083   6.422   0.254 -0.2874 -0.3663  0.3043
   70MOL   C18414122   3.167   6.446   0.151  0.7423  0.4473  0.1483
   70MOL   C18514123   3.216   6.582   0.106  0.5468  0.0866 -0.3462
   70MOL   H18614124   3.057   6.289   0.418 -1.6060  1.2240 -0.2719
   70MOL   H18714125   3.132   6.218   0.297  0.6498 -0.1497 -1.6985
   70MOL   H18814126   3.035   6.507   0.299  1.3783  0.5228  0.4358
   70MOL   H18914127   3.219   6.356   0.119  2.9899  2.2904 -1.6078
   70MOL   H19014128   3.171   6.665   0.161  0.7277 -0.5028  0.6883
   70MOL   H19114129   3.189   6.604   0.002  0.9723 -0.8383 -0.6546
   70MOL   C19214130   3.366   6.602   0.104  1.0579 -1.1479  0.0244
   70MOL   C19314131   3.418   6.745   0.099 -0.6354 -0.3251 -0.0990
   70MOL   C19414132   3.487   6.793   0.203  0.3157  0.1629  0.6154
   70MOL   C19514133   3.539   6.928   0.200 -0.7052 -0.0329  0.3599
   70MOL   H19614134   3.424   6.534   0.167  1.0593 -0.4346  0.8054
   70MOL   H19714135   3.402   6.572   0.005  3.2348  0.1404  0.3720
   70MOL   H19814136   3.398   6.805   0.011  0.8222 -1.2305 -1.0796
   70MOL   H19914137   3.515   6.730   0.286  1.1120  0.4728  0.5861
   70MOL   H20014138   3.553   6.984   0.293 -1.6701 -1.6032  1.4835
   70MOL   H20114139   3.481   6.996   0.138 -0.3914  0.1086  0.2241
   70MOL   H20214140   3.636   6.919   0.151 -0.8809  0.2027 -0.0234
   71MOL     C114141   2.946   5.226   3.869  0.6821 -0.2236  0.1127
   71MOL     C214142   3.078   5.279   3.808 -0.0812 -0.6805 -0.0898
   71MOL     C314143   3.174   5.192   3.782  0.2667 -0.0929 -0.6624
   71MOL     C414144   3.297   5.216   3.699  0.0962  0.6691  0.0893
   71MOL     H514145   2.968   5.139   3.929  2.4784 -0.7642 -1.2910
   71MOL     H614146   2.871   5.189   3.799 -0.9920  0.1525  1.6619
   71MOL     H714147   3.084   5.374   3.758 -1.7878  0.2474  1.3984
   71MOL     H814148   3.157   5.093   3.823  1.3877  0.0465  0.1732
   71MOL     H914149   3.386   5.175   3.746 -0.1866 -0.5821 -0.4522
   71MOL    H1014150   3.302   5.325   3.692  0.9982  0.5866 -0.7695
   71MOL    H1114151   2.894   5.297   3.934  1.1683  1.6176 -1.4436
   71MOL    C1214152   3.275   5.159   3.551 -0.3515 -0.1151 -0.3107
   71MOL    C1314153   3.225   5.016   3.546  0.0582 -0.2658 -0.6642
   71MOL    C1414154   3.122   4.967   3.473 -0.2840 -0.3208 -0.7483
   71MOL    C1514155   3.083   4.824   3.452 -0.0720 -0.0019 -0.6113
   71MOL    H1614156   3.202   5.223   3.501 -1.4076 -0.3162  0.9427
   71MOL    H1714157   3.366   5.169   3.493 -0.3493  2.9656  0.1364
   71MOL    H1814158   3.279   4.949   3.611  0.4282  0.8935  0.2365
   71MOL    H1914159   3.070   5.033   3.405 -0.1668 -0.0557 -0.5814
   71MOL    H2014160   3.155   4.761   3.504 -0.3749 -0.3688 -0.6270
   71MOL    H2114161   3.103   4.811   3.346  2.2879 -3.6511  0.1688
   71MOL    C2214162   2.936   4.785   3.489 -0.7957 -0.7650  0.5105
   71MOL    C2314163   2.874   4.833   3.619 -0.2841 -0.2533 -0.3654
   71MOL    C2414164   2.751   4.887   3.632  0.1110 -1.0249 -0.9116
   71MOL    C2514165   2.692   4.930   3.768 -0.2201  0.0002 -0.2793
   71MOL    H2614166   2.874   4.827   3.409 -0.1970  0.3487  0.6244
   71MOL    H2714167   2.934   4.676   3.482  0.9697 -0.8225  0.8395
   71MOL    H2814168   2.937   4.812   3.704 -1.2205 -2.2950 -0.1598
   71MOL    H2914169   2.688   4.895   3.545 -4.3528 -0.6351  2.2141
   71MOL    H3014170   2.658   5.031   3.745  2.0060  0.6510 -0.8423
   71MOL    H3114171   2.767   4.942   3.846 -1.4311 -1.4839  1.1721
   71MOL    C3214172   2.588   4.820   3.814 -0.2674 -0.0220 -0.0250
   71MOL    C3314173   2.462   4.825   3.739  0.9312  0.2729 -0.0495
   71MOL    C3414174   2.342   4.858   3.796  0.1138 -0.5737  0.0758
   71MOL    C3514175   2.211   4.849   3.716  0.2031 -0.0207 -0.1121
   71MOL    H3614176   2.632   4.722   3.795  0.9449  0.6965 -1.0496
   71MOL    H3714177   2.568   4.836   3.920 -2.7473 -1.4453 -0.2412
   71MOL    H3814178   2.464   4.793   3.636 -1.5598  0.1526 -0.0948
   71MOL    H3914179   2.343   4.904   3.894 -0.3047 -0.5905  0.0898
   71MOL    H4014180   2.236   4.815   3.616  4.9012  0.8009  0.6408
   71MOL    H4114181   2.165   4.944   3.689 -0.1849 -0.4076 -0.8243
   71MOL    C4214182   2.121   4.737   3.772 -0.2414 -0.3382  0.4497
   71MOL    C4314183   1.998   4.723   3.685  0.0069 -0.0451  0.0750
   71MOL    C4414184   1.929   4.610   3.670  0.0363  0.3506  0.0027
   71MOL    C4514185   1.798   4.595   3.604  0.1752  0.0605 -0.2563
   71MOL    H4614186   2.160   4.636   3.780  1.1880  0.3450  2.2600
   71MOL    H4714187   2.088   4.770   3.870  0.0471  1.9284 -0.1694
   71MOL    H4814188   1.950   4.817   3.662 -0.5520 -0.9098 -2.4524
   71MOL    H4914189   1.985   4.521   3.693 -1.5320 -0.7973 -0.5397
   71MOL    H5014190   1.805   4.575   3.497  0.1568  1.2020 -0.4685
   71MOL    H5114191   1.746   4.690   3.616  0.2735  0.1524 -0.5642
   71MOL    C5214192   1.705   4.484   3.669 -0.4749  0.3665  0.4425
   71MOL    C5314193   1.767   4.344   3.636  0.4460 -0.8651 -0.0637
   71MOL    C5414194   1.715   4.243   3.567  0.1465 -0.2980  0.0202
   71MOL    C5514195   1.789   4.121   3.519  0.6875  0.9627  0.2714
   71MOL    H5614196   1.703   4.497   3.777  1.2178 -0.4238  0.5939
   71MOL    H5714197   1.599   4.495   3.646 -0.1664 -1.5117 -2.1906
   71MOL    H5814198   1.868   4.325   3.667  0.8357 -1.1925 -1.4969
   71MOL    H5914199   1.613   4.256   3.533 -0.0568 -1.6187  0.0891
   71MOL    H6014200   1.728   4.033   3.540  0.2406  1.0230 -0.7375
   71MOL    H6114201   1.869   4.122   3.593  0.6886  1.7837  0.2613
   71MOL    C6214202   1.832   4.141   3.377  0.0720 -0.1136  0.0233
   71MOL    C6314203   1.928   4.033   3.335 -0.4843  0.1323  0.0553
   71MOL    C6414204   2.056   4.054   3.295  0.0479  0.5115  0.1964
   71MOL    C6514205   2.145   3.941   3.268 -0.0611  0.2961  0.2085
   71MOL    H6614206   1.745   4.145   3.312  1.3381  0.6903 -1.6842
   71MOL    H6714207   1.881   4.239   3.371 -1.3705  0.5607 -1.0625
   71MOL    H6814208   1.883   3.937   3.351 -0.8888  0.3597  0.2802
   71MOL    H6914209   2.086   4.158   3.286  0.1756  0.4798  0.2672
   71MOL    H7014210   2.110   3.858   3.329 -0.2266  1.4432  1.7199
   71MOL    H7114211   2.242   3.976   3.305 -0.1732  0.2521  0.5415
   71MOL    C7214212   2.156   3.898   3.126 -0.1615 -0.6864 -0.1921
   71MOL    C7314213   2.196   4.007   3.037  0.1617  0.3916 -0.0834
   71MOL    C7414214   2.305   4.019   2.955  0.5058 -0.7086 -0.3544
   71MOL    C7514215   2.317   4.139   2.859 -0.0814  0.6636  0.4201
   71MOL    H7614216   2.221   3.811   3.128  0.8262  0.0751  2.3930
   71MOL    H7714217   2.060   3.866   3.083  0.4776  0.2700 -2.3943
   71MOL    H7814218   2.124   4.088   3.033  0.9294  1.1919  1.9787
   71MOL    H7914219   2.377   3.939   2.944  1.1016 -0.3712  0.9590
   71MOL    H8014220   2.231   4.205   2.854  1.3516  2.4393 -1.3071
   71MOL    H8114221   2.336   4.104   2.758  1.7828  0.2319  0.8964
   71MOL    C8214222   2.430   4.222   2.910  0.7943 -0.7555 -0.3088
   71MOL    C8314223   2.434   4.368   2.854 -0.9030 -0.1844  0.2673
   71MOL    C8414224   2.531   4.425   2.776 -0.5227  0.2887 -0.1311
   71MOL    C8514225   2.551   4.567   2.736 -0.2609 -0.0359  0.0296
   71MOL    H8614226   2.422   4.247   3.016  1.7591 -2.3275  0.1642
   71MOL    H8714227   2.518   4.159   2.894  1.0346 -0.9572  1.6878
   71MOL    H8814228   2.356   4.434   2.889 -0.3811  0.3272  0.4668
   71MOL    H8914229   2.605   4.352   2.748 -1.4304  0.1890 -2.3574
   71MOL    H9014230   2.541   4.576   2.628  2.3801  0.7066 -0.1792
   71MOL    H9114231   2.652   4.596   2.766 -0.4917 -2.1345  2.9935
   71MOL    C9214232   2.456   4.672   2.791 -0.6571 -0.1505  0.2290
   71MOL    C9314233   2.466   4.807   2.723 -0.1558 -0.3084  0.1187
   71MOL    C9414234   2.494   4.923   2.785  0.0405  0.0241 -0.0207
   71MOL    C9514235   2.509   5.055   2.716  0.2427  0.0762  1.0305
   71MOL    H9614236   2.352   4.647   2.771  0.1296 -1.5171 -2.3191
   71MOL    H9714237   2.475   4.674   2.899 -2.2960  0.3136  0.5256
   71MOL    H9814238   2.437   4.791   2.620  1.6260 -2.2610 -0.1003
   71MOL    H9914239   2.507   4.922   2.892  1.1702  0.9797 -0.1356
   71MOL   H10014240   2.415   5.110   2.727  0.0192  0.1193 -0.8667
   71MOL   H10114241   2.508   5.023   2.612 -0.5537 -1.6774  1.5600
   71MOL   C10214242   2.637   5.136   2.745  0.2499  0.7146 -0.0147
   71MOL   C10314243   2.634   5.265   2.672 -0.0471 -0.2425 -0.4113
   71MOL   C10414244   2.668   5.392   2.722 -0.0896  0.0143  0.0962
   71MOL   C10514245   2.665   5.522   2.652 -0.3671  0.0186 -1.0271
   71MOL   H10614246   2.646   5.150   2.852 -0.1533 -2.2337  0.4491
   71MOL   H10714247   2.729   5.081   2.722 -1.2196 -0.1372 -4.4856
   71MOL   H10814248   2.585   5.274   2.576 -0.8336 -2.0718 -0.2111
   71MOL   H10914249   2.709   5.399   2.822  0.7052  0.7596 -0.2765
   71MOL   H11014250   2.631   5.498   2.551  1.3111 -1.2667 -1.2949
   71MOL   H11114251   2.761   5.567   2.674  0.1152 -0.1614 -2.6842
   71MOL   C11214252   2.561   5.622   2.710 -0.4651  0.2461  0.3431
   71MOL   C11314253   2.585   5.767   2.666  0.1255 -0.4899 -0.2592
   71MOL   C11414254   2.491   5.839   2.600 -0.3553  0.0659 -0.6060
   71MOL   C11514255   2.500   5.987   2.559  0.1001  0.7090  0.4427
   71MOL   H11614256   2.467   5.591   2.664 -0.7414  1.8752 -0.2402
   71MOL   H11714257   2.562   5.638   2.817 -0.7208 -0.1535  0.4071
   71MOL   H11814258   2.677   5.808   2.704 -0.4923 -0.2113  0.9858
   71MOL   H11914259   2.395   5.794   2.576 -0.5413  0.7813 -1.2031
   71MOL   H12014260   2.600   6.029   2.565  2.0219 -3.4909 -0.8532
   71MOL   H12114261   2.432   6.040   2.626 -1.5699 -2.0946  1.0480
   71MOL   C12214262   2.450   5.987   2.415  0.0280 -0.6385  0.4835
   71MOL   C12314263   2.484   6.115   2.335 -0.0801 -0.4242  0.0406
   71MOL   C12414264   2.551   6.123   2.220 -0.2715 -1.0337 -0.6707
   71MOL   C12514265   2.577   6.263   2.145 -0.8143 -0.2825  0.3330
   71MOL   H12614266   2.487   5.897   2.365 -0.3970  0.2064 -1.3745
   71MOL   H12714267   2.342   5.972   2.423 -0.0052  0.1190  1.5780
   71MOL   H12814268   2.466   6.213   2.377 -0.2769  0.0679 -1.1891
   71MOL   H12914269   2.585   6.041   2.158 -0.0044 -0.0973 -1.7781
   71MOL   H13014270   2.527   6.346   2.193  1.5691  1.1749  0.3996
   71MOL   H13114271   2.535   6.243   2.047  1.4846 -0.8710 -0.5590
   71MOL   C13214272   2.729   6.298   2.124  0.4663 -0.6919  0.4338
   71MOL   C13314273   2.731   6.447   2.088 -0.7836  0.3452  0.1700
   71MOL   C13414274   2.807   6.539   2.147 -0.2557 -0.0693  0.0395
   71MOL   C13514275   2.796   6.684   2.124  0.0623 -0.7079 -0.1646
   71MOL   H13614276   2.789   6.281   2.214 -0.7326 -0.4261  1.2923
   71MOL   H13714277   2.781   6.256   2.039  1.0553 -0.3067  0.5997
   71MOL   H13814278   2.665   6.483   2.011 -0.9716  2.5749  1.3168
   71MOL   H13914279   2.889   6.506   2.208 -0.4297 -1.4690 -0.4821
   71MOL   H14014280   2.825   6.739   2.213  2.3182  2.2708 -2.5981
   71MOL   H14114281   2.704   6.732   2.091  2.1505  1.3186 -3.3555
   71MOL   C14214282   2.892   6.719   2.005 -0.1469 -0.1180 -0.1061
   71MOL   C14314283   2.890   6.861   1.942 -0.2830  0.7211 -0.3031
   71MOL   C14414284   2.830   6.970   2.004  0.4505  0.2267  0.0634
   71MOL   C14514285   2.824   7.113   1.951  0.8219 -0.1304  0.5627
   71MOL   H14614286   2.995   6.688   2.023  0.2272  0.9472 -0.4130
   71MOL   H14714287   2.880   6.648   1.923 -1.3599 -0.5084  0.3991
   71MOL   H14814288   2.952   6.878   1.855 -0.2287 -0.7807 -0.5813
   71MOL   H14914289   2.775   6.956   2.096 -0.1368 -2.9716 -0.7127
   71MOL   H15014290   2.721   7.147   1.936  1.1227  0.9117  0.8438
   71MOL   H15114291   2.875   7.120   1.855  0.4952 -0.6920  0.3440
   71MOL   C15214292   2.879   7.222   2.043 -0.0460  0.2754 -0.1216
   71MOL   C15314293   2.802   7.222   2.168 -0.2741  0.1024  0.2038
   71MOL   C15414294   2.706   7.308   2.198  1.0742  0.2448  0.6242
   71MOL   C15514295   2.628   7.294   2.321  0.3378 -0.7317  0.1029
   71MOL   H15614296   2.981   7.192   2.067  0.4756  1.7369 -0.4653
   71MOL   H15714297   2.889   7.317   1.990  1.6358 -1.2968 -2.7254
   71MOL   H15814298   2.827   7.138   2.232  0.1446  0.0032 -0.0908
   71MOL   H15914299   2.677   7.377   2.120  0.2947 -1.2458 -0.4422
   71MOL   H16014300   2.618   7.390   2.372 -0.6065 -1.6367  1.6495
   71MOL   H16114301   2.688   7.233   2.389 -0.4957  0.1866  1.6925
   71MOL   C16214302   2.489   7.231   2.286 -1.1795  0.4986 -0.5971
   71MOL   C16314303   2.405   7.205   2.405  0.0821 -0.2053  0.2443
   71MOL   C16414304   2.390   7.088   2.465 -0.7738 -0.3836  0.3049
   71MOL   C16514305   2.304   7.062   2.589  0.0294  0.6311  0.3110
   71MOL   H16614306   2.427   7.298   2.226 -1.0413  0.4545 -0.7910
   71MOL   H16714307   2.491   7.139   2.227  1.4750  0.0168  0.1690
   71MOL   H16814308   2.357   7.284   2.460  4.4459  1.7870  1.4323
   71MOL   H16914309   2.448   7.004   2.431  1.5854  0.7601  1.3431
   71MOL   H17014310   2.241   7.144   2.622 -0.3702  0.3960  0.1297
   71MOL   H17114311   2.372   7.040   2.671  0.9764 -3.8276 -1.5232
   71MOL   C17214312   2.219   6.936   2.560  0.1365  0.1292  0.5020
   71MOL   C17314313   2.121   6.904   2.672  0.0409 -0.3014  0.0154
   71MOL   C17414314   1.992   6.875   2.666  0.0762 -0.1040  0.0655
   71MOL   C17514315   1.910   6.855   2.790 -0.6385  0.8591 -1.0265
   71MOL   H17614316   2.154   6.941   2.474 -0.3033  2.3842  0.9350
   71MOL   H17714317   2.283   6.848   2.550  0.4920  0.3519  0.7864
   71MOL   H17814318   2.163   6.910   2.771 -1.7215  0.5842  0.7321
   71MOL   H17914319   1.944   6.858   2.571 -2.6892  0.1892  1.3563
   71MOL   H18014320   1.945   6.918   2.871 -0.8599 -1.4727  0.9324
   71MOL   H18114321   1.927   6.752   2.822  0.2488  1.2198 -0.3473
   71MOL   C18214322   1.761   6.885   2.775 -0.0591  0.1625  0.4513
   71MOL   C18314323   1.681   6.901   2.903 -0.4602  0.5404 -0.4759
   71MOL   C18414324   1.619   6.795   2.960  0.4912 -0.4600  0.2703
   71MOL   C18514325   1.538   6.785   3.082  1.1836  0.2914 -0.6735
   71MOL   H18614326   1.747   6.974   2.713 -2.1847 -0.2011  0.3552
   71MOL   H18714327   1.722   6.806   2.711 -1.4798  0.3232  1.0856
   71MOL   H18814328   1.687   6.996   2.954 -1.1005 -0.7132  2.0080
   71MOL   H18914329   1.623   6.709   2.895  1.3060 -0.4026  0.2392
   71MOL   H19014330   1.576   6.715   3.157  2.1163  1.1107 -0.3698
   71MOL   H19114331   1.444   6.743   3.047 -1.1658  2.3484  2.8845
   71MOL   C19214332   1.496   6.922   3.148  0.5578  0.1444 -0.6794
   71MOL   C19314333   1.387   6.902   3.249  0.8788  0.0139  0.8220
   71MOL   C19414334   1.377   6.955   3.372  0.2202  0.0638 -0.1305
   71MOL   C19514335   1.263   6.917   3.463 -0.2600 -0.0211  0.1514
   71MOL   H19614336   1.573   6.979   3.202 -1.1238  1.1798  0.6626
   71MOL   H19714337   1.451   6.992   3.078  1.6657  1.5793  0.0135
   71MOL   H19814338   1.305   6.839   3.215  2.1449 -0.4464 -1.4398
   71MOL   H19914339   1.445   7.027   3.415 -0.6872  0.4704  0.6626
   71MOL   H20014340   1.179   6.868   3.413  1.3512 -2.1877 -0.5433
   71MOL   H20114341   1.227   7.003   3.520  0.3815  0.9802 -0.9375
   71MOL   H20214342   1.298   6.844   3.536  0.9429 -0.6933 -1.0785
   72MOL     C114343   6.447   7.887   7.281 -0.0449  0.0246  0.2389
   72MOL     C214344   6.432   7.769   7.182 -0.1261  0.6680 -0.1214
   72MOL     C314345   6.477   7.643   7.212 -0.3176 -0.9577  0.4046
   72MOL     C414346   6.457   7.527   7.127  0.0844 -0.1911 -0.3239
   72MOL     H514347   6.486   7.973   7.226 -0.2192  0.4806  0.8231
   72MOL     H614348   6.514   7.868   7.364  0.3424  1.4161  0.2701
   72MOL     H714349   6.383   7.778   7.085  0.9442 -0.7149 -0.8106
   72MOL     H814350   6.528   7.617   7.303  0.5295  0.0976  0.2466
   72MOL     H914351   6.552   7.479   7.103 -1.1821 -2.3332 -1.2632
   72MOL    H1014352   6.423   7.562   7.029  1.2065  0.9527 -0.3079
   72MOL    H1114353   6.348   7.919   7.313 -0.1461  1.0999 -1.0893
   72MOL    C1214354   6.357   7.436   7.188  0.2301 -0.3062 -0.1401
   72MOL    C1314355   6.324   7.315   7.103  0.4047  0.1294 -0.3362
   72MOL    C1414356   6.378   7.284   6.980 -0.1881 -0.4038  0.1729
   72MOL    C1514357   6.341   7.156   6.910 -0.3731  0.2248  0.2490
   72MOL    H1614358   6.379   7.402   7.289  0.2499  0.4488  0.1109
   72MOL    H1714359   6.263   7.492   7.192  1.1761  1.1696  1.8979
   72MOL    H1814360   6.257   7.251   7.158 -1.0399  1.2173 -0.7931
   72MOL    H1914361   6.448   7.350   6.930  0.0451 -0.8958 -0.1516
   72MOL    H2014362   6.269   7.166   6.829  0.4121  1.7903 -0.2773
   72MOL    H2114363   6.289   7.093   6.982 -0.5222 -3.0489 -2.5652
   72MOL    C2214364   6.462   7.079   6.866 -0.1221  0.2075 -0.3871
   72MOL    C2314365   6.428   6.955   6.785 -0.4584 -0.0710  0.3138
   72MOL    C2414366   6.470   6.824   6.808 -0.3220 -0.3925  0.1294
   72MOL    C2514367   6.438   6.710   6.719  0.3208  0.3097 -0.1548
   72MOL    H2614368   6.520   7.146   6.803  0.1438  1.5027  1.2016
   72MOL    H2714369   6.526   7.055   6.951  2.0797  1.3350 -1.6636
   72MOL    H2814370   6.368   6.966   6.697  0.8117  1.2552 -0.4044
   72MOL    H2914371   6.544   6.798   6.883  1.4297 -0.5783 -1.6360
   72MOL    H3014372   6.376   6.730   6.632  0.0967  2.0503  0.3935
   72MOL    H3114373   6.365   6.649   6.772  0.1524 -0.0586 -0.8029
   72MOL    C3214374   6.557   6.630   6.675 -0.3794  0.7112  0.8991
   72MOL    C3314375   6.535   6.540   6.551 -0.2406  0.1276  0.6953
   72MOL    C3414376   6.501   6.414   6.552  0.6600  0.3877 -0.4063
   72MOL    C3514377   6.495   6.326   6.431  0.4845  0.3105 -0.1948
   72MOL    H3614378   6.636   6.701   6.651 -0.0214  0.0855  0.1707
   72MOL    H3714379   6.585   6.567   6.760  0.7527  0.9137  0.6886
   72MOL    H3814380   6.547   6.591   6.456 -1.3984  0.9924  0.9846
   72MOL    H3914381   6.488   6.365   6.647 -0.8126  2.5018  0.5156
   72MOL    H4014382   6.522   6.380   6.341 -2.3409  0.6359 -0.8959
   72MOL    H4114383   6.395   6.292   6.404 -0.0780 -0.8852  3.0539
   72MOL    C4214384   6.588   6.211   6.445  0.1767  0.5175  0.2758
   72MOL    C4314385   6.604   6.148   6.312 -0.5383 -0.4049  0.4393
   72MOL    C4414386   6.722   6.131   6.249 -0.3757 -0.0023  0.0162
   72MOL    C4514387   6.746   6.039   6.132  0.1109  0.3403 -0.3034
   72MOL    H4614388   6.688   6.226   6.486  0.6683 -0.7057 -0.4611
   72MOL    H4714389   6.550   6.139   6.516  0.4225 -0.9213 -1.0334
   72MOL    H4814390   6.522   6.097   6.264  0.3285 -0.2548 -1.2300
   72MOL    H4914391   6.804   6.177   6.302 -0.4006 -0.9513  0.8983
   72MOL    H5014392   6.659   6.036   6.067  0.1235  2.6972 -0.4459
   72MOL    H5114393   6.776   5.941   6.169 -0.7317 -0.4513 -1.6726
   72MOL    C5214394   6.865   6.092   6.047 -0.0638  0.8721  0.1559
   72MOL    C5314395   6.922   5.974   5.962 -0.6552 -0.1286 -0.0096
   72MOL    C5414396   7.055   5.963   5.958 -0.6325 -0.4912  0.0461
   72MOL    C5514397   7.130   5.868   5.863 -0.3668 -0.2830 -0.2211
   72MOL    H5614398   6.835   6.183   5.995 -1.5762  0.2723 -0.0597
   72MOL    H5714399   6.951   6.126   6.103  0.6091  1.5662 -1.2659
   72MOL    H5814400   6.864   5.918   5.890 -0.9217  0.1928 -0.0468
   72MOL    H5914401   7.116   6.022   6.024 -0.5088  0.0013 -0.5018
   72MOL    H6014402   7.187   5.924   5.789 -0.4199  2.1663  1.5438
   72MOL    H6114403   7.050   5.813   5.813  0.0004 -1.2062  0.2080
   72MOL    C6214404   7.228   5.774   5.927  0.1160  0.5534  0.1959
   72MOL    C6314405   7.366   5.824   5.937 -0.1309  0.1217  1.1619
   72MOL    C6414406   7.449   5.802   6.043  0.4692  1.0479  0.5618
   72MOL    C6514407   7.584   5.857   6.056  0.1062  0.1842 -0.2368
   72MOL    H6614408   7.191   5.741   6.025  0.6915  0.3917  0.3658
   72MOL    H6714409   7.227   5.682   5.869 -1.8932  0.1697  0.8023
   72MOL    H6814410   7.417   5.872   5.855 -1.6108  0.9036  0.6721
   72MOL    H6914411   7.404   5.738   6.117  4.0224 -2.2826  0.0078
   72MOL    H7014412   7.602   5.932   5.980 -0.6718  1.5192  0.8734
   72MOL    H7114413   7.636   5.761   6.046  2.3888  1.4056 -0.4319
   72MOL    C7214414   7.612   5.920   6.195 -0.2327  0.0793 -0.0342
   72MOL    C7314415   7.741   6.002   6.196  0.6379  0.0225  1.1085
   72MOL    C7414416   7.751   6.110   6.276  0.6217  0.5596 -0.2890
   72MOL    C7514417   7.875   6.198   6.283  0.4708  0.5103  0.4124
   72MOL    H7614418   7.521   5.978   6.208  0.3091  1.0603 -0.5479
   72MOL    H7714419   7.610   5.856   6.283  0.7603 -0.2816 -0.2714
   72MOL    H7814420   7.821   5.972   6.129  0.6876 -1.3956  1.7922
   72MOL    H7914421   7.666   6.146   6.332  1.5690  0.9409  0.9134
   72MOL    H8014422   7.951   6.165   6.213 -1.3184 -3.7736  0.3211
   72MOL    H8114423   7.929   6.184   6.377 -0.3184 -0.5312  0.7231
   72MOL    C8214424   7.837   6.340   6.254  0.3174 -0.1070  0.2059
   72MOL    C8314425   7.956   6.432   6.260 -0.3331 -0.2436  0.2400
   72MOL    C8414426   7.976   6.527   6.351 -0.2576 -0.0950  0.2540
   72MOL    C8514427   0.125   6.620   6.358  0.3204  0.0828  0.3327
   72MOL    H8614428   7.788   6.351   6.157  0.4343 -0.3901  0.1145
   72MOL    H8714429   7.768   6.360   6.336 -0.9677  2.9485 -1.5498
   72MOL    H8814430   0.048   6.417   6.178 -2.0557 -2.0237 -0.9454
   72MOL    H8914431   7.892   6.547   6.415  0.2058 -1.7025  1.3842
   72MOL    H9014432   0.189   6.581   6.437  2.6329 -1.2444 -2.1189
   72MOL    H9114433   0.085   6.717   6.385 -0.5631 -0.9066  2.6413
   72MOL    C9214434   0.211   6.630   6.229  0.0588 -0.7193 -0.5331
   72MOL    C9314435   0.137   6.676   6.106  0.2742  0.2800  0.3871
   72MOL    C9414436   0.150   6.796   6.042  0.0696  0.8961  0.0609
   72MOL    C9514437   0.067   6.820   5.924  0.0996  0.1633 -0.1268
   72MOL    H9614438   0.285   6.707   6.245  1.5248 -2.2125  0.0196
   72MOL    H9714439   0.271   6.542   6.204 -0.7450 -1.8156  1.2310
   72MOL    H9814440   0.073   6.597   6.071  0.8908 -0.8491  1.7836
   72MOL    H9914441   0.219   6.871   6.078  0.0662  1.6657 -1.4654
   72MOL   H10014442   7.964   6.748   5.909  0.5628 -0.4836  0.5462
   72MOL   H10114443   0.127   6.815   5.832 -2.0367 -2.2115 -1.4581
   72MOL   C10214444   0.001   6.960   5.925  0.1684 -0.7213 -0.6494
   72MOL   C10314445   7.912   7.002   5.797 -0.0130 -0.0687 -0.1611
   72MOL   C10414446   7.783   7.029   5.791 -0.1838 -0.0309  0.4162
   72MOL   C10514447   7.699   7.077   5.676  0.1354 -0.3778  0.0079
   72MOL   H10614448   7.916   6.960   6.014  0.3686 -2.1957 -0.5022
   72MOL   H10714449   0.083   7.028   5.949 -0.6426 -0.1642  0.6010
   72MOL   H10814450   7.973   7.001   5.708 -0.8467  0.9469 -0.7625
   72MOL   H10914451   7.728   7.033   5.884 -0.4490  1.4700  0.2179
   72MOL   H11014452   7.762   7.090   5.588  1.7657  0.4514  1.2685
   72MOL   H11114453   7.644   7.168   5.701  0.2728 -0.6951  1.4860
   72MOL   C11214454   7.587   6.981   5.630  0.0181 -0.2352 -0.0371
   72MOL   C11314455   7.508   7.033   5.512  0.1802  0.3274  0.2179
   72MOL   C11414456   7.388   7.091   5.526 -0.3137  0.2703 -0.2670
   72MOL   C11514457   7.305   7.165   5.417 -0.0441  0.1328  0.3966
   72MOL   H11614458   7.623   6.884   5.596 -1.3193 -0.8372  0.2445
   72MOL   H11714459   7.519   6.971   5.714 -0.0330  1.3512  0.1140
   72MOL   H11814460   7.544   7.020   5.411  0.2510 -1.7819  0.4858
   72MOL   H11914461   7.343   7.106   5.623 -1.8506 -2.2881 -0.5431
   72MOL   H12014462   7.252   7.081   5.371 -0.0703  0.2588  0.1994
   72MOL   H12114463   7.378   7.194   5.342 -0.7846 -3.0367 -1.6793
   72MOL   C12214464   7.205   7.266   5.469  1.0383  0.1159 -0.4126
   72MOL   C12314465   7.144   7.328   5.353  0.3160  0.5132  0.3270
   72MOL   C12414466   7.019   7.371   5.357  0.7178 -0.3334 -0.8682
   72MOL   C12514467   6.946   7.422   5.235 -0.3248 -0.6062 -0.4607
   72MOL   H12614468   7.131   7.210   5.527 -0.3392  4.4882  2.2818
   72MOL   H12714469   7.242   7.342   5.537  0.4722  0.6541 -0.7033
   72MOL   H12814470   7.199   7.332   5.261 -0.5102  1.1077 -0.1521
   72MOL   H12914471   6.965   7.363   5.450 -0.5618  0.4219 -1.5336
   72MOL   H13014472   7.016   7.450   5.156 -0.5474  1.4438  0.0571
   72MOL   H13114473   6.898   7.519   5.247  0.2578 -0.4035  0.3177
   72MOL   C13214474   6.839   7.312   5.187 -0.2955 -0.4065 -0.5585
   72MOL   C13314475   6.743   7.358   5.077  0.0189  0.1492  0.3603
   72MOL   C13414476   6.615   7.322   5.059  0.2533  0.2953  1.0729
   72MOL   C13514477   6.534   7.379   4.944  0.0382 -0.1504 -0.5236
   72MOL   H13614478   6.897   7.227   5.152 -0.6080 -0.4167 -1.0456
   72MOL   H13714479   6.787   7.283   5.278  0.1714  2.0583  0.5454
   72MOL   H13814480   6.789   7.426   5.006  0.2941 -0.1322  0.2721
   72MOL   H13914481   6.567   7.271   5.141 -1.1550 -0.6921 -0.3287
   72MOL   H14014482   6.601   7.443   4.886  0.7922  0.1517  0.6652
   72MOL   H14114483   6.457   7.444   4.986  1.7778  0.6647  1.5178
   72MOL   C14214484   6.475   7.278   4.855  0.4170 -0.6959  0.2856
   72MOL   C14314485   6.377   7.188   4.932 -0.9414 -0.4542 -0.0395
   72MOL   C14414486   6.394   7.057   4.963 -0.1464  0.4329  0.4341
   72MOL   C14514487   6.287   6.964   5.021  0.2054 -0.4688  0.7457
   72MOL   H14614488   6.432   7.324   4.766 -1.0054 -0.7902  0.8941
   72MOL   H14714489   6.554   7.225   4.803  0.0181 -1.6987  0.6891
   72MOL   H14814490   6.288   7.234   4.972 -0.6955 -1.2003  1.4095
   72MOL   H14914491   6.480   6.999   4.934 -0.0218  0.8569 -0.0537
   72MOL   H15014492   6.248   7.024   5.102 -0.1538  0.4607 -0.0997
   72MOL   H15114493   6.328   6.876   5.070  2.0930  0.9890  1.8383
   72MOL   C15214494   6.195   6.909   4.909  0.6335  0.5369 -0.1125
   72MOL   C15314495   6.078   6.825   4.966  0.7988 -0.1901 -0.2577
   72MOL   C15414496   6.059   6.694   4.933  0.0693 -0.2135 -0.3140
   72MOL   C15514497   5.961   6.603   5.000  0.2903 -0.2488 -0.7458
   72MOL   H15614498   6.148   6.985   4.846 -1.6753  0.2638  1.2459
   72MOL   H15714499   6.249   6.849   4.835  1.5138  0.5128  0.5423
   72MOL   H15814500   6.004   6.873   5.028 -0.5950  1.7826 -3.3201
   72MOL   H15914501   6.134   6.655   4.865  0.0842 -0.1481 -0.3352
   72MOL   H16014502   5.903   6.664   5.070  0.5555 -1.2973  0.4071
   72MOL   H16114503   6.020   6.532   5.058  0.4114  0.6883  0.2952
   72MOL   C16214504   5.849   6.536   4.911  0.2158  0.5696  0.0699
   72MOL   C16314505   5.762   6.626   4.827  0.5492  0.1239 -0.1235
   72MOL   C16414506   5.700   6.731   4.884 -0.1333 -0.5220 -0.1569
   72MOL   C16514507   5.600   6.820   4.819 -0.4404  0.1523  0.2581
   72MOL   H16614508   5.906   6.481   4.835  2.2508  1.6482  0.7848
   72MOL   H16714509   5.780   6.476   4.970  1.5197 -1.3552 -0.2974
   72MOL   H16814510   5.755   6.601   4.723 -1.3221  0.1906 -0.0301
   72MOL   H16914511   5.708   6.752   4.989  0.5704  0.7525 -0.4585
   72MOL   H17014512   5.604   6.806   4.711  1.4047 -0.1390  0.3468
   72MOL   H17114513   5.621   6.926   4.837 -0.8194  0.3947 -0.6700
   72MOL   C17214514   5.462   6.773   4.860  0.2332 -0.2608  0.1525
   72MOL   C17314515   5.431   6.806   5.001  0.3154  0.3161  0.6587
   72MOL   C17414516   5.310   6.840   5.037 -0.2518 -0.0619  0.1066
   72MOL   C17514517   5.264   6.858   5.182  0.3014 -0.2529 -0.2579
   72MOL   H17614518   5.403   6.828   4.787  1.9154 -0.0281 -1.0748
   72MOL   H17714519   5.457   6.666   4.837  0.1416 -0.2746  0.2380
   72MOL   H17814520   5.508   6.774   5.070  2.0556 -1.0248 -1.8125
   72MOL   H17914521   5.237   6.844   4.957  0.1169 -0.0913 -0.2274
   72MOL   H18014522   5.338   6.799   5.236  0.7785  1.3371  0.8858
   72MOL   H18114523   5.176   6.794   5.185  0.7483 -0.9250 -1.1582
   72MOL   C18214524   5.245   6.997   5.229  0.5299  0.3424  0.2701
   72MOL   C18314525   5.106   7.058   5.199  0.4530  0.5587  0.5492
   72MOL   C18414526   5.012   7.099   5.282  0.0602  0.2386  0.1566
   72MOL   C18514527   4.881   7.151   5.227  0.2923 -0.1857 -0.2977
   72MOL   H18614528   5.250   6.994   5.338 -0.8357 -0.4332  0.3200
   72MOL   H18714529   5.327   7.053   5.184 -0.1539  0.1762 -1.1989
   72MOL   H18814530   5.081   7.060   5.094 -0.6160  0.6758  0.7983
   72MOL   H18914531   5.036   7.093   5.387 -0.4992 -0.0545  0.2699
   72MOL   H19014532   4.868   7.125   5.122  0.1846  1.9092 -0.8300
   72MOL   H19114533   4.885   7.260   5.229  0.2629 -0.1945  0.8692
   72MOL   C19214534   4.751   7.106   5.307  0.4862 -0.1247  0.4321
   72MOL   C19314535   4.622   7.166   5.257 -0.4004  0.1183 -0.3012
   72MOL   C19414536   4.606   7.301   5.233 -0.3411 -0.3606  0.5537
   72MOL   C19514537   4.477   7.370   5.177  0.6467 -0.3448  0.3781
   72MOL   H19614538   4.730   7.000   5.296 -2.2975  0.5408 -0.9811
   72MOL   H19714539   4.755   7.132   5.413  1.1162  0.6371  0.2236
   72MOL   H19814540   4.542   7.097   5.232 -0.3729  0.4231 -1.2538
   72MOL   H19914541   4.685   7.370   5.259  1.4540 -3.0688  2.5874
   72MOL   H20014542   4.399   7.294   5.167 -0.6181  0.8449  0.9432
   72MOL   H20114543   4.491   7.411   5.077  0.3547  1.0104  0.8708
   72MOL   H20214544   4.445   7.454   5.239  0.4704  0.9244 -1.3831
   73MOL     C114545   1.238   7.591   7.886  0.0695  0.7769 -0.1024
   73MOL     C214546   1.111   7.681   7.908 -0.4591  0.4586  0.1020
   73MOL     C314547   0.981   7.656   7.887  0.1118 -0.7177  0.3760
   73MOL     C414548   0.872   7.759   7.917 -0.0038 -0.0552  0.3064
   73MOL     H514549   1.279   7.604   7.786  4.1088  0.7823  1.4868
   73MOL     H614550   1.206   7.489   7.908 -0.4642  0.9092 -0.2501
   73MOL     H714551   1.126   7.787   7.927 -0.3754  0.6262 -0.8790
   73MOL     H814552   0.949   7.559   7.854 -0.3124 -0.2497 -0.6133
   73MOL     H914553   0.886   7.822   0.028  0.2541  0.4033 -0.0622
   73MOL    H1014554   0.782   7.704   7.944 -1.1991  1.7036 -0.0357
   73MOL    H1114555   1.322   7.619   7.949  0.6875 -1.3235  0.0458
   73MOL    C1214556   0.844   7.851   7.799  0.1705  0.5534 -0.4289
   73MOL    C1314557   0.937   7.967   7.789  0.6437  0.2035  0.2567
   73MOL    C1414558   0.910   0.117   7.832 -0.3649  0.8242  0.0126
   73MOL    C1514559   1.002   0.236   7.803  0.4035 -0.2345 -0.4446
   73MOL    H1614560   0.854   7.791   7.709  3.0111  0.5791 -0.1547
   73MOL    H1714561   0.745   7.896   7.804 -0.3508 -0.7437  1.5957
   73MOL    H1814562   1.033   7.959   7.739  0.3902  2.8314 -0.7191
   73MOL    H1914563   0.812   0.134   7.873 -0.4117 -2.5935  1.4492
   73MOL    H2014564   1.104   0.202   7.823 -0.6049 -2.2697  1.5566
   73MOL    H2114565   0.977   0.318   7.871 -0.6499 -0.3470 -0.6787
   73MOL    C2214566   1.003   0.285   7.658 -0.7194  0.2450  0.0044
   73MOL    C2314567   1.092   0.403   7.637 -0.3319  0.0496  0.0788
   73MOL    C2414568   1.060   0.511   7.565  0.2101  0.5806  0.1118
   73MOL    C2514569   1.161   0.624   7.545  0.2433 -0.1551  0.1744
   73MOL    H2614570   1.049   0.206   7.598  0.3276  1.8356 -1.3060
   73MOL    H2714571   0.903   0.296   7.615 -0.1911  1.7988 -0.8526
   73MOL    H2814572   1.184   0.394   7.692 -0.0672 -1.7897 -0.6285
   73MOL    H2914573   0.959   0.517   7.527  1.1390  1.5005 -2.3553
   73MOL    H3014574   1.240   0.612   7.619  1.2333  0.4798 -0.7750
   73MOL    H3114575   1.114   0.721   7.561 -0.5460 -0.3398 -0.9053
   73MOL    C3214576   1.230   0.625   7.406  1.0322  0.1112  0.2071
   73MOL    C3314577   1.311   0.741   7.367  0.6786 -0.2035  0.3307
   73MOL    C3414578   1.297   0.801   7.246  0.8169 -0.3976  0.4200
   73MOL    C3514579   1.376   0.911   7.192 -1.1430 -0.3333  0.4142
   73MOL    H3614580   1.294   0.538   7.406  2.6422  1.2635 -0.3639
   73MOL    H3714581   1.156   0.617   7.326  3.3767  0.4282 -2.0421
   73MOL    H3814582   1.389   0.776   7.433  2.1243  0.4770 -1.6982
   73MOL    H3914583   1.220   0.749   7.190  0.0566  2.0308 -0.8468
   73MOL    H4014584   1.429   0.864   7.109 -0.7079  0.9431 -0.0511
   73MOL    H4114585   1.452   0.956   7.257 -0.5547  0.1112 -0.5707
   73MOL    C4214586   1.278   1.019   7.142 -0.8092  0.4871  0.7784
   73MOL    C4314587   1.344   1.151   7.101 -0.0573  0.3228 -0.2447
   73MOL    C4414588   1.322   1.222   6.982  0.2821  0.4071 -0.9208
   73MOL    C4514589   1.383   1.358   6.960  0.3088 -0.1836 -0.6985
   73MOL    H4614590   1.215   0.979   7.062 -0.8266 -0.0547  1.0590
   73MOL    H4714591   1.218   1.046   7.229 -1.4137  0.5701  0.3450
   73MOL    H4814592   1.415   1.185   7.175  0.6204 -0.2143 -0.6408
   73MOL    H4914593   1.259   1.179   6.905 -0.5315  0.8960 -0.5414
   73MOL    H5014594   1.398   1.378   6.854  0.2385  1.5907 -0.3860
   73MOL    H5114595   1.478   1.364   7.014  1.3455 -3.0773 -2.0899
   73MOL    C5214596   1.291   1.471   7.013  0.0242 -0.0771  0.6350
   73MOL    C5314597   1.161   1.478   6.944  0.6381  0.4305 -0.1401
   73MOL    C5414598   1.099   1.590   6.900 -0.6505  0.1810  0.0558
   73MOL    C5514599   0.949   1.591   6.849  0.0548  0.9183  0.6283
   73MOL    H5614600   1.278   1.451   7.119  0.6033 -0.4878  0.6290
   73MOL    H5714601   1.337   1.569   7.008 -1.3183  0.5515  0.3008
   73MOL    H5814602   1.105   1.385   6.938  0.5982  0.2372  2.6102
   73MOL    H5914603   1.148   1.686   6.895 -1.8235  0.7707 -0.4644
   73MOL    H6014604   0.905   1.495   6.878  0.5621 -0.2394 -2.3344
   73MOL    H6114605   0.938   1.603   6.742  1.0289  0.8947  0.5229
   73MOL    C6214606   0.868   1.703   6.930 -0.3421 -0.4268 -0.1841
   73MOL    C6314607   0.896   1.838   6.878 -0.2663 -0.4516  0.2931
   73MOL    C6414608   0.998   1.921   6.912 -0.4214  0.8048  0.3647
   73MOL    C6514609   1.021   2.050   6.836 -0.1344  0.2985 -0.2570
   73MOL    H6614610   0.761   1.683   6.933 -0.7877  1.7835 -0.5449
   73MOL    H6714611   0.896   1.685   7.034  0.6634 -1.2003 -0.5727
   73MOL    H6814612   0.828   1.869   6.799 -1.6666 -0.5084  1.4547
   73MOL    H6914613   1.076   1.890   6.981  0.2115 -0.3182 -0.8378
   73MOL    H7014614   1.069   2.122   6.902 -0.3368 -1.0022  1.3293
   73MOL    H7114615   0.922   2.084   6.805 -1.4567 -1.8516  1.5262
   73MOL    C7214616   1.114   2.025   6.715 -0.8215 -0.3075  0.3640
   73MOL    C7314617   1.130   2.150   6.628 -0.3972  0.2113 -0.1660
   73MOL    C7414618   1.074   2.264   6.644  0.2024 -0.1199 -0.6853
   73MOL    C7514619   1.100   2.387   6.561 -0.7360  0.3458  0.2633
   73MOL    H7614620   1.211   1.992   6.750  1.3650  2.1734 -3.0030
   73MOL    H7714621   1.068   1.942   6.662 -1.1793  0.2681 -0.2506
   73MOL    H7814622   1.202   2.143   6.548 -0.7291  1.0928 -0.5485
   73MOL    H7914623   1.015   2.295   6.729  0.4301  4.3004 -1.9918
   73MOL    H8014624   1.173   2.353   6.488  0.0473 -0.8438  1.5799
   73MOL    H8114625   1.145   2.455   6.633  1.3496 -1.8216  1.0686
   73MOL    C8214626   0.970   2.454   6.508  0.1172  0.0216  0.7035
   73MOL    C8314627   0.989   2.594   6.462  0.1767  0.2383  0.1373
   73MOL    C8414628   0.947   2.655   6.347  0.4139  0.5379  0.4968
   73MOL    C8514629   0.958   2.804   6.315  0.8454  0.5000  0.8995
   73MOL    H8614630   0.932   2.392   6.426  0.2209  1.7439 -0.6924
   73MOL    H8714631   0.889   2.458   6.580 -1.9688  0.3495 -1.5776
   73MOL    H8814632   1.036   2.664   6.530  0.1472  1.4423 -1.0492
   73MOL    H8914633   0.907   2.588   6.273 -0.6520  0.4278  1.1652
   73MOL    H9014634   0.989   2.828   6.213 -2.4495  2.7001  0.3123
   73MOL    H9114635   1.044   2.831   6.375 -0.4247  0.1487  2.9248
   73MOL    C9214636   0.838   2.890   6.351  0.0959  0.1340 -0.7692
   73MOL    C9314637   0.860   3.033   6.308 -0.3876 -0.6257 -0.6527
   73MOL    C9414638   0.771   3.105   6.235  0.2589 -1.0691  0.2833
   73MOL    C9514639   0.801   3.252   6.188  0.3586 -0.3888  0.1961
   73MOL    H9614640   0.739   2.855   6.322 -0.2383  1.9556 -1.9045
   73MOL    H9714641   0.830   2.879   6.459 -0.6027 -4.3113 -1.2046
   73MOL    H9814642   0.952   3.080   6.336 -0.8366  0.4934 -1.0287
   73MOL    H9914643   0.673   3.064   6.217  0.2616 -0.6706 -0.6707
   73MOL   H10014644   0.908   3.273   6.186  0.0450  1.2460  0.1219
   73MOL   H10114645   0.775   3.320   6.269  0.2014  2.2873 -2.0245
   73MOL   C10214646   0.762   3.283   6.041  0.8465 -0.9183 -0.0703
   73MOL   C10314647   0.868   3.236   5.942  0.3936 -0.0725 -0.4583
   73MOL   C10414648   0.839   3.185   5.822  0.5175  0.0294 -0.2843
   73MOL   C10514649   0.941   3.154   5.709  0.2119  0.1808  0.4650
   73MOL   H10614650   0.667   3.238   6.012  0.8184 -0.0600 -1.3211
   73MOL   H10714651   0.760   3.391   6.024  0.4832 -1.1738 -1.6615
   73MOL   H10814652   0.973   3.249   5.961 -0.0169  0.1156  1.8599
   73MOL   H10914653   0.732   3.174   5.812  0.3953 -0.9658  1.8013
   73MOL   H11014654   1.035   3.122   5.753  0.4270  1.5988  1.0820
   73MOL   H11114655   0.969   3.238   5.645 -1.3206 -0.8069 -1.5537
   73MOL   C11214656   0.900   3.034   5.623  0.5167 -0.2123 -0.7387
   73MOL   C11314657   0.770   3.057   5.552  0.1621  0.1439  0.6805
   73MOL   C11414658   0.759   3.057   5.418  0.5504 -0.2970 -0.4217
   73MOL   C11514659   0.629   3.063   5.343  0.1939 -0.7106  0.5927
   73MOL   H11614660   0.975   3.007   5.549  1.8911  0.7183  0.2764
   73MOL   H11714661   0.890   2.944   5.684 -1.8944  1.0574  0.8309
   73MOL   H11814662   0.682   3.058   5.614 -0.6245  0.3682 -0.4283
   73MOL   H11914663   0.850   3.048   5.360  0.9080  0.0006  0.0792
   73MOL   H12014664   0.628   3.144   5.269  0.3033 -3.2353 -2.2727
   73MOL   H12114665   0.549   3.088   5.412 -0.2386  0.7635 -0.4035
   73MOL   C12214666   0.599   2.941   5.258  0.5391  0.0675  0.2747
   73MOL   C12314667   0.713   2.918   5.157  0.0310  0.2104 -0.3651
   73MOL   C12414668   0.781   2.803   5.168 -0.8744 -0.4919 -0.6552
   73MOL   C12514669   0.891   2.762   5.071  0.1245  0.1502 -0.2222
   73MOL   H12614670   0.588   2.857   5.327  0.2283 -0.6672 -0.6635
   73MOL   H12714671   0.505   2.945   5.203  0.1978  0.1433  0.8654
   73MOL   H12814672   0.735   2.989   5.079  0.2402 -1.9048 -2.2638
   73MOL   H12914673   0.756   2.729   5.244  2.5855 -2.3425 -1.1741
   73MOL   H13014674   0.982   2.724   5.117 -0.6477 -0.4544  0.8195
   73MOL   H13114675   0.924   2.844   5.007 -0.4643  0.7130  0.1826
   73MOL   C13214676   0.834   2.653   4.984  0.3195 -0.3689  0.2438
   73MOL   C13314677   0.943   2.587   4.901 -0.3972  0.5576  0.0766
   73MOL   C13414678   0.942   2.578   4.765  0.1835  0.1296  0.4179
   73MOL   C13514679   1.045   2.508   4.684  0.6082 -0.3132  0.1354
   73MOL   H13614680   0.783   2.578   5.044 -1.3094  2.1851  2.1389
   73MOL   H13714681   0.756   2.704   4.927  1.8796  1.6992 -0.0565
   73MOL   H13814682   1.016   2.520   4.943  0.3099  1.5725  0.4863
   73MOL   H13914683   0.865   2.636   4.716  0.3808  1.9933  2.2663
   73MOL   H14014684   0.993   2.480   4.592  0.8424 -0.9233  0.1837
   73MOL   H14114685   1.087   2.412   4.716 -0.4665 -1.2471 -1.2044
   73MOL   C14214686   1.150   2.609   4.640  0.4048  0.7497 -0.4892
   73MOL   C14314687   1.253   2.551   4.544 -0.1061 -0.2317  0.1579
   73MOL   C14414688   1.242   2.571   4.410 -0.9145 -0.2207  0.3643
   73MOL   C14514689   1.334   2.515   4.306  0.3877 -0.4251 -0.7991
   73MOL   H14614690   1.099   2.693   4.593 -1.5616  1.0778  2.1496
   73MOL   H14714691   1.206   2.660   4.719 -1.6058  2.1291  0.0595
   73MOL   H14814692   1.335   2.494   4.586 -1.2518 -0.7347  1.7370
   73MOL   H14914693   1.152   2.618   4.372  0.8263  4.5312  1.8078
   73MOL   H15014694   1.277   2.444   4.246  1.7957 -0.5510 -2.0259
   73MOL   H15114695   1.398   2.452   4.367 -1.8345 -1.3510  0.6170
   73MOL   C15214696   1.404   2.622   4.229 -0.2671 -0.4778 -0.1617
   73MOL   C15314697   1.497   2.555   4.118  0.2300  0.3434  0.3539
   73MOL   C15414698   1.511   2.601   3.992  0.5173  0.1011 -0.2922
   73MOL   C15514699   1.585   2.543   3.872 -0.2902 -0.4901  0.4181
   73MOL   H15614700   1.327   2.688   4.187 -1.2774 -1.2915  0.4064
   73MOL   H15714701   1.461   2.685   4.298 -0.9840  0.4032 -0.3651
   73MOL   H15814702   1.558   2.470   4.144 -1.1896 -0.1455  2.1412
   73MOL   H15914703   1.448   2.688   3.982 -0.7503 -0.6870  0.5730
   73MOL   H16014704   1.662   2.468   3.889  1.3747  0.2978 -3.1612
   73MOL   H16114705   1.634   2.628   3.825  0.4443 -0.8605  0.5068
   73MOL   C16214706   1.490   2.507   3.768 -0.3160 -0.3577 -0.1588
   73MOL   C16314707   1.425   2.635   3.715  0.0523  0.2786  0.0000
   73MOL   C16414708   1.479   2.724   3.628  0.0123  0.4990  0.0352
   73MOL   C16514709   1.418   2.857   3.603 -0.7323  0.2752 -0.1059
   73MOL   H16614710   1.539   2.471   3.677  0.0743 -0.4874  0.1010
   73MOL   H16714711   1.416   2.437   3.806 -0.0677 -0.9006 -0.6617
   73MOL   H16814712   1.327   2.657   3.753  1.2502  3.1078  1.6773
   73MOL   H16914713   1.578   2.708   3.589  0.3214 -0.0000  1.0244
   73MOL   H17014714   1.310   2.846   3.615 -0.9570  1.3305 -0.9722
   73MOL   H17114715   1.436   2.885   3.499  2.0591 -0.0131  0.2791
   73MOL   C17214716   1.473   2.953   3.708 -0.3516 -0.2052 -0.2494
   73MOL   C17314717   1.617   2.995   3.674  0.2366 -0.1213  0.5083
   73MOL   C17414718   1.657   3.088   3.585 -0.1219  0.3511 -0.2429
   73MOL   C17514719   1.799   3.133   3.565  0.6109  0.4400 -0.1722
   73MOL   H17614720   1.413   3.044   3.704 -0.3725 -0.2126 -0.0939
   73MOL   H17714721   1.458   2.917   3.810 -1.4982 -2.1884 -1.1129
   73MOL   H17814722   1.695   2.953   3.735  0.6682 -0.0258  0.0250
   73MOL   H17914723   1.586   3.139   3.522  1.2868  1.4614 -0.9340
   73MOL   H18014724   1.854   3.051   3.518  0.4655  0.0722  0.2935
   73MOL   H18114725   1.846   3.136   3.663  1.0808  0.7897 -0.4012
   73MOL   C18214726   1.817   3.272   3.504 -0.9882 -0.3859  0.6787
   73MOL   C18314727   1.950   3.312   3.458  0.0062  0.4184 -0.4470
   73MOL   C18414728   1.988   3.333   3.330  0.1084 -0.1522 -0.9718
   73MOL   C18514729   2.118   3.374   3.291 -0.5262  0.3112 -0.2747
   73MOL   H18614730   1.747   3.291   3.423 -1.6181 -0.3535  1.2274
   73MOL   H18714731   1.792   3.349   3.577  1.8784 -0.4465  1.7774
   73MOL   H18814732   2.011   3.325   3.546  0.6556 -1.8685 -0.5381
   73MOL   H18914733   1.907   3.326   3.258 -2.7502  0.2173  2.1026
   73MOL   H19014734   2.198   3.353   3.363  1.2041  3.9296 -1.0110
   73MOL   H19114735   2.130   3.479   3.266  2.1075 -0.4186 -2.4064
   73MOL   C19214736   2.151   3.305   3.157 -0.7157 -0.2134  0.0321
   73MOL   C19314737   2.193   3.159   3.167  0.3374  0.1930 -0.6496
   73MOL   C19414738   2.291   3.110   3.090 -0.5314  0.1869  0.7423
   73MOL   C19514739   2.353   2.976   3.090 -0.0727  0.3868 -0.4866
   73MOL   H19614740   2.069   3.310   3.086 -1.1460  2.0916  0.6625
   73MOL   H19714741   2.231   3.366   3.114 -1.3667  0.4013 -0.3181
   73MOL   H19814742   2.163   3.104   3.255 -2.3583  0.0685 -1.5858
   73MOL   H19914743   2.318   3.178   3.010 -3.8315  1.4431  0.6391
   73MOL   H20014744   2.457   2.986   3.059 -0.0198 -1.3284 -0.9169
   73MOL   H20114745   2.300   2.910   3.021 -1.1372  0.7147  0.0028
   73MOL   H20214746   2.343   2.930   3.188 -0.8993  0.7339 -0.4090
   74MOL     C114747   4.480   0.959   0.829 -0.3783  0.2869 -0.0406
   74MOL     C214748   4.582   1.058   0.881 -0.7499  0.0909 -0.1836
   74MOL     C314749   4.591   1.182   0.846  0.0634 -0.6092  1.2902
   74MOL     C414750   4.703   1.280   0.892 -0.2969 -0.4380  0.1575
   74MOL     H514751   4.536   0.888   0.769 -0.6271  1.4309 -1.6653
   74MOL     H614752   4.394   0.995   0.772 -0.5300 -1.1977 -0.7797
   74MOL     H714753   4.661   1.032   0.951 -0.7318 -0.2340 -0.3238
   74MOL     H814754   4.524   1.222   0.772 -0.8556 -1.2944  1.7410
   74MOL     H914755   4.755   1.239   0.979 -0.4709 -1.3085 -0.1419
   74MOL    H1014756   4.663   1.376   0.923  0.7187 -0.4330  1.5102
   74MOL    H1114757   4.444   0.905   0.917 -0.0250  1.6076  0.9234
   74MOL    C1214758   4.812   1.279   0.793  0.0795 -0.2317 -0.5404
   74MOL    C1314759   4.925   1.381   0.810  0.3619 -0.4073 -0.1163
   74MOL    C1414760   4.919   1.497   0.877  0.3869 -0.3060  0.2315
   74MOL    C1514761   5.040   1.581   0.909 -0.5702  1.2815 -0.4437
   74MOL    H1614762   4.850   1.177   0.787  0.7415 -0.0440  0.3869
   74MOL    H1714763   4.765   1.308   0.699 -1.6234  2.7057  1.1223
   74MOL    H1814764   5.023   1.350   0.776  1.3523  0.6432  1.7059
   74MOL    H1914765   4.828   1.528   0.925  1.0059  1.2821  0.3992
   74MOL    H2014766   5.063   1.565   1.015  2.1523 -0.2074 -1.1970
   74MOL    H2114767   5.004   1.683   0.896 -1.5458  1.1080  0.7950
   74MOL    C2214768   5.166   1.547   0.812  0.3351  0.2178 -0.1011
   74MOL    C2314769   5.281   1.638   0.855  0.3828  0.1450 -0.3896
   74MOL    C2414770   5.400   1.597   0.909 -0.5350 -0.6529 -0.8371
   74MOL    C2514771   5.501   1.693   0.972  0.1305 -0.3264 -0.1531
   74MOL    H2614772   5.198   1.445   0.831 -1.0346 -0.5909 -1.9882
   74MOL    H2714773   5.156   1.550   0.704  1.3657  0.6587 -0.1886
   74MOL    H2814774   5.252   1.742   0.859  0.4665  0.1293  0.9560
   74MOL    H2914775   5.409   1.490   0.921 -2.6700 -1.0241 -2.1693
   74MOL    H3014776   5.444   1.786   0.969  0.6547 -0.0378 -2.2390
   74MOL    H3114777   5.583   1.717   0.905 -0.6174 -0.0776 -0.9888
   74MOL    C3214778   5.549   1.645   1.113 -0.5629  0.1743  0.1529
   74MOL    C3314779   5.639   1.741   1.176 -0.3501 -0.1824 -0.1988
   74MOL    C3414780   5.761   1.711   1.219 -0.4437  0.0031 -0.5340
   74MOL    C3514781   5.843   1.806   1.295  0.4435  0.4855 -0.0216
   74MOL    H3614782   5.466   1.622   1.181 -0.2426  1.6097  1.0394
   74MOL    H3714783   5.608   1.555   1.096 -1.1213  0.0188 -0.9940
   74MOL    H3814784   5.599   1.840   1.193  1.8144  0.6150  0.3784
   74MOL    H3914785   5.805   1.613   1.220 -1.9992 -0.7103  1.0938
   74MOL    H4014786   5.793   1.903   1.293 -0.3874  0.0348 -1.4728
   74MOL    H4114787   5.928   1.816   1.227  1.0597 -0.5832  0.5795
   74MOL    C4214788   5.878   1.776   1.440  0.0399  1.1013  0.5223
   74MOL    C4314789   5.985   1.869   1.487 -0.4176  0.3472  0.2710
   74MOL    C4414790   6.113   1.845   1.507  0.0713 -0.4218  0.5567
   74MOL    C4514791   6.213   1.939   1.567  0.1246  0.2124 -0.4692
   74MOL    H4614792   5.799   1.770   1.515  1.5663  1.0591  2.1667
   74MOL    H4714793   5.921   1.676   1.431  2.9984  2.3482  0.0199
   74MOL    H4814794   5.954   1.966   1.523 -0.3428  0.0128  1.2679
   74MOL    H4914795   6.143   1.746   1.476 -1.0748 -0.8263  0.7116
   74MOL    H5014796   6.166   2.037   1.576  0.5237  0.3994 -0.3787
   74MOL    H5114797   6.288   1.958   1.490 -2.2200  0.9046 -2.6533
   74MOL    C5214798   6.277   1.877   1.696  0.5871  0.3491  0.0732
   74MOL    C5314799   6.393   1.964   1.750  0.5732  0.3059  0.1116
   74MOL    C5414800   6.511   1.910   1.786  0.2579  0.1483  0.4651
   74MOL    C5514801   6.617   1.990   1.859  0.3435 -0.0529  0.3133
   74MOL    H5614802   6.195   1.874   1.769  1.9351  1.3774  1.6678
   74MOL    H5714803   6.316   1.777   1.677  0.7353  0.1177  1.5192
   74MOL    H5814804   6.363   2.063   1.781  1.5303  0.2679  1.1765
   74MOL    H5914805   6.541   1.810   1.760 -1.6545  0.0861 -1.5966
   74MOL    H6014806   6.682   1.914   1.903 -0.2154  0.5983  2.3095
   74MOL    H6114807   6.564   2.047   1.936 -0.9857  0.8425 -1.2294
   74MOL    C6214808   6.687   2.084   1.767  0.3056  0.3253  0.4498
   74MOL    C6314809   6.782   2.181   1.840 -0.5225  0.5411 -0.2072
   74MOL    C6414810   6.799   2.306   1.803  0.4116  0.0981 -0.1170
   74MOL    C6514811   6.882   2.415   1.864 -0.0937  0.1811 -0.1502
   74MOL    H6614812   6.755   2.032   1.699  1.5986 -1.7947  3.2505
   74MOL    H6714813   6.612   2.152   1.727 -0.4855 -1.2133 -0.7465
   74MOL    H6814814   6.822   2.152   1.936 -1.6451  0.0829  0.1403
   74MOL    H6914815   6.745   2.346   1.718  0.0968  0.1600  0.1137
   74MOL    H7014816   6.948   2.361   1.932  0.9262 -0.1611 -1.4041
   74MOL    H7114817   6.821   2.468   1.938  0.0714 -1.9546  1.5350
   74MOL    C7214818   6.938   2.509   1.760 -0.7111  0.1299  0.3094
   74MOL    C7314819   7.036   2.609   1.825 -0.4834  0.1381 -0.3874
   74MOL    C7414820   7.167   2.616   1.800  0.0948  0.4334  0.2413
   74MOL    C7514821   7.276   2.702   1.861 -0.6474  0.3918 -0.1265
   74MOL    H7614822   6.990   2.454   1.682  0.0142  0.2336  0.7063
   74MOL    H7714823   6.860   2.570   1.714  0.8497 -0.2837 -3.0333
   74MOL    H7814824   7.004   2.689   1.890 -2.3718 -1.5788  0.8594
   74MOL    H7914825   7.210   2.540   1.736  2.7803  2.9309 -1.0469
   74MOL    H8014826   7.353   2.637   1.903  0.1947  1.4974  0.0498
   74MOL    H8114827   7.232   2.761   1.941 -0.4977  0.9743 -0.4694
   74MOL    C8214828   7.345   2.800   1.767 -0.4333 -0.2532 -0.4380
   74MOL    C8314829   7.444   2.898   1.830  0.2014  0.0835  0.6263
   74MOL    C8414830   7.572   2.902   1.789  0.5413  0.7404  0.0571
   74MOL    C8514831   7.668   2.997   1.850 -0.5881  0.3178  0.1333
   74MOL    H8614832   7.395   2.745   1.687  0.6830 -1.1328  0.8480
   74MOL    H8714833   7.276   2.860   1.707 -2.1820 -1.4209  0.3697
   74MOL    H8814834   7.411   2.970   1.902 -2.4629 -1.9673  1.5479
   74MOL    H8914835   7.605   2.820   1.727  0.3018  0.9360 -0.3310
   74MOL    H9014836   7.706   2.972   1.950 -0.8512 -0.3706  0.0613
   74MOL    H9114837   7.604   3.084   1.866 -1.5987 -0.3884 -0.0410
   74MOL    C9214838   7.778   3.033   1.749 -0.8241  0.3307 -0.2301
   74MOL    C9314839   7.854   3.150   1.799  0.2810  0.0706  0.2930
   74MOL    C9414840   0.008   3.175   1.784  0.0070 -0.1072 -0.4060
   74MOL    C9514841   0.073   3.290   1.856 -0.4840  0.5337 -0.1958
   74MOL    H9614842   7.851   2.956   1.726 -0.3521 -0.0897  2.4686
   74MOL    H9714843   7.724   3.069   1.661 -0.3399  1.1239 -0.2142
   74MOL    H9814844   7.802   3.218   1.864  0.1347  1.4242 -1.2283
   74MOL    H9914845   0.061   3.108   1.718  1.6048  0.4897  0.2486
   74MOL   H10014846   0.154   3.256   1.921 -0.6523 -1.0629 -0.8032
   74MOL   H10114847   0.000   3.339   1.920 -1.3280  1.5306 -1.8966
   74MOL   C10214848   0.125   3.398   1.761 -0.6035 -0.2690  0.4149
   74MOL   C10314849   0.156   3.528   1.839  1.3451 -0.5340  0.3701
   74MOL   C10414850   0.119   3.651   1.802 -0.1865  0.5212 -0.3565
   74MOL   C10514851   0.135   3.775   1.885 -0.4712 -0.4001 -0.0445
   74MOL   H10614852   0.217   3.367   1.712 -0.5752  2.8066 -1.6159
   74MOL   H10714853   0.043   3.422   1.692  0.1655 -0.6335 -0.6343
   74MOL   H10814854   0.220   3.524   1.926  1.2465 -2.1562  0.3841
   74MOL   H10914855   0.074   3.673   1.707  0.1394 -1.4310 -0.9806
   74MOL   H11014856   0.198   3.847   1.832  1.9078 -1.3878  1.3573
   74MOL   H11114857   0.180   3.756   1.983 -2.0311  0.2917  0.8239
   74MOL   C11214858   7.976   3.847   1.927 -0.5833 -0.3253 -0.2073
   74MOL   C11314859   7.860   3.760   1.970  0.1452  0.5017  1.1815
   74MOL   C11414860   7.799   3.755   2.088 -0.4550 -0.2600 -0.6321
   74MOL   C11514861   7.676   3.676   2.120  0.0287 -0.0331 -0.5786
   74MOL   H11614862   0.021   3.923   2.003 -0.8781 -0.0104 -0.4347
   74MOL   H11714863   7.938   3.907   1.845 -1.8250 -0.3927  0.3086
   74MOL   H11814864   7.814   3.697   1.895 -0.7455 -0.2976  2.3775
   74MOL   H11914865   7.845   3.816   2.164 -0.2768 -1.1885  0.0048
   74MOL   H12014866   7.656   3.622   2.028  1.0118  0.8753 -1.3359
   74MOL   H12114867   7.590   3.743   2.131 -0.3837 -0.4301 -1.3980
   74MOL   C12214868   7.678   3.589   2.243  0.5207 -0.2809 -0.4238
   74MOL   C12314869   7.772   3.471   2.238 -0.3028  0.5109 -0.8472
   74MOL   C12414870   7.758   3.360   2.317 -0.1375  0.7699  0.9414
   74MOL   C12514871   7.841   3.232   2.310 -0.2978 -0.7080  0.0219
   74MOL   H12614872   7.701   3.646   2.334  2.5330 -2.4668  0.5022
   74MOL   H12714873   7.579   3.548   2.262  0.3852  0.7918  1.3171
   74MOL   H12814874   7.854   3.475   2.168 -0.6095  0.5049 -1.2108
   74MOL   H12914875   7.672   3.358   2.383 -0.1042  0.8087  0.9869
   74MOL   H13014876   7.849   3.186   2.409 -0.0231 -3.8467 -1.3840
   74MOL   H13114877   7.948   3.241   2.292 -0.2350 -1.0578  0.2019
   74MOL   C13214878   7.788   3.123   2.210  0.2120  0.3857  0.0249
   74MOL   C13314879   7.660   3.061   2.274 -0.3774  0.3341 -0.2676
   74MOL   C13414880   7.544   3.048   2.213 -0.2844  0.0119 -0.0321
   74MOL   C13514881   7.417   3.002   2.279  0.2815 -0.2233  0.4266
   74MOL   H13614882   7.784   3.169   2.111  0.5413  0.5527  0.0857
   74MOL   H13714883   7.863   3.046   2.190  2.6387  3.1052 -1.7737
   74MOL   H13814884   7.666   3.035   2.378 -1.1432  0.5080 -0.1765
   74MOL   H13914885   7.538   3.075   2.109  3.4072  3.3950  0.5387
   74MOL   H14014886   7.360   3.092   2.301  0.8859  0.2730 -0.0269
   74MOL   H14114887   7.432   2.949   2.373 -3.7677 -0.0083  1.3065
   74MOL   C14214888   7.328   2.933   2.179 -0.0916  0.4094 -0.0731
   74MOL   C14314889   7.201   2.884   2.241  0.2518  0.3792  0.5361
   74MOL   C14414890   7.179   2.761   2.268 -0.5730  0.7343 -0.0193
   74MOL   C14514891   7.038   2.710   2.310 -0.3950 -0.0332 -0.1215
   74MOL   H14614892   7.287   2.998   2.103  1.6974  0.3674 -1.1122
   74MOL   H14714893   7.382   2.851   2.130  0.8163 -0.9405  3.0564
   74MOL   H14814894   7.121   2.956   2.241  0.9815  1.1903 -0.2181
   74MOL   H14914895   7.260   2.693   2.246 -0.1696  1.0889  0.3755
   74MOL   H15014896   6.977   2.800   2.305 -1.6874 -0.9120 -0.3907
   74MOL   H15114897   7.030   2.675   2.413  1.6478  1.6643  0.6460
   74MOL   C15214898   6.986   2.599   2.211  0.5323 -0.7016 -0.7149
   74MOL   C15314899   6.839   2.566   2.230  0.0287 -0.6040 -0.1059
   74MOL   C15414900   6.793   2.442   2.253  0.0530 -0.6239  0.7594
   74MOL   C15514901   6.647   2.399   2.272  0.6184  0.3393  0.0211
   74MOL   H15614902   7.008   2.630   2.109 -0.3057  2.1540 -0.0687
   74MOL   H15714903   7.043   2.506   2.220 -1.5804 -2.0266 -0.5270
   74MOL   H15814904   6.771   2.650   2.224  0.1561 -0.4446  0.5850
   74MOL   H15914905   6.867   2.363   2.251 -0.3300 -0.9616 -0.5607
   74MOL   H16014906   6.580   2.476   2.232 -0.5553 -0.9679 -0.5550
   74MOL   H16114907   6.617   2.396   2.377  0.9883 -0.8078  0.0898
   74MOL   C16214908   6.613   2.273   2.197  0.5843 -0.1669  0.1612
   74MOL   C16314909   6.462   2.251   2.178  0.4037 -0.3518 -0.0837
   74MOL   C16414910   6.395   2.291   2.066  0.0672 -0.2705 -0.0074
   74MOL   C16514911   6.249   2.308   2.052 -0.3664  0.2460 -0.0806
   74MOL   H16614912   6.657   2.283   2.097 -1.3271  0.1994 -0.6524
   74MOL   H16714913   6.645   2.187   2.256 -2.0769 -1.2916 -0.0031
   74MOL   H16814914   6.405   2.239   2.270 -0.0049 -0.4548 -0.3505
   74MOL   H16914915   6.458   2.313   1.982 -0.6335 -3.0168 -1.3178
   74MOL   H17014916   6.236   2.415   2.041 -0.8083  0.1668 -0.3608
   74MOL   H17114917   6.201   2.281   2.146  1.8865  2.0014  1.6208
   74MOL   C17214918   6.182   2.225   1.935 -0.5885  0.2460  0.0726
   74MOL   C17314919   6.034   2.251   1.930 -0.5749 -0.0567 -0.3018
   74MOL   C17414920   5.980   2.331   1.838  0.3690  0.2826 -0.3002
   74MOL   C17514921   5.829   2.372   1.843  0.1866 -0.7033 -0.0831
   74MOL   H17614922   6.219   2.254   1.836  0.5738  0.5274  0.5802
   74MOL   H17714923   6.192   2.117   1.940  1.2955  0.4355  0.6123
   74MOL   H17814924   5.967   2.217   2.008  0.4006 -0.1907  0.4896
   74MOL   H17914925   6.042   2.365   1.756  1.9004 -3.1008 -0.6334
   74MOL   H18014926   5.782   2.333   1.933  0.3213 -1.2134 -0.2373
   74MOL   H18114927   5.775   2.341   1.754 -0.0292  0.3283 -0.3183
   74MOL   C18214928   5.817   2.531   1.856  0.1592 -0.1546 -0.7453
   74MOL   C18314929   5.675   2.584   1.864  0.1050  0.0967 -0.0253
   74MOL   C18414930   5.631   2.692   1.793 -0.5880  0.1928 -0.4912
   74MOL   C18514931   5.500   2.763   1.834 -0.0461 -0.2218  0.3955
   74MOL   H18614932   5.863   2.565   1.949 -0.7846  0.5192 -0.5155
   74MOL   H18714933   5.869   2.578   1.773 -0.0690 -1.7010 -1.8036
   74MOL   H18814934   5.609   2.553   1.944 -0.0159  1.6277  0.4976
   74MOL   H18914935   5.688   2.735   1.713  0.6279  0.1074  0.2999
   74MOL   H19014936   5.481   2.750   1.940 -3.9774 -2.5132 -0.4712
   74MOL   H19114937   5.424   2.718   1.769  0.5204 -1.6112  0.6703
   74MOL   C19214938   5.512   2.920   1.814 -0.3399  0.4920  0.3032
   74MOL   C19314939   5.392   2.980   1.877  0.2507  0.1808  0.2175
   74MOL   C19414940   5.386   3.025   2.002 -0.2318 -0.2551 -0.0787
   74MOL   C19514941   5.267   3.098   2.064  0.0813 -0.1833  0.2248
   74MOL   H19614942   5.601   2.951   1.869  0.4407 -0.9704 -0.1163
   74MOL   H19714943   5.527   2.945   1.709 -0.1315 -0.1871  0.1726
   74MOL   H19814944   5.305   2.994   1.815 -0.7728  1.0153  1.8039
   74MOL   H19914945   5.466   3.016   2.074 -0.3841  1.5011  0.3571
   74MOL   H20014946   5.290   3.205   2.073  2.0538 -0.5964  0.3013
   74MOL   H20114947   5.245   3.053   2.161  0.2345 -0.4706  0.1252
   74MOL   H20214948   5.176   3.093   2.004  0.0368  0.5537  0.2205
   75MOL     C114949   2.413   0.062   7.907 -0.5372  0.0072 -0.1697
   75MOL     C214950   2.503   0.155   0.005  0.3595  0.1100  0.2973
   75MOL     C314951   2.511   0.169   0.140  0.4848  0.6170 -0.2200
   75MOL     C414952   2.626   0.238   0.207  0.3515 -0.2228  0.2914
   75MOL     H514953   2.356   0.120   7.834  2.1772  1.4293 -1.2206
   75MOL     H614954   2.340   0.011   7.970  1.1178  1.7557  3.3232
   75MOL     H714955   2.569   0.213   7.918 -1.8116 -0.5676 -2.6796
   75MOL     H814956   2.444   0.121   0.209 -2.5159 -1.0661 -4.0919
   75MOL     H914957   2.669   0.313   0.142  1.4556 -2.5434 -1.7606
   75MOL    H1014958   2.712   0.172   0.221 -0.3846 -1.0813  0.9338
   75MOL    H1114959   2.473   7.965   7.855  0.4466  0.1856  0.6904
   75MOL    C1214960   2.600   0.295   0.350 -0.6117 -0.2303  0.0268
   75MOL    C1314961   2.579   0.192   0.463 -0.0099  0.2984  0.2554
   75MOL    C1414962   2.505   0.214   0.571 -0.7267 -0.6357 -0.3633
   75MOL    C1514963   2.469   0.114   0.678  0.0321 -0.4641  0.1209
   75MOL    H1614964   2.686   0.357   0.378 -2.5091  1.9268  1.1927
   75MOL    H1714965   2.514   0.361   0.340 -0.6370 -0.1786  0.5429
   75MOL    H1814966   2.618   0.092   0.446  0.6489  0.3264  1.5500
   75MOL    H1914967   2.453   0.307   0.588  0.6323  0.2153 -0.8465
   75MOL    H2014968   2.533   0.125   0.765  2.7071 -1.5226 -1.6541
   75MOL    H2114969   2.491   0.012   0.646 -1.7113 -0.1894 -2.0406
   75MOL    C2214970   2.317   0.116   0.702  0.3693  0.0174 -0.0244
   75MOL    C2314971   2.294   0.230   0.805 -0.1497 -0.1769  0.3581
   75MOL    C2414972   2.237   0.347   0.783  0.3920  0.0071 -0.9388
   75MOL    C2514973   2.211   0.465   0.881 -0.3571  0.4291  0.0723
   75MOL    H2614974   2.263   0.141   0.611  1.5726  0.1396 -0.7179
   75MOL    H2714975   2.282   0.018   0.736  0.3856 -0.6062 -1.7795
   75MOL    H2814976   2.337   0.204   0.900 -0.0883 -1.9322 -0.1332
   75MOL    H2914977   2.206   0.366   0.681 -0.7065  1.0976 -0.4199
   75MOL    H3014978   2.276   0.548   0.852  2.0669 -1.0746  1.0344
   75MOL    H3114979   2.250   0.444   0.981  1.6878 -0.8627 -0.9497
   75MOL    C3214980   2.067   0.505   0.882  0.1592 -0.0795 -0.0763
   75MOL    C3314981   2.018   0.630   0.972 -0.0895  0.7505 -0.1903
   75MOL    C3414982   2.099   0.697   1.054  0.1436 -0.4775 -0.2987
   75MOL    C3514983   2.056   0.824   1.137 -1.1087 -0.7809  0.1234
   75MOL    H3614984   2.032   0.521   0.780 -0.0057  0.3344  0.0404
   75MOL    H3714985   2.009   0.421   0.917  0.0711 -0.6090 -1.4465
   75MOL    H3814986   1.918   0.666   0.958  0.2332  2.0170  0.6805
   75MOL    H3914987   2.206   0.686   1.068  0.5268  1.8519 -1.1632
   75MOL    H4014988   1.950   0.844   1.116 -0.5020  1.8854 -0.6336
   75MOL    H4114989   2.108   0.915   1.108  0.1268 -1.0412  1.4995
   75MOL    C4214990   2.089   0.793   1.278  0.9328  0.1488 -0.3892
   75MOL    C4314991   2.016   0.871   1.384 -0.3830 -0.1475 -0.0871
   75MOL    C4414992   1.944   0.985   1.367  0.1322  0.2415  0.1553
   75MOL    C4514993   1.863   1.057   1.475 -0.3811 -0.7806  0.2919
   75MOL    H4614994   2.053   0.692   1.297  0.5011  0.3248 -0.2783
   75MOL    H4714995   2.196   0.797   1.299  0.7247 -0.3468  0.8094
   75MOL    H4814996   2.027   0.834   1.484 -2.6300  0.6626  0.4921
   75MOL    H4914997   1.933   1.029   1.269  1.4600 -3.2944 -1.6592
   75MOL    H5014998   1.896   1.016   1.571 -2.3741 -2.1835  0.4242
   75MOL    H5114999   1.762   1.021   1.454 -0.8336 -0.2668  1.5406
   75MOL    C5215000   1.878   1.208   1.472 -0.2471 -0.0875 -0.0383
   75MOL    C5315001   1.782   1.275   1.558  0.3736  1.1389 -0.1335
   75MOL    C5415002   1.811   1.338   1.671  0.2678  0.0566 -0.2075
   75MOL    C5515003   1.703   1.386   1.764  0.0481 -0.0804 -0.1675
   75MOL    H5615004   1.978   1.235   1.508  0.2442  0.2957 -1.6324
   75MOL    H5715005   1.877   1.246   1.370  3.9157 -0.3659 -0.2635
   75MOL    H5815006   1.679   1.264   1.528  0.6228  0.6653 -0.8297
   75MOL    H5915007   1.912   1.343   1.709 -0.0857  3.0161  0.4264
   75MOL    H6015008   1.749   1.408   1.860 -0.5552 -1.3812  0.4351
   75MOL    H6115009   1.639   1.298   1.780 -0.2069  0.1497  0.0740
   75MOL    C6215010   1.631   1.504   1.707  0.9361 -0.0546 -0.4706
   75MOL    C6315011   1.561   1.580   1.810 -0.6354 -0.1405  0.0172
   75MOL    C6415012   1.621   1.678   1.875  0.0362 -0.0745 -0.1564
   75MOL    C6515013   1.570   1.752   1.992 -0.2528 -0.5332 -0.5124
   75MOL    H6615014   1.693   1.575   1.651  0.6528  0.9590  0.4794
   75MOL    H6715015   1.562   1.470   1.629 -0.3524 -0.0416  0.6573
   75MOL    H6815016   1.465   1.538   1.838 -0.7674  0.2364  0.1209
   75MOL    H6915017   1.722   1.698   1.842 -0.4100  0.6756 -1.0909
   75MOL    H7015018   1.645   1.732   2.069  1.1311  1.5654 -1.2675
   75MOL    H7115019   1.474   1.715   2.030 -1.4438  1.2651 -1.6668
   75MOL    C7215020   1.543   1.898   1.961 -0.4244  0.3966  0.1306
   75MOL    C7315021   1.498   1.958   2.084  0.5151  0.0274  0.0248
   75MOL    C7415022   1.381   2.028   2.087  0.0892 -0.1432  0.4491
   75MOL    C7515023   1.306   2.078   2.212  1.0997 -0.1542 -0.0813
   75MOL    H7615024   1.631   1.955   1.934 -0.3698  1.4093  2.3700
   75MOL    H7715025   1.465   1.896   1.885 -0.7696 -1.6793  0.4923
   75MOL    H7815026   1.556   1.936   2.172  0.3779 -0.1292  0.0749
   75MOL    H7915027   1.328   2.038   1.994  0.8323  1.6678  0.1937
   75MOL    H8015028   1.212   2.024   2.225  2.0323 -1.5863  0.7721
   75MOL    H8115029   1.280   2.184   2.207  0.4890 -0.3694 -2.0595
   75MOL    C8215030   1.382   2.039   2.344  0.4356  0.8579 -0.3814
   75MOL    C8315031   1.313   2.072   2.474 -0.4415  0.1533 -0.5295
   75MOL    C8415032   1.237   1.986   2.538  1.0370 -0.1734 -0.7001
   75MOL    C8515033   1.174   2.024   2.668  0.1628  0.1167  0.3734
   75MOL    H8615034   1.387   1.930   2.333 -1.1046  0.8609 -1.3295
   75MOL    H8715035   1.485   2.072   2.352  0.2876  1.1726  0.2270
   75MOL    H8815036   1.317   2.172   2.517  0.2710 -0.3203  0.5257
   75MOL    H8915037   1.219   1.887   2.499 -2.2550  0.0620  0.0996
   75MOL    H9015038   1.076   2.059   2.639  0.1458 -0.6672 -0.5551
   75MOL    H9115039   1.223   2.108   2.717  0.4799  0.6052 -0.7568
   75MOL    C9215040   1.176   1.903   2.768  0.2766 -0.0035 -0.4234
   75MOL    C9315041   1.073   1.800   2.738  0.2362  0.3307  0.5889
   75MOL    C9415042   1.077   1.666   2.751 -0.3937 -0.1022  0.2122
   75MOL    C9515043   0.962   1.570   2.716  0.5125 -0.6310 -0.0970
   75MOL    H9615044   1.276   1.860   2.768  0.7847  1.1448 -1.1852
   75MOL    H9715045   1.159   1.939   2.869  0.9802 -1.1450  0.1090
   75MOL    H9815046   0.980   1.850   2.713  0.0586 -0.2353  0.1021
   75MOL    H9915047   1.171   1.628   2.790 -0.2761  0.9059  0.9424
   75MOL   H10015048   0.998   1.500   2.641 -0.1007 -0.3438 -0.6693
   75MOL   H10115049   0.896   1.633   2.656 -1.1265 -1.7541  0.5079
   75MOL   C10215050   0.897   1.504   2.829 -0.5079  0.2273 -0.6858
   75MOL   C10315051   0.822   1.371   2.803 -0.7366 -0.0386 -0.1778
   75MOL   C10415052   0.841   1.250   2.858  0.1929  0.8087 -0.0208
   75MOL   C10515053   0.773   1.121   2.818  0.1845  0.3569  0.9012
   75MOL   H10615054   0.975   1.475   2.900 -0.5113  0.8228 -0.4352
   75MOL   H10715055   0.837   1.577   2.884  1.1804  1.0744  0.0572
   75MOL   H10815056   0.745   1.364   2.727 -1.4339 -0.3074  0.5510
   75MOL   H10915057   0.914   1.253   2.937 -1.9175 -1.2720  2.1238
   75MOL   H11015058   0.845   1.046   2.784 -0.0855  0.8438 -0.8136
   75MOL   H11115059   0.712   1.143   2.730  1.8688  2.0697  0.1342
   75MOL   C11215060   0.684   1.069   2.932  0.1682 -0.4390  0.2723
   75MOL   C11315061   0.552   1.141   2.939 -0.6489  0.2861 -0.4215
   75MOL   C11415062   0.433   1.086   2.926 -0.2697  0.1306  0.5507
   75MOL   C11515063   0.295   1.160   2.919 -0.2535 -0.0931  0.0959
   75MOL   H11615064   0.666   0.962   2.930 -0.3452 -0.3284 -0.7336
   75MOL   H11715065   0.724   1.091   3.032 -0.2178  0.0359  0.3273
   75MOL   H11815066   0.554   1.248   2.952  0.2610  0.3955 -1.3834
   75MOL   H11915067   0.420   0.980   2.910 -3.6530  0.3974  1.1019
   75MOL   H12015068   0.315   1.266   2.907  0.1969 -0.3632 -1.7124
   75MOL   H12115069   0.238   1.153   3.011  0.1476  3.1911  0.6496
   75MOL   C12215070   0.215   1.119   2.795 -0.6442  0.2163  0.6625
   75MOL   C12315071   0.169   0.975   2.799 -0.1474 -0.0586  0.9215
   75MOL   C12415072   0.060   0.923   2.744  0.0383 -0.5885  0.4870
   75MOL   C12515073   0.024   0.778   2.742  0.7535  0.8871  0.5485
   75MOL   H12615074   0.133   1.191   2.790  0.2966  1.2147 -1.0631
   75MOL   H12715075   0.270   1.144   2.704  0.7108 -3.1298  0.4918
   75MOL   H12815076   0.235   0.900   2.839  2.6156  1.3300 -0.8453
   75MOL   H12915077   7.969   0.989   2.692  1.0358  1.5404  1.8088
   75MOL   H13015078   0.111   0.727   2.785 -0.3643  0.7099  2.6750
   75MOL   H13115079   0.028   0.744   2.639 -1.0121 -1.3542  1.1754
   75MOL   C13215080   7.869   0.752   2.815  0.2877 -0.3769 -0.0153
   75MOL   C13315081   7.875   0.788   2.957 -0.3715 -0.6544 -0.1266
   75MOL   C13415082   7.806   0.888   3.015 -0.2920 -0.6258  0.5637
   75MOL   C13515083   7.829   0.925   3.160 -0.4293  0.7100  0.3306
   75MOL   H13615084   7.790   0.810   2.767 -0.6414 -0.6997  1.1024
   75MOL   H13715085   7.834   0.649   2.805 -1.6812  0.4685 -2.5136
   75MOL   H13815086   7.949   0.735   3.016  0.0030 -0.8105 -0.7401
   75MOL   H13915087   7.726   0.946   2.972  1.2498 -0.0252 -1.5658
   75MOL   H14015088   7.897   0.849   3.198 -1.7372  0.3251  1.9458
   75MOL   H14115089   7.736   0.910   3.215 -1.1242  1.5377 -0.5946
   75MOL   C14215090   7.888   1.060   3.178  0.5955 -0.4307  0.2785
   75MOL   C14315091   7.795   1.175   3.202 -0.3178  0.2477  0.2230
   75MOL   C14415092   7.773   1.276   3.113  0.4622 -0.1316  0.0844
   75MOL   C14515093   7.683   1.395   3.135  1.0083 -0.5076  0.4636
   75MOL   H14615094   7.948   1.053   3.269  1.8393 -0.3185 -0.5219
   75MOL   H14715095   7.960   1.089   3.101 -1.5510 -0.8927 -1.9504
   75MOL   H14815096   7.746   1.171   3.298  0.6008 -0.3524  0.6750
   75MOL   H14915097   7.822   1.276   3.018 -1.3616 -0.4520 -0.8861
   75MOL   H15015098   7.663   1.437   3.234 -0.3240 -0.9685  0.4114
   75MOL   H15115099   7.583   1.353   3.122  0.7452  0.5066 -0.9294
   75MOL   C15215100   7.714   1.519   3.049  0.3484  0.6580 -0.8299
   75MOL   C15315101   7.605   1.622   3.066 -0.2665 -0.7451 -0.1200
   75MOL   C15415102   7.538   1.669   2.960  0.1711  0.1089  0.8319
   75MOL   C15515103   7.424   1.770   2.964  0.9823 -0.2638  0.7581
   75MOL   H15615104   7.806   1.571   3.078 -0.7978  2.4523 -0.3184
   75MOL   H15715105   7.725   1.485   2.946 -1.1076  0.0513 -0.7921
   75MOL   H15815106   7.598   1.645   3.171  1.1856  0.0580 -0.1991
   75MOL   H15915107   7.572   1.631   2.865  0.4068  2.2096  0.0548
   75MOL   H16015108   7.396   1.780   3.069 -0.5490  0.2178  0.3205
   75MOL   H16115109   7.339   1.722   2.917  1.6918 -0.4571 -0.3385
   75MOL   C16215110   7.463   1.905   2.898  0.2887 -0.2592  0.1125
   75MOL   C16315111   7.383   2.021   2.954 -0.3356 -0.4106  0.1168
   75MOL   C16415112   7.433   2.132   3.004 -0.3394 -0.8898 -0.9462
   75MOL   C16515113   7.346   2.247   3.066 -0.3321 -0.0855  0.1244
   75MOL   H16615114   7.570   1.922   2.915  0.5005 -0.5190 -0.9488
   75MOL   H16715115   7.441   1.907   2.792  1.3138  0.3514 -0.1005
   75MOL   H16815116   7.275   2.014   2.949 -0.2952 -0.3616 -0.8632
   75MOL   H16915117   7.541   2.136   3.007 -0.4080  1.6359 -0.8694
   75MOL   H17015118   7.341   2.247   3.175 -4.1125 -0.4416  0.0302
   75MOL   H17115119   7.243   2.225   3.039 -0.9578  1.9911  0.7484
   75MOL   C17215120   7.376   2.392   3.014 -0.0566  0.2154 -0.4066
   75MOL   C17315121   7.507   2.462   3.056 -0.3904 -0.0332 -0.8061
   75MOL   C17415122   7.525   2.507   3.181 -0.0105  0.0374 -0.6698
   75MOL   C17515123   7.654   2.566   3.230  0.7289  0.4210  0.4435
   75MOL   H17615124   7.372   2.414   2.908  1.0834  2.3225 -0.0398
   75MOL   H17715125   7.298   2.455   3.057 -1.2640 -1.0446 -0.6985
   75MOL   H17815126   7.589   2.456   2.986  0.5009 -0.9986  0.2901
   75MOL   H17915127   7.446   2.507   3.255 -0.2757 -1.3430 -0.9392
   75MOL   H18015128   7.729   2.517   3.168 -1.2136 -0.7908 -1.0379
   75MOL   H18115129   7.673   2.535   3.333 -0.1090 -1.5901  0.0211
   75MOL   C18215130   7.650   2.716   3.226  0.3030 -1.2817  0.1892
   75MOL   C18315131   7.784   2.780   3.255 -0.7314  0.9448  0.1976
   75MOL   C18415132   7.788   2.889   3.332  0.3123  0.1219 -0.1001
   75MOL   C18515133   7.913   2.972   3.369 -0.2566  0.9842  0.3590
   75MOL   H18615134   7.624   2.753   3.127 -1.3379  0.3788  1.2046
   75MOL   H18715135   7.566   2.744   3.290  0.7215 -1.6000  0.8898
   75MOL   H18815136   7.868   2.725   3.215 -1.5524 -0.8927  0.9342
   75MOL   H18915137   7.698   2.929   3.375  0.8169 -0.8758  1.9136
   75MOL   H19015138   7.898   3.066   3.316 -0.1631 -0.5880 -2.5649
   75MOL   H19115139   0.029   2.927   3.333 -0.9916  0.0643 -0.4180
   75MOL   C19215140   7.924   2.986   3.520 -0.1116  0.4920  0.4567
   75MOL   C19315141   0.055   3.084   3.562  0.5400  0.8821  0.3505
   75MOL   C19415142   0.043   3.186   3.658  0.6992  0.7584 -0.2529
   75MOL   C19515143   0.146   3.278   3.704  0.5348 -0.0796  0.3371
   75MOL   H19615144   7.828   3.027   3.553  0.0088  0.9556  0.2246
   75MOL   H19715145   7.939   2.887   3.565 -1.7507  0.2434  0.4954
   75MOL   H19815146   0.148   3.055   3.516  1.7477 -0.1964  3.3833
   75MOL   H19915147   7.922   3.212   3.697 -0.4999 -2.9485 -0.5804
   75MOL   H20015148   0.125   3.382   3.678  0.9921  0.4470  2.0257
   75MOL   H20115149   0.243   3.262   3.657  1.5669 -0.9376  2.7060
   75MOL   H20215150   0.168   3.275   3.811 -2.2813  1.2101  1.0040
   76MOL     C115151   3.047   4.121   0.979 -0.5564 -0.0535  0.1298
   76MOL     C215152   2.927   4.112   1.072 -0.3116  0.6313 -0.2478
   76MOL     C315153   2.865   4.217   1.128  0.0921  0.3733 -0.7458
   76MOL     C415154   2.744   4.207   1.209 -0.3293 -0.2611 -0.5863
   76MOL     H515155   3.054   4.221   0.936 -1.0686  0.4604  1.2044
   76MOL     H615156   3.033   4.049   0.899  1.1917 -0.5288  0.2408
   76MOL     H715157   2.882   4.016   1.092 -1.5009  1.5627  1.6430
   76MOL     H815158   2.904   4.314   1.101 -1.2421  0.9886 -0.5142
   76MOL     H915159   2.793   4.202   1.307 -0.7208 -1.2297 -0.4334
   76MOL    H1015160   2.671   4.129   1.189  1.7914 -3.4519  3.4109
   76MOL    H1115161   3.141   4.096   1.028 -0.5183 -0.9486 -0.3853
   76MOL    C1215162   2.652   4.330   1.198  0.4626 -0.1549  0.1348
   76MOL    C1315163   2.702   4.448   1.273  0.3735 -0.4646  0.3261
   76MOL    C1415164   2.800   4.532   1.244 -0.5110  0.5884 -0.3924
   76MOL    C1515165   2.848   4.638   1.338  0.4112 -0.2858  0.2889
   76MOL    H1615166   2.630   4.351   1.093  0.2171  1.5284  0.5039
   76MOL    H1715167   2.561   4.300   1.250  0.0034  1.5629  0.3640
   76MOL    H1815168   2.656   4.465   1.369  1.2331  0.7443  0.5350
   76MOL    H1915169   2.851   4.528   1.149  0.0177 -2.2218 -0.0287
   76MOL    H2015170   2.944   4.601   1.374 -0.0261 -0.3462  1.4273
   76MOL    H2115171   2.791   4.640   1.431  1.2636  2.0286  0.8096
   76MOL    C2215172   2.838   4.773   1.274 -0.3732 -0.3236  0.6150
   76MOL    C2315173   2.908   4.887   1.339  0.4668 -0.8462 -0.0588
   76MOL    C2415174   3.001   4.890   1.433  0.3994  0.1823 -0.4352
   76MOL    C2515175   3.050   5.024   1.494  0.4369  0.0616  0.5122
   76MOL    H2615176   2.846   4.769   1.166 -0.8800  0.0065  0.5643
   76MOL    H2715177   2.734   4.805   1.274 -0.2004  0.2524 -0.0108
   76MOL    H2815178   2.888   4.988   1.305 -1.7525 -1.4972 -0.7577
   76MOL    H2915179   3.037   4.801   1.483 -2.5209  0.1901  1.8422
   76MOL    H3015180   3.027   5.007   1.599  0.3754  2.5884  0.9482
   76MOL    H3115181   2.980   5.100   1.461  0.4396  0.1837  0.7926
   76MOL    C3215182   3.199   5.050   1.461 -0.4883 -0.3914  0.0217
   76MOL    C3315183   3.291   4.964   1.543 -0.3363  0.8870 -0.8662
   76MOL    C3415184   3.336   4.838   1.507 -0.4718  0.7399  0.0430
   76MOL    C3515185   3.420   4.737   1.583  0.3135 -0.4837 -0.0182
   76MOL    H3615186   3.218   5.047   1.354 -0.6125  1.0481 -0.0464
   76MOL    H3715187   3.215   5.156   1.480 -1.9269  0.2631 -2.2334
   76MOL    H3815188   3.315   5.003   1.641  0.8120  1.0007 -1.1878
   76MOL    H3915189   3.310   4.805   1.407  1.3692 -0.7090  0.0205
   76MOL    H4015190   3.495   4.701   1.514  0.0067 -0.2923 -0.4498
   76MOL    H4115191   3.363   4.649   1.614 -0.1233  0.0803  0.8116
   76MOL    C4215192   3.488   4.798   1.706 -0.5722  0.0620 -0.6116
   76MOL    C4315193   3.562   4.701   1.802 -0.9018  0.1887 -0.5061
   76MOL    C4415194   3.567   4.693   1.935 -0.4057 -0.7567  0.3071
   76MOL    C4515195   3.635   4.583   2.015  0.1285 -0.5173  0.6961
   76MOL    H4615196   3.552   4.877   1.664 -2.6352  0.3152 -3.3953
   76MOL    H4715197   3.419   4.853   1.770  0.5716  0.3977  0.3561
   76MOL    H4815198   3.617   4.618   1.760  1.7839  1.6732 -0.0930
   76MOL    H4915199   3.517   4.771   1.990 -0.8886 -1.0569  0.3010
   76MOL    H5015200   3.598   4.488   1.977 -0.4094 -1.1194  2.6656
   76MOL    H5115201   3.594   4.598   2.115 -0.7720 -0.4051  0.3119
   76MOL    C5215202   3.794   4.584   2.002 -0.2450  0.4737 -0.4557
   76MOL    C5315203   3.853   4.483   2.104  0.0344 -0.8785 -0.2821
   76MOL    C5415204   3.804   4.392   2.186  0.3029 -0.5152 -0.6480
   76MOL    C5515205   3.897   4.303   2.268  0.1112 -0.1034 -0.0143
   76MOL    H5615206   3.825   4.566   1.899  2.5050 -3.2559  0.8868
   76MOL    H5715207   3.832   4.684   2.025 -0.0433  0.5348 -1.0479
   76MOL    H5815208   3.960   4.485   2.115  0.0088  3.1602  0.0979
   76MOL    H5915209   3.698   4.371   2.189  0.4060 -0.8328  2.0882
   76MOL    H6015210   3.856   4.302   2.369  0.4269  0.2024  0.1159
   76MOL    H6115211   3.995   4.349   2.270 -0.4291  1.1776 -1.5058
   76MOL    C6215212   3.920   4.163   2.202 -0.1221 -0.4611 -0.1360
   76MOL    C6315213   3.965   4.171   2.056 -0.6342  0.2870 -0.5983
   76MOL    C6415214   3.906   4.116   1.946  0.3032 -0.5976  0.2319
   76MOL    C6515215   3.957   4.133   1.804 -0.0345  0.0322 -0.3687
   76MOL    H6615216   3.998   4.116   2.262  0.2766 -1.6075 -1.5032
   76MOL    H6715217   3.833   4.099   2.218 -0.6161  0.4615  0.9178
   76MOL    H6815218   4.051   4.232   2.037 -1.2945  1.3886 -0.0707
   76MOL    H6915219   3.818   4.056   1.962 -0.0972 -0.2214 -0.5329
   76MOL    H7015220   4.066   4.130   1.807  0.0039  1.4154  0.3203
   76MOL    H7115221   3.941   4.235   1.769 -0.1174  1.3724  3.2856
   76MOL    C7215222   3.905   4.032   1.706  0.3126 -0.1279 -0.3826
   76MOL    C7315223   3.976   4.048   1.574 -1.0877  0.3361 -0.2519
   76MOL    C7415224   3.909   4.048   1.459 -0.0949 -0.1841  0.2907
   76MOL    C7515225   3.969   4.062   1.322  0.0929  0.6627  0.0817
   76MOL    H7615226   3.912   3.926   1.730 -1.0019 -0.2293 -0.3865
   76MOL    H7715227   3.796   4.037   1.711  0.2251 -3.2988  3.5660
   76MOL    H7815228   4.084   4.045   1.578 -1.1279 -2.7025 -0.2920
   76MOL    H7915229   3.802   4.044   1.450  0.1113 -1.0995 -2.1216
   76MOL    H8015230   3.928   3.976   1.269  0.0354  0.4739  0.4316
   76MOL    H8115231   4.077   4.054   1.331  0.0839 -2.0267 -1.6568
   76MOL    C8215232   3.932   4.187   1.245  0.3412  0.5298  0.2020
   76MOL    C8315233   3.999   4.183   1.111  0.6628  0.4925 -0.1011
   76MOL    C8415234   4.097   4.263   1.078  0.7385 -0.6627 -0.2887
   76MOL    C8515235   4.171   4.259   0.950  0.9696 -0.1694 -0.2506
   76MOL    H8615236   3.823   4.178   1.234  0.1850 -0.0087  2.0128
   76MOL    H8715237   3.966   4.274   1.302 -0.2860 -1.3396  3.5776
   76MOL    H8815238   3.966   4.105   1.044 -1.3115 -0.7981  2.2779
   76MOL    H8915239   4.128   4.332   1.155 -0.1652 -2.2736  1.5561
   76MOL    H9015240   4.123   4.326   0.880  2.8219  2.5513  1.0024
   76MOL    H9115241   4.166   4.160   0.903 -0.9569 -0.0668 -0.2863
   76MOL    C9215242   4.312   4.304   0.961 -1.2111 -0.7909  0.1335
   76MOL    C9315243   4.357   4.365   0.826  0.1453 -0.0222  0.5329
   76MOL    C9415244   4.400   4.486   0.813 -0.1903 -0.4358  0.1383
   76MOL    C9515245   4.448   4.558   0.683 -0.8136  0.5617 -0.2459
   76MOL    H9615246   4.331   4.370   1.045  2.0487  0.5470 -1.5537
   76MOL    H9715247   4.373   4.215   0.975  1.6949  1.0824 -0.2397
   76MOL    H9815248   4.359   4.302   0.738 -0.4784  2.2108 -1.1075
   76MOL    H9915249   4.409   4.537   0.907 -0.6275 -0.0734 -0.0178
   76MOL   H10015250   4.414   4.505   0.594  0.3930 -2.1611  0.8281
   76MOL   H10115251   4.553   4.531   0.667 -1.1001 -1.2239  0.6855
   76MOL   C10215252   4.403   4.704   0.673 -0.2555 -0.1497  0.0672
   76MOL   C10315253   4.428   4.794   0.797 -0.2114 -0.9215  0.1077
   76MOL   C10415254   4.484   4.917   0.783  1.2121  0.1511 -0.6762
   76MOL   C10515255   4.483   5.016   0.897 -0.0428 -0.1207  0.2461
   76MOL   H10615256   4.453   4.754   0.590 -0.7477 -1.0772 -0.8025
   76MOL   H10715257   4.300   4.704   0.637 -0.0228  2.5201 -0.7165
   76MOL   H10815258   4.403   4.758   0.896  2.8502 -0.3565  1.1411
   76MOL   H10915259   4.509   4.954   0.684 -0.7408  1.6435 -0.6366
   76MOL   H11015260   4.538   4.974   0.981  0.5282  0.3453  0.1057
   76MOL   H11115261   4.377   5.028   0.921  0.2697  1.5366  0.8360
   76MOL   C11215262   4.555   5.153   0.874 -0.6831 -0.3879  0.8586
   76MOL   C11315263   4.711   5.143   0.865 -0.3102 -0.1592  0.6338
   76MOL   C11415264   4.796   5.035   0.848  0.5133  0.1816  0.2478
   76MOL   C11515265   4.949   5.041   0.843 -0.4542  0.2045  0.1524
   76MOL   H11615266   4.513   5.204   0.787  1.0753  2.9340  1.8672
   76MOL   H11715267   4.541   5.212   0.965  0.0180  0.8301  0.1949
   76MOL   H11815268   4.766   5.235   0.852 -0.1625 -0.6035 -2.1684
   76MOL   H11915269   4.754   4.936   0.844  0.7229  0.0959  0.1911
   76MOL   H12015270   4.999   5.137   0.846  2.8582 -1.4066 -0.9718
   76MOL   H12115271   4.967   5.002   0.743 -0.8740 -1.5268  0.7264
   76MOL   C12215272   5.020   4.954   0.946  0.6576  1.0294 -0.1803
   76MOL   C12315273   5.147   4.899   0.891 -1.4403 -0.0071  0.5933
   76MOL   C12415274   5.269   4.924   0.940 -0.1457 -0.1771  0.0606
   76MOL   C12515275   5.398   4.863   0.892  0.1823 -0.5945 -0.0531
   76MOL   H12615276   5.041   5.010   1.037  3.5474 -1.8395  1.0081
   76MOL   H12715277   4.948   4.875   0.969 -0.9324  2.1809 -1.0668
   76MOL   H12815278   5.140   4.833   0.806  1.7498  0.2683  0.0687
   76MOL   H12915279   5.288   5.000   1.014 -3.1108  0.0145  0.6620
   76MOL   H13015280   5.444   4.926   0.816  0.5211 -2.8130 -1.7611
   76MOL   H13115281   5.388   4.775   0.827  0.0803 -0.5584 -0.0852
   76MOL   C13215282   5.494   4.825   1.011  0.3545  0.2875  0.3286
   76MOL   C13315283   5.617   4.753   0.957 -0.3141  0.1662  0.1186
   76MOL   C13415284   5.654   4.625   0.961  0.2352 -0.0123  0.3021
   76MOL   C13515285   5.776   4.573   0.888  0.5537  0.1470 -0.0509
   76MOL   H13615286   5.530   4.914   1.062  1.0523 -0.0675  0.4577
   76MOL   H13715287   5.443   4.759   1.080 -1.5523  0.0244 -1.2860
   76MOL   H13815288   5.676   4.827   0.904  0.2760 -0.2284  0.2270
   76MOL   H13915289   5.594   4.553   1.014 -3.6785  1.6168 -1.6611
   76MOL   H14015290   5.832   4.513   0.960 -2.6664 -2.3911  0.4739
   76MOL   H14115291   5.825   4.655   0.836 -1.5722 -0.3852 -3.0373
   76MOL   C14215292   5.738   4.477   0.776 -0.9887  0.6859 -0.2158
   76MOL   C14315293   5.863   4.438   0.700 -0.4360  0.7340  0.1080
   76MOL   C14415294   5.876   4.474   0.569 -0.2002  0.6008 -0.2020
   76MOL   C14515295   6.007   4.447   0.490  0.3139 -0.3681  0.9666
   76MOL   H14615296   5.691   4.389   0.821 -2.4674  1.9973  0.8255
   76MOL   H14715297   5.672   4.531   0.709 -0.8988  0.3296 -0.5913
   76MOL   H14815298   5.945   4.388   0.750 -1.3352  0.3013  1.1657
   76MOL   H14915299   5.805   4.536   0.517  0.4806  0.2087 -1.6201
   76MOL   H15015300   6.079   4.378   0.534  1.7780 -0.7584 -1.9163
   76MOL   H15115301   6.059   4.541   0.469  0.4967 -0.3380  1.5343
   76MOL   C15215302   5.973   4.371   0.358 -0.4241  0.3435 -1.0517
   76MOL   C15315303   6.084   4.378   0.249  0.0318  0.1969 -0.1002
   76MOL   C15415304   6.217   4.396   0.267  0.4293  0.0980 -0.2092
   76MOL   C15515305   6.311   4.402   0.149  0.0409  0.0045 -0.3609
   76MOL   H15615306   5.937   4.274   0.392  0.1455  0.9300  1.3504
   76MOL   H15715307   5.882   4.416   0.318 -2.9874 -1.5999  2.2836
   76MOL   H15815308   6.052   4.374   0.146  0.4731 -0.0282 -0.2318
   76MOL   H15915309   6.254   4.419   0.366  1.2985 -0.5617 -0.3768
   76MOL   H16015310   6.324   4.503   0.110  0.8605 -0.5983 -1.6782
   76MOL   H16115311   6.269   4.347   0.065 -1.9323 -0.1032  0.6549
   76MOL   C16215312   6.455   4.347   0.178  0.0415 -0.4879  0.1896
   76MOL   C16315313   6.465   4.224   0.266 -0.6806  0.2152  0.5303
   76MOL   C16415314   6.540   4.210   0.377  0.3454 -0.7530  0.3623
   76MOL   C16515315   6.547   4.079   0.456  0.4868  0.1407 -0.0485
   76MOL   H16615316   6.510   4.334   0.085  3.1639 -1.5396  2.1181
   76MOL   H16715317   6.508   4.419   0.240  0.9772  0.4474 -1.6646
   76MOL   H16815318   6.423   4.137   0.217  1.4007 -0.2046 -0.5678
   76MOL   H16915319   6.587   4.300   0.414 -1.0475  0.1104  0.0918
   76MOL   H17015320   6.536   3.995   0.388  0.3945  0.7106 -0.7424
   76MOL   H17115321   6.458   4.085   0.518  0.3503 -1.1340 -0.1115
   76MOL   C17215322   6.672   4.074   0.560 -0.1416 -0.0574 -0.1473
   76MOL   C17315323   6.726   3.939   0.570  0.6923  0.2105  0.3994
   76MOL   C17415324   6.755   3.861   0.681 -0.2830 -0.1251 -0.4714
   76MOL   C17515325   6.837   3.736   0.681 -0.1984  0.6672  0.3909
   76MOL   H17615326   6.763   4.126   0.528  0.1658  0.4951  1.5234
   76MOL   H17715327   6.648   4.112   0.660  0.7810  3.2440 -1.1211
   76MOL   H17815328   6.754   3.900   0.473 -2.5940  0.2257 -0.6191
   76MOL   H17915329   6.759   3.912   0.776  2.7048  0.0082 -0.6248
   76MOL   H18015330   6.929   3.756   0.736 -1.3519  1.0723  2.2177
   76MOL   H18115331   6.865   3.717   0.577  1.9308 -2.1924  1.4403
   76MOL   C18215332   6.759   3.614   0.729  0.3230  0.6095 -0.4377
   76MOL   C18315333   6.757   3.613   0.878 -0.5944 -0.8922  0.2896
   76MOL   C18415334   6.652   3.636   0.957 -0.1290 -0.0964  0.3396
   76MOL   C18515335   6.657   3.637   1.107 -0.1319  0.5171  0.0574
   76MOL   H18615336   6.654   3.617   0.702 -0.1583 -0.3455  1.2509
   76MOL   H18715337   6.801   3.522   0.689 -0.9988 -0.0452 -0.3279
   76MOL   H18815338   6.850   3.597   0.930 -0.1993 -1.0432 -0.4658
   76MOL   H18915339   6.554   3.649   0.913  0.0259  0.4392  0.1404
   76MOL   H19015340   6.735   3.564   1.130  0.5876  1.2443 -0.0157
   76MOL   H19115341   6.568   3.596   1.155  0.5850  0.2559  1.1781
   76MOL   C19215342   6.672   3.778   1.171 -0.0606  0.4729 -0.7111
   76MOL   C19315343   6.680   3.769   1.325  0.1984 -0.0860  0.0923
   76MOL   C19415344   6.578   3.784   1.415  0.5088  0.0607  0.7976
   76MOL   C19515345   6.596   3.792   1.565  0.0086 -0.4953 -0.2609
   76MOL   H19615346   6.761   3.837   1.147 -0.3275  2.2852  2.4103
   76MOL   H19715347   6.585   3.840   1.150  0.1439  0.9036 -0.2972
   76MOL   H19815348   6.779   3.746   1.361  1.0844  1.2618 -1.4360
   76MOL   H19915349   6.481   3.807   1.373  0.3980 -0.8923  0.5170
   76MOL   H20015350   6.530   3.720   1.614 -0.7246  1.6600  2.0495
   76MOL   H20115351   6.569   3.892   1.600  1.5228 -0.1394 -0.0766
   76MOL   H20215352   6.694   3.762   1.603 -0.1201  0.1484  0.6124
   77MOL     C115353   3.966   0.556   4.513 -0.5354 -0.0663 -0.5273
   77MOL     C215354   3.954   0.551   4.358 -0.2845 -0.2195  0.0737
   77MOL     C315355   3.971   0.435   4.290 -0.8914  0.5793 -0.0064
   77MOL     C415356   3.973   0.427   4.137  0.0044  0.3035  0.2239
   77MOL     H515357   3.955   0.663   4.532 -0.1178  0.1515 -1.4673
   77MOL     H615358   4.064   0.516   4.540  0.2789  2.4047  0.3935
   77MOL     H715359   3.931   0.646   4.312 -0.6107  0.5169  1.6919
   77MOL     H815360   3.998   0.345   4.343 -2.4218 -0.0337 -0.2358
   77MOL     H915361   3.959   0.531   4.108  1.2249  0.2557 -0.5553
   77MOL    H1015362   3.892   0.362   4.103  0.1253  0.7014 -0.8366
   77MOL    H1115363   3.881   0.508   4.560  0.5997 -1.0329  0.5745
   77MOL    C1215364   4.104   0.369   4.082  0.3415  0.4221  0.1793
   77MOL    C1315365   4.123   0.224   4.111  0.6439 -0.2086 -0.5455
   77MOL    C1415366   4.201   0.177   4.206 -0.0319 -0.3345  0.0929
   77MOL    C1515367   4.222   0.026   4.232 -0.5398 -0.0898 -0.3298
   77MOL    H1615368   4.105   0.393   3.975  0.5486 -0.7454 -0.0963
   77MOL    H1715369   4.190   0.422   4.122  1.7892 -0.6584 -1.3810
   77MOL    H1815370   4.076   0.154   4.043 -0.9559  2.2143 -2.0548
   77MOL    H1915371   4.242   0.245   4.280 -0.6367 -2.0282  2.0484
   77MOL    H2015372   4.329   0.014   4.247 -0.3873  1.7295  0.1904
   77MOL    H2115373   4.185   7.956   4.140 -3.2604 -0.7866  1.0652
   77MOL    C2215374   4.152   7.958   4.358 -0.3450  0.1945  0.4349
   77MOL    C2315375   4.161   7.808   4.377 -0.1055 -0.1227 -0.3110
   77MOL    C2415376   4.060   7.715   4.381 -0.0371  0.4719  0.5854
   77MOL    C2515377   4.078   7.570   4.406  0.2241 -0.7867  0.3526
   77MOL    H2615378   4.201   0.021   4.447 -0.0161 -1.7426  1.1362
   77MOL    H2715379   4.052   0.023   4.364  0.3420  1.8017  1.0997
   77MOL    H2815380   4.260   7.766   4.389 -0.6517 -1.1142  0.8514
   77MOL    H2915381   3.958   7.745   4.363  0.5036  0.5740 -2.4551
   77MOL    H3015382   4.180   7.533   4.404 -0.7110 -3.5615  1.4974
   77MOL    H3115383   4.032   7.519   4.321 -0.9300  2.2631 -0.9262
   77MOL    C3215384   4.025   7.523   4.538 -0.0127 -0.0146 -0.6632
   77MOL    C3315385   3.878   7.522   4.570  0.7368  0.0694  0.1768
   77MOL    C3415386   3.805   7.408   4.582 -0.6805  0.2464 -0.1305
   77MOL    C3515387   3.658   7.388   4.609  0.4726  0.1354  0.5631
   77MOL    H3615388   4.062   7.421   4.551  0.3071  0.2582  0.6157
   77MOL    H3715389   4.075   7.594   4.603 -0.0093  0.2502 -0.9569
   77MOL    H3815390   3.832   7.618   4.583 -1.8386 -1.6087  4.2102
   77MOL    H3915391   3.857   7.316   4.558 -0.4296 -0.2106  2.0090
   77MOL    H4015392   3.624   7.358   4.509  1.7596  1.8247 -0.3953
   77MOL    H4115393   3.611   7.486   4.617 -1.8193 -1.0324  1.7785
   77MOL    C4215394   3.614   7.282   4.717  0.6672  0.4705 -0.9719
   77MOL    C4315395   3.469   7.239   4.702  0.3023 -0.5539  0.6242
   77MOL    C4415396   3.364   7.250   4.784  0.3889 -0.8243 -0.6981
   77MOL    C4515397   3.216   7.207   4.753  0.6781  0.1627 -0.2138
   77MOL    H4615398   3.682   7.197   4.706  1.9093  1.1661  1.0175
   77MOL    H4715399   3.638   7.321   4.816  0.0487 -0.3078 -0.5133
   77MOL    H4815400   3.441   7.208   4.603  0.7030 -0.7366  0.5688
   77MOL    H4915401   3.373   7.294   4.882 -0.9206  0.3019 -1.0664
   77MOL    H5015402   3.208   7.152   4.659 -0.7147  1.2582 -0.7385
   77MOL    H5115403   3.175   7.305   4.732  1.0787  0.9837  2.6925
   77MOL    C5215404   3.154   7.143   4.877 -0.1834  0.0338  0.3714
   77MOL    C5315405   3.006   7.118   4.854  0.1989  0.3032  0.1672
   77MOL    C5415406   2.916   7.159   4.946  0.3280 -0.3124  0.9419
   77MOL    C5515407   2.772   7.134   4.940 -0.1967  0.1877 -1.2930
   77MOL    H5615408   3.198   7.052   4.916  0.6124  0.6293  0.8869
   77MOL    H5715409   3.165   7.215   4.959 -0.9712  0.9000 -0.2680
   77MOL    H5815410   2.988   7.053   4.770  0.6895  1.0510 -0.5190
   77MOL    H5915411   2.935   7.227   5.027 -1.1813  1.4101 -0.1006
   77MOL    H6015412   2.755   7.059   4.863 -0.5025 -2.4955  1.3212
   77MOL    H6115413   2.718   7.226   4.916 -1.6864 -1.0638 -2.9263
   77MOL    C6215414   2.724   7.070   5.065 -0.8222  0.1564 -0.4448
   77MOL    C6315415   2.717   6.919   5.058  0.0711 -0.5613  0.9585
   77MOL    C6415416   2.776   6.830   5.136 -0.0947  0.6819 -0.6821
   77MOL    C6515417   2.767   6.675   5.128 -0.6359  0.3178 -0.5258
   77MOL    H6615418   2.774   7.101   5.157 -0.4075 -1.4205 -0.1387
   77MOL    H6715419   2.625   7.110   5.085  1.0349  3.4205  2.8708
   77MOL    H6815420   2.649   6.891   4.980 -0.3962  3.5796 -0.2662
   77MOL    H6915421   2.847   6.860   5.211  0.0638  1.6842 -1.2289
   77MOL    H7015422   2.848   6.637   5.067  0.9101  2.1444  0.3343
   77MOL    H7115423   2.677   6.664   5.068 -1.4873 -0.1632  0.8054
   77MOL    C7215424   2.762   6.600   5.261 -0.0521 -0.5141 -1.5115
   77MOL    C7315425   2.769   6.448   5.252 -0.5388 -0.3367 -0.1722
   77MOL    C7415426   2.670   6.370   5.297  0.3268 -0.2133 -0.3350
   77MOL    C7515427   2.664   6.217   5.293 -0.6124 -0.3584  0.1937
   77MOL    H7615428   2.850   6.627   5.319 -1.2964  0.2843  0.0112
   77MOL    H7715429   2.670   6.627   5.313  1.2270  2.3737 -0.6840
   77MOL    H7815430   2.863   6.412   5.214  0.5887 -0.3449  2.5397
   77MOL    H7915431   2.582   6.422   5.333  0.9988  0.8297 -0.1785
   77MOL    H8015432   2.767   6.180   5.298  0.1582  1.9832  2.7316
   77MOL    H8115433   2.617   6.177   5.203 -0.8450 -0.2231  0.2559
   77MOL    C8215434   2.585   6.156   5.412  0.0684  0.9083  0.5285
   77MOL    C8315435   2.595   6.009   5.408  0.3420 -0.1236 -0.1861
   77MOL    C8415436   2.655   5.939   5.504 -0.6954  0.0689  0.4901
   77MOL    C8515437   2.674   5.794   5.495  0.6289  0.5550 -0.0483
   77MOL    H8615438   2.636   6.183   5.505  2.1909  1.3533 -0.7264
   77MOL    H8715439   2.480   6.185   5.408 -0.4705 -1.0035  0.1516
   77MOL    H8815440   2.556   5.958   5.321  0.4760 -0.8847  0.1989
   77MOL    H8915441   2.700   5.984   5.591 -0.3163 -0.4991  0.5941
   77MOL    H9015442   2.581   5.753   5.455  0.7958 -0.7595  0.8471
   77MOL    H9115443   2.670   5.768   5.601  1.0094 -0.3557 -0.2506
   77MOL    C9215444   2.797   5.750   5.416 -0.1273 -0.5780 -0.0886
   77MOL    C9315445   2.816   5.597   5.415  0.0261 -0.5093  0.1627
   77MOL    C9415446   2.835   5.527   5.304 -0.2354 -0.0153  0.4711
   77MOL    C9515447   2.857   5.379   5.299 -0.8445 -0.2783  0.2445
   77MOL    H9615448   2.781   5.791   5.316  1.7089 -0.0337 -0.1853
   77MOL    H9715449   2.886   5.805   5.449 -1.9035  3.5778 -1.8050
   77MOL    H9815450   2.829   5.551   5.512  0.2898 -1.3736 -0.2761
   77MOL    H9915451   2.809   5.575   5.211  1.1989 -0.1141  0.0053
   77MOL   H10015452   2.762   5.327   5.285  0.6600 -2.8313 -0.8131
   77MOL   H10115453   2.892   5.339   5.394 -2.4643  1.4150  1.6001
   77MOL   C10215454   2.952   5.339   5.184  0.8479  0.7163  0.2253
   77MOL   C10315455   2.972   5.193   5.181  0.1618  0.0144  0.6718
   77MOL   C10415456   3.086   5.141   5.230  1.0973 -0.3885 -0.3479
   77MOL   C10515457   3.117   4.999   5.247  0.2353 -0.4282  0.3714
   77MOL   H10615458   2.903   5.379   5.096  1.5451 -1.1359 -1.0224
   77MOL   H10715459   3.049   5.388   5.195  0.8512  0.4603  1.4769
   77MOL   H10815460   2.893   5.132   5.140 -1.7656  0.8280  3.1329
   77MOL   H10915461   3.159   5.212   5.266  0.2287  0.9753 -1.2316
   77MOL   H11015462   3.202   4.978   5.181  0.5473  1.6152  0.0946
   77MOL   H11115463   3.035   4.939   5.209 -0.0962 -0.9377  1.8326
   77MOL   C11215464   3.154   4.959   5.392 -0.4880 -0.0838  1.1210
   77MOL   C11315465   3.177   4.809   5.404  0.0455  0.0956 -0.1488
   77MOL   C11415466   3.085   4.724   5.445  0.5129 -0.2674 -0.5018
   77MOL   C11515467   3.098   4.577   5.439  0.2047  0.0898  0.3349
   77MOL   H11615468   3.256   4.994   5.408  0.0195  0.5692 -2.8609
   77MOL   H11715469   3.084   4.998   5.466 -1.4036 -1.3757  0.9677
   77MOL   H11815470   3.264   4.776   5.348  2.2208  4.1090  0.6279
   77MOL   H11915471   2.993   4.763   5.487  1.4999  1.5721  0.0086
   77MOL   H12015472   3.200   4.561   5.405  0.3823 -0.6354  1.1772
   77MOL   H12115473   3.034   4.530   5.365  1.1827 -0.8416  0.0713
   77MOL   C12215474   3.080   4.516   5.590 -0.4128  0.5063  0.1073
   77MOL   C12315475   3.092   4.369   5.575  0.2069  0.4429 -0.6082
   77MOL   C12415476   2.985   4.294   5.595  0.9361 -0.7998  0.9162
   77MOL   C12515477   3.001   4.145   5.595 -0.3506  0.4966  0.3998
   77MOL   H12615478   3.162   4.545   5.655  0.7747 -1.2105 -0.5882
   77MOL   H12715479   2.983   4.548   5.627 -0.9901 -1.2153  0.0941
   77MOL   H12815480   3.192   4.330   5.558  0.7263  0.1840  2.6844
   77MOL   H12915481   2.889   4.343   5.600  0.1829 -1.9996 -0.9733
   77MOL   H13015482   2.988   4.114   5.698  0.6969  0.1121  0.4249
   77MOL   H13115483   3.104   4.119   5.570 -0.0426  1.3713  0.7525
   77MOL   C13215484   2.888   4.072   5.516 -0.4983 -0.0988  0.1401
   77MOL   C13315485   2.756   4.080   5.577 -0.8145 -0.2283 -0.0710
   77MOL   C13415486   2.637   4.097   5.512 -0.3712 -0.5435 -0.0452
   77MOL   C13515487   2.500   4.085   5.577  0.3159  1.0625  0.5144
   77MOL   H13615488   2.893   4.090   5.408  0.7823  2.9168  0.6580
   77MOL   H13715489   2.907   3.965   5.519 -0.0451 -0.0704 -1.2271
   77MOL   H13815490   2.750   4.044   5.679  2.4147  0.1494  0.2861
   77MOL   H13915491   2.627   4.131   5.410 -0.6632  0.1236  0.2057
   77MOL   H14015492   2.504   4.051   5.681  1.0532 -1.6862 -0.3696
   77MOL   H14115493   2.448   4.002   5.530  1.0882  0.5678  0.5276
   77MOL   C14215494   2.432   4.225   5.565  0.0663  0.2271 -0.0656
   77MOL   C14315495   2.379   4.258   5.428 -0.1984  0.1097 -0.6911
   77MOL   C14415496   2.403   4.377   5.374  0.2685 -0.0417 -0.3415
   77MOL   C14515497   2.353   4.416   5.235 -0.1151  0.0208 -0.0634
   77MOL   H14615498   2.345   4.233   5.631 -0.2183 -0.3350 -0.3672
   77MOL   H14715499   2.484   4.311   5.608 -1.4502 -0.1164  2.6307
   77MOL   H14815500   2.307   4.195   5.379  0.4621 -1.7107  0.6107
   77MOL   H14915501   2.462   4.454   5.420 -0.1849 -1.2343  2.3448
   77MOL   H15015502   2.323   4.329   5.177  0.9138 -0.0333 -0.5257
   77MOL   H15115503   2.445   4.457   5.194 -0.1135  0.7740  0.6624
   77MOL   C15215504   2.237   4.513   5.239  0.3362  0.0451  0.6429
   77MOL   C15315505   2.219   4.573   5.108  0.0578  0.6087 -0.1624
   77MOL   C15415506   2.253   4.699   5.079 -0.2874 -0.1573  1.1396
   77MOL   C15515507   2.220   4.775   4.951  0.2346  0.2571 -0.3545
   77MOL   H15615508   2.147   4.456   5.260  2.0499 -3.0770 -0.0159
   77MOL   H15715509   2.253   4.593   5.311  0.5509  1.7649 -1.2540
   77MOL   H15815510   2.150   4.528   5.038 -2.2852  2.2431  1.0086
   77MOL   H15915511   2.312   4.738   5.160 -1.6027 -2.0614  3.0584
   77MOL   H16015512   2.171   4.870   4.972  0.9643  0.7720 -1.0034
   77MOL   H16115513   2.135   4.728   4.901  0.2263 -0.1543  0.0388
   77MOL   C16215514   2.330   4.790   4.850  0.1568  0.0859  0.3477
   77MOL   C16315515   2.292   4.867   4.720  1.0352  0.4528  0.0826
   77MOL   C16415516   2.297   5.004   4.703  0.0399  0.2754 -0.1844
   77MOL   C16515517   2.237   5.057   4.573 -0.2598 -0.1497  0.2146
   77MOL   H16615518   2.416   4.839   4.895  1.9136 -3.4453  0.9996
   77MOL   H16715519   2.360   4.690   4.818 -0.4317 -0.1715  0.5962
   77MOL   H16815520   2.261   4.810   4.634 -0.9965  1.8616 -0.1585
   77MOL   H16915521   2.329   5.074   4.778 -2.2381 -0.1771  1.2924
   77MOL   H17015522   2.156   5.126   4.598 -0.8767 -0.6221 -0.4491
   77MOL   H17115523   2.179   4.986   4.513  0.7776 -1.0583  0.2837
   77MOL   C17215524   2.338   5.135   4.485 -0.6019  0.7238  0.5251
   77MOL   C17315525   2.380   5.265   4.560  0.7342  0.0574  0.3134
   77MOL   C17415526   2.360   5.390   4.513  0.4443  0.6929 -0.3832
   77MOL   C17515527   2.419   5.516   4.564 -0.7893  0.5538 -0.0296
   77MOL   H17615528   2.424   5.072   4.461 -0.1346  1.3965  0.4354
   77MOL   H17715529   2.306   5.168   4.386  0.1878 -0.0519  0.0030
   77MOL   H17815530   2.429   5.248   4.655  0.1053 -1.6353  0.3516
   77MOL   H17915531   2.307   5.405   4.420 -0.1216 -0.2137 -0.2129
   77MOL   H18015532   2.463   5.481   4.657 -0.9467  2.5439  0.8053
   77MOL   H18115533   2.341   5.589   4.588 -0.1237  1.9702 -2.0599
   77MOL   C18215534   2.523   5.585   4.470  0.8422 -0.6704 -0.0013
   77MOL   C18315535   2.590   5.688   4.545  0.3945 -0.6369  0.0315
   77MOL   C18415536   2.602   5.817   4.507 -0.3566  0.2107  0.1121
   77MOL   C18515537   2.671   5.928   4.585 -0.2027 -0.4185  1.2284
   77MOL   H18615538   2.589   5.508   4.430  1.4434  0.6714 -1.6193
   77MOL   H18715539   2.475   5.645   4.393 -1.3340  2.0326  3.3022
   77MOL   H18815540   2.640   5.654   4.635  1.2163  1.3113  0.3326
   77MOL   H18915541   2.540   5.851   4.425 -0.6076  2.1920  1.0938
   77MOL   H19015542   2.776   5.934   4.555 -0.0664 -1.9770  1.3620
   77MOL   H19115543   2.683   5.903   4.690  0.3658  0.8185  1.4710
   77MOL   C19215544   2.609   6.067   4.572 -0.0110 -0.0957 -0.3776
   77MOL   C19315545   2.680   6.167   4.665  0.0368 -0.7751  0.3651
   77MOL   C19415546   2.644   6.178   4.797 -0.2668  0.2334 -0.0959
   77MOL   C19515547   2.720   6.276   4.888 -0.0585  0.2844 -0.1968
   77MOL   H19615548   2.601   6.103   4.469 -1.1071 -1.0640 -0.6439
   77MOL   H19715549   2.507   6.046   4.606  0.9319 -1.3493  1.7533
   77MOL   H19815550   2.776   6.205   4.632 -0.1471  1.0811  1.8841
   77MOL   H19915551   2.563   6.119   4.836  0.5441 -0.2651  0.8685
   77MOL   H20015552   2.783   6.342   4.829  0.0116  2.0831  1.8382
   77MOL   H20115553   2.780   6.225   4.964 -0.6225 -1.1153 -0.6760
   77MOL   H20215554   2.647   6.342   4.934 -0.6378  0.2104 -0.9958
   78MOL     C115555   2.900   6.283   4.346 -0.0043 -0.6458  0.5126
   78MOL     C215556   2.966   6.406   4.289 -1.3904  0.4349 -0.6619
   78MOL     C315557   2.924   6.476   4.184  0.1006  0.4863  0.0069
   78MOL     C415558   2.987   6.607   4.143 -0.7360  0.9417  0.1091
   78MOL     H515559   2.858   6.300   4.445 -5.7934  3.3262 -2.2915
   78MOL     H615560   2.980   6.210   4.341  1.5775  1.0847  0.2912
   78MOL     H715561   3.048   6.444   4.349 -1.2423 -1.3859  0.3222
   78MOL     H815562   2.838   6.441   4.128 -0.8559  2.2531  0.3245
   78MOL     H915563   3.075   6.628   4.203 -0.2364  1.3360 -0.7526
   78MOL    H1015564   2.933   6.700   4.160 -1.4749  0.6124 -0.3891
   78MOL    H1115565   2.823   6.228   4.292  2.4049 -0.5620 -3.1845
   78MOL    C1215566   3.021   6.593   3.996  0.1565 -0.1115 -0.1061
   78MOL    C1315567   3.103   6.710   3.949 -0.3958 -0.9080  0.3974
   78MOL    C1415568   3.231   6.699   3.917 -0.2562  0.3412 -0.0813
   78MOL    C1515569   3.317   6.814   3.879  0.4728 -0.5175  0.2206
   78MOL    H1615570   3.078   6.501   3.983 -0.1344  0.0249 -2.7903
   78MOL    H1715571   2.933   6.591   3.931 -0.0437  2.0037  0.0722
   78MOL    H1815572   3.057   6.808   3.949  0.5805 -0.4423  0.5006
   78MOL    H1915573   3.270   6.600   3.897  0.0564  0.9446 -2.6551
   78MOL    H2015574   3.399   6.825   3.950  0.3909  2.8285 -0.1092
   78MOL    H2115575   3.256   6.904   3.884  0.7199 -0.3813  0.8198
   78MOL    C2215576   3.369   6.795   3.734  0.1266 -0.0962  0.4381
   78MOL    C2315577   3.263   6.802   3.626 -0.1448 -0.0064 -0.1730
   78MOL    C2415578   3.208   6.910   3.570  0.3691 -0.5775  0.4034
   78MOL    C2515579   3.083   6.899   3.482  0.1466  0.3802  0.0117
   78MOL    H2615580   3.445   6.866   3.701  2.3090 -2.6626 -0.2182
   78MOL    H2715581   3.422   6.700   3.739  0.1203 -0.0483  1.7319
   78MOL    H2815582   3.223   6.704   3.605  0.1301 -0.0483 -0.5138
   78MOL    H2915583   3.242   7.010   3.591  0.8457 -0.5840 -0.3058
   78MOL    H3015584   3.077   6.795   3.450 -0.6590  0.2683  0.5244
   78MOL    H3115585   3.089   6.962   3.393 -2.2055  2.5794  1.3274
   78MOL    C3215586   2.953   6.943   3.549  0.3548  0.1559  0.3060
   78MOL    C3315587   2.945   7.093   3.579  0.0016 -0.2259  0.6266
   78MOL    C3415588   2.921   7.139   3.703  0.4299 -0.4220  0.0066
   78MOL    C3515589   2.910   7.284   3.743 -0.5101  0.0012 -0.1511
   78MOL    H3615590   2.874   6.919   3.478 -2.0716  2.1614  2.2477
   78MOL    H3715591   2.936   6.891   3.644  1.3188  2.3189  1.7079
   78MOL    H3815592   2.950   7.163   3.496  0.3247  0.4991  1.2437
   78MOL    H3915593   2.913   7.067   3.783 -1.4894  0.0825  0.2880
   78MOL    H4015594   2.805   7.297   3.770  0.0143  0.1937  1.8929
   78MOL    H4115595   2.928   7.342   3.653 -0.4380 -0.3165 -0.3432
   78MOL    C4215596   3.007   7.335   3.849 -0.1207 -0.6668  0.3352
   78MOL    C4315597   2.960   7.466   3.915  0.2422 -0.4193 -0.0565
   78MOL    C4415598   3.008   7.503   4.039 -0.5683 -0.6442  0.1868
   78MOL    C4515599   2.984   7.639   4.100  0.3014  0.1884 -0.6561
   78MOL    H4615600   3.006   7.265   3.933  0.2642  0.3156  1.1637
   78MOL    H4715601   3.113   7.345   3.826  0.1184 -0.2583  1.5516
   78MOL    H4815602   2.891   7.527   3.859 -0.2086 -0.9944 -0.1332
   78MOL    H4915603   3.074   7.436   4.093  0.0284 -1.1452 -1.1418
   78MOL    H5015604   3.083   7.683   4.114  0.8902 -0.8103 -1.6623
   78MOL    H5115605   2.938   7.624   4.198  3.2315 -0.1947  0.7316
   78MOL    C5215606   2.913   7.743   4.013 -0.5086 -0.4734 -0.9920
   78MOL    C5315607   2.902   7.874   4.090  0.5720 -0.3937 -0.2549
   78MOL    C5415608   2.873   0.016   4.035 -0.1804 -0.5331 -0.1971
   78MOL    C5515609   2.862   0.149   4.114  0.4052  0.2912  0.3361
   78MOL    H5615610   2.982   7.764   3.931  1.3015 -1.7667  0.1647
   78MOL    H5715611   2.811   7.716   3.989 -1.8997  0.1514  3.6854
   78MOL    H5815612   2.903   7.872   4.198 -0.8130  1.6220 -0.2047
   78MOL    H5915613   2.852   0.013   3.929 -0.7572 -3.3705 -0.0327
   78MOL    H6015614   2.838   0.136   4.220 -0.7640 -0.4775 -0.0213
   78MOL    H6115615   2.774   0.201   4.079  0.2106  0.8841  1.6695
   78MOL    C6215616   3.001   0.227   4.102  0.2771  0.1560  0.3303
   78MOL    C6315617   2.965   0.370   4.150 -0.1135  0.1021 -0.6690
   78MOL    C6415618   2.865   0.417   4.223 -0.9308  0.4789  0.0343
   78MOL    C6515619   2.855   0.563   4.259  0.2718  0.6043  0.1024
   78MOL    H6615620   3.075   0.188   4.172  0.9826 -1.1165 -1.1109
   78MOL    H6715621   3.040   0.233   4.001  1.1169 -1.1217  0.5741
   78MOL    H6815622   3.042   0.444   4.129 -0.5923  0.5567 -0.8405
   78MOL    H6915623   2.803   0.342   4.270 -0.2386  1.0799  1.9332
   78MOL    H7015624   2.764   0.582   4.316  1.5524  0.2660  2.3003
   78MOL    H7115625   2.836   0.609   4.162 -1.9713 -0.6492 -0.0952
   78MOL    C7215626   2.979   0.620   4.323  0.9697 -0.4003 -0.3685
   78MOL    C7315627   2.932   0.745   4.398 -0.0839 -0.4268 -0.1486
   78MOL    C7415628   2.962   0.776   4.529  0.1802 -0.0803 -0.2856
   78MOL    C7515629   2.919   0.906   4.597 -0.0222  0.7881 -0.3907
   78MOL    H7615630   3.029   0.552   4.392 -0.1071  0.7195  1.5821
   78MOL    H7715631   3.045   0.631   4.237 -0.6257  0.9297 -1.4505
   78MOL    H7815632   2.874   0.811   4.335  0.4152 -0.5869 -0.7848
   78MOL    H7915633   3.021   0.701   4.579 -1.7190 -0.6849  1.1022
   78MOL    H8015634   2.817   0.914   4.559  0.7984  0.9463 -2.6732
   78MOL    H8115635   2.991   0.986   4.576  0.3653  0.3154 -0.8857
   78MOL    C8215636   2.921   0.896   4.746 -0.2236 -0.2818  0.0164
   78MOL    C8315637   2.807   0.801   4.791 -0.0849 -0.2298 -0.2471
   78MOL    C8415638   2.697   0.846   4.857 -0.2751 -0.0265 -0.8338
   78MOL    C8515639   2.570   0.772   4.889  0.2789  0.2520 -0.6075
   78MOL    H8615640   3.016   0.861   4.786 -0.8644 -0.4025  1.4365
   78MOL    H8715641   2.899   0.998   4.776  2.1205  0.1110  0.4684
   78MOL    H8815642   2.799   0.704   4.744 -0.1053 -1.3984  2.1139
   78MOL    H8915643   2.700   0.951   4.885  1.0653  0.4085 -2.4898
   78MOL    H9015644   2.576   0.697   4.811  0.6646 -1.1475  0.7587
   78MOL    H9115645   2.479   0.824   4.857  1.3177  1.6916 -1.2605
   78MOL    C9215646   2.561   0.712   5.030 -0.2544 -0.4065  0.1834
   78MOL    C9315647   2.441   0.629   5.057 -0.1656 -0.0243 -0.3909
   78MOL    C9415648   2.433   0.527   5.138 -0.1538  0.1866  0.3462
   78MOL    C9515649   2.301   0.453   5.166 -0.4793 -1.0005 -0.2541
   78MOL    H9615650   2.655   0.661   5.051  1.3924  1.8939 -1.3527
   78MOL    H9715651   2.560   0.789   5.108  0.6487  0.1470 -0.3423
   78MOL    H9815652   2.355   0.667   5.004 -0.1873 -1.1030 -1.1531
   78MOL    H9915653   2.527   0.493   5.181 -0.0249  0.8489  0.5882
   78MOL   H10015654   2.308   0.350   5.132 -0.9444 -0.6305 -1.4831
   78MOL   H10115655   2.221   0.512   5.121 -0.6864 -0.6417  0.5760
   78MOL   C10215656   2.291   0.443   5.322  0.4395 -0.1220  0.0210
   78MOL   C10315657   2.160   0.379   5.367  0.4937 -0.2253  0.3523
   78MOL   C10415658   2.066   0.459   5.430 -0.2365  0.1448 -0.3446
   78MOL   C10515659   1.928   0.413   5.465 -0.1815 -0.2704  0.5782
   78MOL   H10615660   2.366   0.376   5.363  1.3354  2.1018  2.1856
   78MOL   H10715661   2.300   0.538   5.376 -1.6405 -1.1694  2.3209
   78MOL   H10815662   2.144   0.273   5.351  0.8180 -0.0988 -0.8821
   78MOL   H10915663   2.081   0.565   5.442  2.2403 -0.2360  0.4290
   78MOL   H11015664   1.909   0.315   5.422 -0.2697  0.5905 -1.3762
   78MOL   H11115665   1.865   0.488   5.419  0.5151 -0.0610 -0.0339
   78MOL   C11215666   1.893   0.395   5.614  0.5564  0.0396  0.8066
   78MOL   C11315667   1.992   0.299   5.678  0.5771  0.9625 -0.5540
   78MOL   C11415668   1.947   0.186   5.732  0.3459  0.5167 -0.0751
   78MOL   C11515669   2.043   0.077   5.797  0.4766 -0.1258  0.1868
   78MOL   H11615670   1.891   0.489   5.669 -1.0985  0.2559  0.4158
   78MOL   H11715671   1.788   0.367   5.624  0.5674 -0.9218 -1.5750
   78MOL   H11815672   2.096   0.324   5.687  1.0532 -0.5618 -1.6532
   78MOL   H11915673   1.842   0.162   5.735  0.2576  0.3540 -2.8284
   78MOL   H12015674   2.037   0.088   5.905 -0.0560 -0.8281  0.2317
   78MOL   H12115675   2.146   0.099   5.768  0.2659  0.6719  0.0351
   78MOL   C12215676   1.992   7.913   5.773 -0.0163 -1.1333 -0.3443
   78MOL   C12315677   2.052   7.811   5.871  0.3284  0.3483  0.2028
   78MOL   C12415678   2.135   7.716   5.835 -0.1164  0.3073 -0.3067
   78MOL   C12515679   2.204   7.621   5.931  0.4255  0.8147 -0.0403
   78MOL   H12615680   1.887   7.905   5.800 -0.2369  0.7985 -0.5810
   78MOL   H12715681   2.003   7.906   5.664 -1.1380  2.2164 -0.7326
   78MOL   H12815682   2.020   7.815   5.974  1.0271  1.7270  0.3788
   78MOL   H12915683   2.171   7.708   5.733  1.3613  0.1798  0.2125
   78MOL   H13015684   2.155   7.602   6.027  2.2640 -0.0173  0.7519
   78MOL   H13115685   2.296   7.675   5.953  1.2770 -1.9000  3.4653
   78MOL   C13215686   2.223   7.478   5.880  0.9309 -0.5352  0.0807
   78MOL   C13315687   2.255   7.373   5.989  0.6731 -0.4018 -0.3867
   78MOL   C13415688   2.178   7.266   6.015 -0.1260  1.4189 -0.1966
   78MOL   C13515689   2.237   7.172   6.123  1.0251 -1.0047 -0.2507
   78MOL   H13615690   2.132   7.446   5.829  0.0027 -1.0344  1.9915
   78MOL   H13715691   2.302   7.494   5.807 -0.1749 -0.5573 -1.1418
   78MOL   H13815692   2.350   7.398   6.034 -0.9052  1.6817  1.8881
   78MOL   H13915693   2.083   7.244   5.969  0.0126 -1.2624  0.7507
   78MOL   H14015694   2.187   7.184   6.219 -1.8825 -2.4973 -1.5008
   78MOL   H14115695   2.343   7.185   6.143  1.1230  0.4197 -1.5961
   78MOL   C14215696   2.217   7.031   6.071 -0.1709 -0.4372 -0.0168
   78MOL   C14315697   2.327   6.982   5.974  0.2525 -0.2649  1.0958
   78MOL   C14415698   2.319   6.944   5.846 -0.1970 -0.2491 -0.8603
   78MOL   C14515699   2.418   6.892   5.753 -0.1597  0.0793  0.4178
   78MOL   H14615700   2.216   6.948   6.142 -1.1817 -0.0063  0.4948
   78MOL   H14715701   2.115   7.018   6.035 -0.6214 -0.6782  1.3068
   78MOL   H14815702   2.424   6.978   6.021 -0.1158 -3.6354  1.7011
   78MOL   H14915703   2.220   6.946   5.803  0.7091  1.9485 -2.9266
   78MOL   H15015704   2.402   6.793   5.709  0.7129  0.1708 -0.1117
   78MOL   H15115705   2.508   6.874   5.811  0.2833 -0.5833 -0.4581
   78MOL   C15215706   2.455   6.993   5.638 -0.2101 -0.1019  0.2749
   78MOL   C15315707   2.585   6.967   5.564  0.8241  0.4625 -0.4080
   78MOL   C15415708   2.699   7.039   5.572  0.1298 -0.4098 -0.6845
   78MOL   C15515709   2.828   7.009   5.506  0.1234 -0.0371  0.8121
   78MOL   H15615710   2.367   6.995   5.574  0.9712 -2.5448 -1.5223
   78MOL   H15715711   2.465   7.090   5.686  1.0303  0.9669 -2.0911
   78MOL   H15815712   2.596   6.876   5.508  3.2505 -0.8742  2.1044
   78MOL   H15915713   2.703   7.137   5.619 -2.8916 -0.8799  0.7216
   78MOL   H16015714   2.841   7.056   5.408 -0.4073  1.6974  1.5625
   78MOL   H16115715   2.821   6.904   5.477 -3.4173  0.7895 -1.6058
   78MOL   C16215716   2.950   7.020   5.598 -0.2080  0.6902  0.1204
   78MOL   C16315717   3.081   7.013   5.524 -0.3885  0.1896 -0.0035
   78MOL   C16415718   3.124   6.913   5.444 -0.2911  0.6490 -0.9495
   78MOL   C16515719   3.262   6.906   5.382 -1.2033  0.2483  0.8446
   78MOL   H16615720   2.944   7.111   5.657 -1.5313  0.4812  0.3258
   78MOL   H16715721   2.945   6.945   5.678 -1.0884 -0.7026 -1.2072
   78MOL   H16815722   3.152   7.085   5.562 -0.7614  1.3678 -1.4896
   78MOL   H16915723   3.053   6.834   5.425  0.8416 -0.2843 -1.3250
   78MOL   H17015724   3.313   6.818   5.420 -1.1672  0.5821  1.5641
   78MOL   H17115725   3.324   6.991   5.408  0.1114 -0.3808 -0.1121
   78MOL   C17215726   3.263   6.902   5.230  0.1039  0.3415 -0.0876
   78MOL   C17315727   3.408   6.906   5.178  0.4182 -0.0540  0.9120
   78MOL   C17415728   3.454   7.011   5.112 -0.6058 -0.4859 -0.3513
   78MOL   C17515729   3.606   7.029   5.058  1.2077  0.3247  0.3429
   78MOL   H17615730   3.209   6.812   5.199 -1.7386  1.9899 -1.7999
   78MOL   H17715731   3.216   6.992   5.189  1.0964  1.1332  0.4949
   78MOL   H17815732   3.474   6.824   5.201  0.8259  0.0580  0.1556
   78MOL   H17915733   3.394   7.100   5.106 -0.7225 -0.4387  1.1786
   78MOL   H18015734   3.610   7.138   5.056 -2.3345  0.4865 -0.1716
   78MOL   H18115735   3.612   6.971   4.966  2.3618  0.0664  0.5751
   78MOL   C18215736   3.718   6.981   5.142 -0.5048  0.3968  0.4941
   78MOL   C18315737   3.856   7.017   5.078  0.5706 -0.3008 -0.6735
   78MOL   C18415738   3.885   7.123   5.001  0.1259  0.2994 -0.4774
   78MOL   C18515739   4.023   7.155   4.944 -0.2119 -0.6393  0.5386
   78MOL   H18615740   3.715   7.029   5.240 -1.2760 -0.1664  0.7540
   78MOL   H18715741   3.712   6.874   5.162  0.7515  0.4870  1.4536
   78MOL   H18815742   3.934   6.949   5.111  2.0782  0.7027 -2.1077
   78MOL   H18915743   3.801   7.178   4.961 -0.4856 -0.3007 -0.0274
   78MOL   H19015744   4.018   7.144   4.836  0.4081 -2.3089  0.6799
   78MOL   H19115745   4.106   7.095   4.979 -0.2134 -0.5102  0.7658
   78MOL   C19215746   4.072   7.308   4.954 -0.4516  0.4836 -0.0144
   78MOL   C19315747   4.207   7.336   4.896  0.2635 -0.1424 -0.3832
   78MOL   C19415748   4.226   7.430   4.804 -0.3961 -0.4786 -0.0815
   78MOL   C19515749   4.360   7.452   4.733  0.1694 -0.7557  0.3650
   78MOL   H19615750   3.999   7.377   4.912 -0.3802 -0.3769 -1.6120
   78MOL   H19715751   4.068   7.330   5.060 -0.0791  1.0417 -0.1170
   78MOL   H19815752   4.292   7.279   4.930 -0.8245 -2.3966 -1.3431
   78MOL   H19915753   4.143   7.488   4.765 -1.3353 -1.6374  0.1435
   78MOL   H20015754   4.368   7.548   4.682 -0.1943 -1.2938 -0.7211
   78MOL   H20115755   4.375   7.372   4.660 -0.3873  1.4367 -2.2400
   78MOL   H20215756   4.452   7.450   4.792  0.7066  0.3927 -0.4115
   79MOL     C115757   4.697   5.423   5.843 -0.3172  0.1975  0.4075
   79MOL     C215758   4.644   5.431   5.987  0.3023 -0.0198 -0.0654
   79MOL     C315759   4.551   5.350   6.048  0.6280 -0.7537  0.3054
   79MOL     C415760   4.491   5.376   6.189 -0.5386  0.3418  0.0974
   79MOL     H515761   4.787   5.369   5.814 -1.3111 -1.1657 -0.1385
   79MOL     H615762   4.706   5.523   5.801 -0.8100 -0.4034 -1.1486
   79MOL     H715763   4.678   5.515   6.046  3.2205 -0.5590 -0.9299
   79MOL     H815764   4.527   5.258   5.998  1.9979 -1.2128  0.4730
   79MOL     H915765   4.383   5.366   6.198 -0.5097 -2.1723 -1.6310
   79MOL    H1015766   4.502   5.483   6.205  2.0752 -0.3235  3.2117
   79MOL    H1115767   4.621   5.372   5.784 -1.9384  2.7661  0.2057
   79MOL    C1215768   4.552   5.284   6.299  1.4978 -0.9159  0.5524
   79MOL    C1315769   4.566   5.138   6.261 -0.0348  0.2442 -0.1890
   79MOL    C1415770   4.526   5.034   6.336  0.5714  0.1331  0.2246
   79MOL    C1515771   4.550   4.882   6.303  0.7764 -0.8179 -0.2569
   79MOL    H1615772   4.656   5.309   6.316  1.6309  0.7167 -2.2618
   79MOL    H1715773   4.496   5.308   6.389 -1.7436  2.1395 -2.1034
   79MOL    H1815774   4.628   5.125   6.173  0.0997  1.9627 -0.3785
   79MOL    H1915775   4.465   5.049   6.424 -2.0487 -1.7201 -1.1944
   79MOL    H2015776   4.577   4.880   6.197 -3.5418 -0.5497 -1.4619
   79MOL    H2115777   4.464   4.819   6.322  0.7767 -0.3727  1.2798
   79MOL    C2215778   4.673   4.820   6.381  0.9027 -0.0696 -0.3628
   79MOL    C2315779   4.697   4.683   6.335  0.7132 -0.0366  0.2780
   79MOL    C2415780   4.713   4.576   6.411  0.1614 -0.2357 -0.7229
   79MOL    C2515781   4.747   4.438   6.354  0.4377 -0.1770  0.0159
   79MOL    H2615782   4.768   4.873   6.370  0.2459  1.0316 -0.8316
   79MOL    H2715783   4.658   4.822   6.489  0.9516 -0.3637 -0.3503
   79MOL    H2815784   4.710   4.669   6.228  0.7618 -1.1956  0.4224
   79MOL    H2915785   4.691   4.584   6.516  0.8960 -1.1749 -0.4868
   79MOL    H3015786   4.820   4.382   6.413  2.1600 -0.4101 -2.2961
   79MOL    H3115787   4.798   4.439   6.258 -1.3979 -1.3307 -0.9765
   79MOL    C3215788   4.618   4.358   6.332  0.1560 -0.3448  0.0104
   79MOL    C3315789   4.636   4.215   6.286  0.1801  0.4922 -0.6440
   79MOL    C3415790   4.740   4.153   6.226 -0.0126  0.4465  0.0402
   79MOL    C3515791   4.751   4.008   6.204  0.4808 -0.1996 -0.3957
   79MOL    H3615792   4.567   4.357   6.429  0.2194 -1.4526  0.0314
   79MOL    H3715793   4.550   4.409   6.264  1.3460  0.2083 -0.7785
   79MOL    H3815794   4.553   4.154   6.318  1.2728 -0.3960  0.5316
   79MOL    H3915795   4.833   4.204   6.208  0.4384  0.1019  1.2845
   79MOL    H4015796   4.655   3.966   6.235 -0.3087  0.9000 -1.2836
   79MOL    H4115797   4.815   3.949   6.269 -0.8890 -2.0284 -0.6648
   79MOL    C4215798   4.771   3.952   6.064  0.4662 -0.5855  0.0514
   79MOL    C4315799   4.776   3.800   6.061  0.6874  0.0147  0.0347
   79MOL    C4415800   4.722   3.719   5.968 -0.0096  0.3903 -0.1595
   79MOL    C4515801   4.725   3.568   5.961  0.5658 -0.5713  0.1787
   79MOL    H4615802   4.692   3.974   5.992 -1.0584  0.4613  1.9856
   79MOL    H4715803   4.854   3.999   6.012 -0.4743 -1.2216 -2.0840
   79MOL    H4815804   4.824   3.742   6.138 -1.5584 -0.1366  1.3534
   79MOL    H4915805   4.667   3.770   5.891  0.1919  0.5009 -0.2293
   79MOL    H5015806   4.623   3.542   5.988  0.2584  0.4601  0.0160
   79MOL    H5115807   4.802   3.520   6.021  0.9507 -0.9162 -0.5807
   79MOL    C5215808   4.754   3.520   5.820  0.5175  0.4426 -0.8647
   79MOL    C5315809   4.782   3.363   5.814  0.5669 -0.6905  0.2241
   79MOL    C5415810   4.736   3.286   5.716  0.3772 -0.3415  0.5454
   79MOL    C5515811   4.772   3.142   5.697 -0.4371  0.6444  0.0956
   79MOL    H5615812   4.669   3.552   5.761 -0.5159 -0.1195  0.2951
   79MOL    H5715813   4.841   3.568   5.775 -0.7792 -0.8270 -4.9520
   79MOL    H5815814   4.843   3.320   5.892  0.0771  1.2924  1.7519
   79MOL    H5915815   4.677   3.334   5.640  0.8531 -1.0305 -0.2726
   79MOL    H6015816   4.685   3.091   5.656 -1.1095  2.3887 -0.7347
   79MOL    H6115817   4.802   3.093   5.789  0.3838  0.2685 -0.3642
   79MOL    C6215818   4.886   3.134   5.600  0.1309  0.3945  0.3362
   79MOL    C6315819   4.910   2.984   5.569  0.2261  0.8388  0.0620
   79MOL    C6415820   5.006   2.897   5.621  0.6915 -0.1895  0.1188
   79MOL    C6515821   5.030   2.753   5.593 -0.0653  0.5290  0.6679
   79MOL    H6615822   4.861   3.185   5.507 -1.2920  0.7168  0.8860
   79MOL    H6715823   4.973   3.183   5.644  1.8721 -0.3026 -2.2332
   79MOL    H6815824   4.841   2.937   5.500  1.7449 -2.1447  0.4885
   79MOL    H6915825   5.062   2.942   5.702 -0.8777 -0.7211  1.5431
   79MOL    H7015826   5.121   2.751   5.534  0.2738  0.6944  1.1910
   79MOL    H7115827   4.956   2.707   5.526  0.5142 -0.4555  0.6928
   79MOL    C7215828   5.062   2.668   5.719  0.3876 -0.5197 -0.1008
   79MOL    C7315829   5.135   2.548   5.681  0.0741  0.8578 -0.9484
   79MOL    C7415830   5.077   2.428   5.689 -0.1172  0.3384 -0.0733
   79MOL    C7515831   5.143   2.312   5.630  0.2270  0.7788 -0.2611
   79MOL    H7615832   5.123   2.725   5.789  0.7764 -2.9505  1.5912
   79MOL    H7715833   4.974   2.626   5.767 -0.0062  1.0632  0.5892
   79MOL    H7815834   5.234   2.561   5.640  0.4654 -0.4248 -0.4397
   79MOL    H7915835   4.973   2.418   5.716 -0.4945  1.7243 -0.9243
   79MOL    H8015836   5.252   2.322   5.625  0.2008  0.9175 -0.5481
   79MOL    H8115837   5.102   2.295   5.530  0.1282  1.3303 -0.3217
   79MOL    C8215838   5.111   2.188   5.711 -0.2146 -0.7688  0.5302
   79MOL    C8315839   5.188   2.066   5.661 -0.6063  0.3289 -0.4653
   79MOL    C8415840   5.263   1.985   5.737  0.1076  0.0893  0.0854
   79MOL    C8515841   5.346   1.873   5.692  0.5682 -0.3759  0.0364
   79MOL    H8615842   5.125   2.200   5.818  1.5116  1.2226  0.1253
   79MOL    H8715843   5.006   2.166   5.691 -0.1448  0.4737 -1.4580
   79MOL    H8815844   5.184   2.038   5.556  0.3994  2.2137 -1.0361
   79MOL    H8915845   5.277   2.002   5.842 -0.4284 -2.3153  0.5780
   79MOL    H9015846   5.446   1.881   5.733  1.0244 -1.3511 -0.8752
   79MOL    H9115847   5.350   1.881   5.583  0.0199  0.4767  0.0715
   79MOL    C9215848   5.301   1.734   5.742  0.1852  0.4871 -0.1556
   79MOL    C9315849   5.385   1.621   5.686  0.0838  0.2173  0.6041
   79MOL    C9415850   5.456   1.536   5.756 -0.6716  0.4173 -0.2886
   79MOL    C9515851   5.542   1.431   5.692 -0.4360  0.0624 -0.0058
   79MOL    H9615852   5.324   1.725   5.848 -2.0721 -2.1938  0.1754
   79MOL    H9715853   5.194   1.717   5.732  0.0347  1.2481  0.1512
   79MOL    H9815854   5.395   1.621   5.579 -2.8105 -1.6440  0.2895
   79MOL    H9915855   5.431   1.526   5.861 -2.4652 -3.0404 -0.9695
   79MOL   H10015856   5.543   1.437   5.583  0.0134 -1.8548 -0.1312
   79MOL   H10115857   5.482   1.342   5.713 -0.7203 -0.2526 -2.0401
   79MOL   C10215858   5.689   1.421   5.737 -0.0321  0.8528  0.1617
   79MOL   C10315859   5.786   1.337   5.657 -0.0256  0.0491  0.0217
   79MOL   C10415860   5.918   1.365   5.643  0.1870 -0.1591  0.5917
   79MOL   C10515861   6.022   1.290   5.565  0.0330  0.1003  0.0180
   79MOL   H10615862   5.732   1.521   5.732 -0.3479  0.9451 -0.7116
   79MOL   H10715863   5.684   1.385   5.840  1.8431  1.6026  0.5328
   79MOL   H10815864   5.746   1.251   5.605 -1.1464 -0.5940  1.9015
   79MOL   H10915865   5.953   1.459   5.685  0.2587  0.0489  0.0727
   79MOL   H11015866   6.074   1.379   5.530 -0.7055  0.0374 -1.2603
   79MOL   H11115867   5.982   1.231   5.482  0.3330  0.1858 -0.1857
   79MOL   C11215868   6.116   1.189   5.650 -0.1560 -0.5590  0.0364
   79MOL   C11315869   6.185   1.262   5.765 -0.9968 -0.2941  0.0033
   79MOL   C11415870   6.200   1.216   5.886  0.4730  0.0769  0.0180
   79MOL   C11515871   6.275   1.295   5.997  0.2604  0.2134 -0.3762
   79MOL   H11615872   6.062   1.098   5.678 -1.9004  0.2977 -0.4905
   79MOL   H11715873   6.204   1.158   5.594 -1.1300 -2.6261 -0.4203
   79MOL   H11815874   6.229   1.358   5.745  1.1320 -1.2726 -0.2199
   79MOL   H11915875   6.174   1.114   5.913  1.6083 -0.2606 -0.1355
   79MOL   H12015876   6.279   1.401   5.971  0.8787  0.2786 -0.0167
   79MOL   H12115877   6.378   1.261   6.004 -0.4207 -1.3284  3.2421
   79MOL   C12215878   6.214   1.281   6.143 -0.0948  0.4560  0.1712
   79MOL   C12315879   6.068   1.325   6.152 -0.8755  0.0747 -0.6023
   79MOL   C12415880   5.969   1.236   6.183 -0.0286  0.2550 -0.2068
   79MOL   C12515881   5.822   1.268   6.206 -0.4458  0.3351 -0.0837
   79MOL   H12615882   6.232   1.181   6.179  2.8687  1.0739  0.4946
   79MOL   H12715883   6.278   1.337   6.211  0.7186 -0.7638  0.4165
   79MOL   H12815884   6.044   1.430   6.149  1.1170  0.5953  0.5312
   79MOL   H12915885   5.987   1.130   6.184  3.5889  0.8092 -0.6424
   79MOL   H13015886   5.812   1.375   6.227 -0.4840 -0.0983  2.3005
   79MOL   H13115887   5.787   1.206   6.288  1.1724 -1.5547 -0.7921
   79MOL   C13215888   5.745   1.214   6.091 -0.1266  0.1030  0.4029
   79MOL   C13315889   5.629   1.308   6.072  0.0982 -0.6532 -0.3423
   79MOL   C13415890   5.504   1.260   6.091 -0.2507 -0.6208 -0.0730
   79MOL   C13515891   5.377   1.342   6.078 -0.0494  0.1717  0.3614
   79MOL   H13615892   5.804   1.234   6.002 -1.8823 -0.5075 -0.9337
   79MOL   H13715893   5.713   1.112   6.112  0.3503 -0.4013 -1.3251
   79MOL   H13815894   5.656   1.407   6.040 -0.5820 -1.0789 -2.3263
   79MOL   H13915895   5.487   1.159   6.123  0.3310 -1.1281 -1.3031
   79MOL   H14015896   5.404   1.442   6.044 -0.9451  0.7796  1.4248
   79MOL   H14115897   5.323   1.347   6.173 -1.8154 -0.3465 -0.5769
   79MOL   C14215898   5.276   1.285   5.976 -0.6078  0.3955  0.0505
   79MOL   C14315899   5.134   1.325   5.985 -0.3139  0.7650 -1.0810
   79MOL   C14415900   5.069   1.392   5.888  0.4536  0.5118 -0.2962
   79MOL   C14515901   4.924   1.425   5.894 -0.7238 -0.7091  0.1528
   79MOL   H14615902   5.315   1.303   5.876 -1.6734  2.3165 -0.0428
   79MOL   H14715903   5.263   1.180   6.002  0.2950  0.8446  2.4139
   79MOL   H14815904   5.082   1.304   6.077 -0.5413  0.0050 -1.3814
   79MOL   H14915905   5.126   1.405   5.797 -0.2163 -0.2848 -0.8359
   79MOL   H15015906   4.895   1.372   5.985  0.9694  0.3872  1.3690
   79MOL   H15115907   4.869   1.386   5.808 -1.0235  0.1636 -0.0546
   79MOL   C15215908   4.886   1.574   5.920  0.0532 -0.1416 -0.2812
   79MOL   C15315909   4.737   1.600   5.919 -1.0940 -0.1657  1.1441
   79MOL   C15415910   4.676   1.667   6.016 -0.3608  0.1075  0.4558
   79MOL   C15515911   4.522   1.690   6.028  0.1729  0.1385  0.5833
   79MOL   H15615912   4.933   1.601   6.015 -2.6324 -0.4485  1.1724
   79MOL   H15715913   4.940   1.632   5.844  1.0486  0.0365  0.5472
   79MOL   H15815914   4.687   1.547   5.839  0.8464 -0.5057  0.1139
   79MOL   H15915915   4.732   1.697   6.103 -0.3944 -0.6823  0.7520
   79MOL   H16015916   4.486   1.618   6.100  1.4613  0.2564  1.3667
   79MOL   H16115917   4.479   1.664   5.931 -1.2912 -3.9108  2.2435
   79MOL   C16215918   4.477   1.827   6.081  0.0153  0.2564  0.2318
   79MOL   C16315919   4.338   1.841   6.131  0.3169  0.7906 -0.6578
   79MOL   C16415920   4.263   1.946   6.100  0.1540 -0.2119  0.1992
   79MOL   C16515921   4.117   1.960   6.129 -1.1489 -0.1231  0.4357
   79MOL   H16615922   4.534   1.858   6.169  0.1266  0.3838  0.1141
   79MOL   H16715923   4.491   1.911   6.014  1.0409  1.4377  1.8855
   79MOL   H16815924   4.298   1.748   6.168 -0.8383  1.7601  0.5892
   79MOL   H16915925   4.310   2.026   6.044 -0.5105  0.7700  1.0406
   79MOL   H17015926   4.105   1.895   6.216  2.2559  0.8663  1.7084
   79MOL   H17115927   4.071   1.927   6.036 -0.4174 -1.1577  0.4264
   79MOL   C17215928   4.089   2.099   6.175 -0.0193  0.5111  0.4731
   79MOL   C17315929   3.943   2.139   6.169 -0.7581 -0.4610  0.3722
   79MOL   C17415930   3.876   2.158   6.278  0.0555 -0.7541 -0.1987
   79MOL   C17515931   3.741   2.219   6.270  0.4923 -0.3763 -0.5700
   79MOL   H17615932   4.136   2.131   6.268  0.2654 -1.1954  0.9370
   79MOL   H17715933   4.138   2.168   6.107 -0.5245  2.0208  1.6146
   79MOL   H17815934   3.903   2.174   6.075  1.6098  0.0907 -0.4822
   79MOL   H17915935   3.910   2.147   6.380 -1.7876  1.9625  0.7539
   79MOL   H18015936   3.664   2.154   6.314 -0.8946  0.8871 -1.0956
   79MOL   H18115937   3.710   2.225   6.166  0.1692 -2.6036 -0.6312
   79MOL   C18215938   3.727   2.352   6.345 -1.1467  0.2267 -0.2791
   79MOL   C18315939   3.612   2.438   6.309 -0.2312 -0.4215 -0.3304
   79MOL   C18415940   3.628   2.567   6.276 -0.0378 -0.1413  0.3354
   79MOL   C18515941   3.515   2.652   6.234 -0.0688 -0.1140 -0.4279
   79MOL   H18615942   3.714   2.333   6.452 -0.6248  1.1016 -0.0534
   79MOL   H18715943   3.815   2.414   6.331 -1.4820  0.8125  0.1778
   79MOL   H18815944   3.514   2.395   6.325 -0.6993  1.0726  0.9713
   79MOL   H18915945   3.730   2.603   6.279  0.3236 -0.9083 -1.7117
   79MOL   H19015946   3.422   2.615   6.275  1.0459 -2.2086  0.2776
   79MOL   H19115947   3.498   2.639   6.127 -3.1708 -2.2786  0.2624
   79MOL   C19215948   3.544   2.795   6.281  0.7187 -0.6692  0.3478
   79MOL   C19315949   3.425   2.878   6.249 -1.0470 -0.1348  0.2349
   79MOL   C19415950   3.417   2.960   6.145 -0.6195 -1.0357  0.8706
   79MOL   C19515951   3.291   3.039   6.126 -0.1633 -0.4571  0.3470
   79MOL   H19615952   3.564   2.799   6.388  0.3939 -1.4698  0.4386
   79MOL   H19715953   3.633   2.830   6.228  1.3538 -2.2680  0.3257
   79MOL   H19815954   3.344   2.869   6.320 -1.3890  0.4079 -0.0880
   79MOL   H19915955   3.495   2.978   6.072 -0.9153 -1.0218  0.5567
   79MOL   H20015956   3.223   3.014   6.208  0.6406  1.4946  1.6331
   79MOL   H20115957   3.235   3.012   6.037  0.2755  0.5918 -0.2474
   79MOL   H20215958   3.312   3.145   6.137  1.8349 -0.6138 -1.7167
   80MOL     C115959   0.252   0.185   4.564 -0.1415  0.2746 -0.4013
   80MOL     C215960   0.243   0.033   4.542  0.3667  0.2343  0.2197
   80MOL     C315961   0.158   7.952   4.455 -0.3533 -0.4167 -0.7476
   80MOL     C415962   0.147   7.803   4.432 -0.4960  0.0048  0.0903
   80MOL     H515963   0.207   0.241   4.483 -0.8772  1.1468  0.5888
   80MOL     H615964   0.357   0.214   4.561  0.2871 -0.8439  2.1966
   80MOL     H715965   0.318   7.951   4.594 -0.0894 -0.9525 -0.4538
   80MOL     H815966   0.092   0.047   4.408 -0.4992 -1.2808 -1.8979
   80MOL     H915967   0.222   7.749   4.489 -0.3170 -1.4932 -1.5320
   80MOL    H1015968   0.176   7.784   4.329  0.2476  0.3255  0.2355
   80MOL    H1115969   0.220   0.217   4.664  0.9868 -0.3158  0.1663
   80MOL    C1215970   0.020   7.728   4.467 -0.0811  0.0329 -0.3706
   80MOL    C1315971   7.941   7.760   4.600 -0.1655  0.0034  0.2956
   80MOL    C1415972   7.885   7.668   4.678 -0.4185  0.2286 -0.4353
   80MOL    C1515973   7.813   7.697   4.806  0.3689 -0.4968 -0.8002
   80MOL    H1615974   7.917   7.740   4.393 -0.4155 -0.1444 -0.0430
   80MOL    H1715975   0.033   7.620   4.473  2.5508  0.3125 -0.7372
   80MOL    H1815976   7.929   7.866   4.616 -0.3241  0.1862 -0.9864
   80MOL    H1915977   7.893   7.562   4.658 -0.1676  0.6944 -2.9445
   80MOL    H2015978   7.845   7.793   4.848 -1.2088  0.3620 -1.5112
   80MOL    H2115979   7.835   7.612   4.870  0.5333 -1.8723 -2.6496
   80MOL    C2215980   7.659   7.699   4.787 -0.2521  0.0208  0.1136
   80MOL    C2315981   7.611   7.808   4.687 -0.0609 -0.2870  0.1896
   80MOL    C2415982   7.551   7.918   4.731 -0.1932  0.3566 -0.1390
   80MOL    C2515983   7.511   0.061   4.648  0.2122 -0.5655  0.5359
   80MOL    H2615984   7.613   7.603   4.767 -1.3250  0.7334 -0.8799
   80MOL    H2715985   7.618   7.726   4.884  1.1168  2.8563 -0.0426
   80MOL    H2815986   7.640   7.795   4.584  0.3381 -2.1644  0.5196
   80MOL    H2915987   7.544   7.918   4.839  1.2271 -0.9895 -0.0171
   80MOL    H3015988   7.564   0.149   4.683  1.2746 -0.7719 -0.5447
   80MOL    H3115989   7.407   0.079   4.677  0.1396  1.0487 -0.6828
   80MOL    C3215990   7.537   0.042   4.495 -0.2710  0.5591  0.0406
   80MOL    C3315991   7.480   0.164   4.423  0.0982  0.2863 -0.0770
   80MOL    C3415992   7.390   0.153   4.323  0.7146  0.6581  0.0125
   80MOL    C3515993   7.329   0.276   4.260  0.5092 -0.7760  0.2967
   80MOL    H3615994   7.645   0.026   4.489 -0.5018 -2.4047  2.2694
   80MOL    H3715995   7.482   7.935   4.453  0.7243  0.6930 -1.5953
   80MOL    H3815996   7.516   0.260   4.456  0.9076 -0.7144  2.0707
   80MOL    H3915997   7.357   0.053   4.297 -2.4416  1.6930 -0.1049
   80MOL    H4015998   7.401   0.338   4.205  1.5895 -1.5234  0.8452
   80MOL    H4115999   7.291   0.334   4.344 -1.6631 -0.7642 -0.6805
   80MOL    C4216000   7.205   0.244   4.173 -0.1812 -0.6270 -0.5232
   80MOL    C4316001   7.133   0.356   4.102 -0.1628  0.2911 -0.0400
   80MOL    C4416002   7.118   0.356   3.969  0.0137  0.6980 -0.5098
   80MOL    C4516003   7.046   0.457   3.878  0.0434  0.4490 -0.2760
   80MOL    H4616004   7.237   0.180   4.091  2.7446  1.3510 -0.9675
   80MOL    H4716005   7.133   0.194   4.239  1.7107  1.6162  3.4100
   80MOL    H4816006   7.081   0.434   4.156 -0.1149  1.9337 -2.2467
   80MOL    H4916007   7.171   0.280   3.913  2.2364  2.1777 -0.4956
   80MOL    H5016008   6.974   0.404   3.816  0.0167  1.9444 -1.5570
   80MOL    H5116009   7.113   0.506   3.807  0.9453  0.1024  0.3223
   80MOL    C5216010   6.953   0.555   3.951 -0.1465 -0.5404 -0.2113
   80MOL    C5316011   6.843   0.488   4.037 -0.3298 -0.1105 -0.0628
   80MOL    C5416012   6.793   0.542   4.152 -0.4426  0.0436  0.3620
   80MOL    C5516013   6.680   0.472   4.232  0.5002  0.4316 -0.0487
   80MOL    H5616014   7.014   0.626   4.007  0.2641 -1.4265  0.4825
   80MOL    H5716015   6.901   0.609   3.872 -1.0303 -0.5882  0.3251
   80MOL    H5816016   6.804   0.391   4.010  0.4805  0.3123 -2.9666
   80MOL    H5916017   6.830   0.636   4.188 -1.4048  0.2899  0.7220
   80MOL    H6016018   6.689   0.508   4.334 -1.6568  1.0700 -0.0602
   80MOL    H6116019   6.705   0.366   4.230 -1.4380 -0.1016  1.7896
   80MOL    C6216020   6.543   0.495   4.176 -0.0470  0.0994  0.2783
   80MOL    C6316021   6.459   0.373   4.178  0.0820 -0.3693 -0.1347
   80MOL    C6416022   6.327   0.374   4.183 -0.1965  0.5198  0.3843
   80MOL    C6516023   6.242   0.246   4.196  0.3793 -0.5434  0.0858
   80MOL    H6616024   6.500   0.586   4.219  0.5632  0.8491 -0.6642
   80MOL    H6716025   6.554   0.517   4.070  1.1478  0.5988  0.4947
   80MOL    H6816026   6.516   0.281   4.174 -1.5073 -1.3058 -2.0821
   80MOL    H6916027   6.266   0.463   4.176 -0.4246  0.5018  1.9752
   80MOL    H7016028   6.307   0.161   4.215 -2.6156 -2.5812  1.5613
   80MOL    H7116029   6.189   0.219   4.104 -2.6421  0.8090  1.3489
   80MOL    C7216030   6.126   0.255   4.301  0.3787 -0.0113 -0.2474
   80MOL    C7316031   6.006   0.330   4.246 -0.3044  0.3350 -0.3854
   80MOL    C7416032   5.880   0.287   4.225  0.8972 -0.0587 -0.8227
   80MOL    C7516033   5.753   0.373   4.181 -0.3044  0.4616 -0.2295
   80MOL    H7616034   6.092   0.152   4.314  0.9278 -0.5549 -2.9409
   80MOL    H7716035   6.158   0.295   4.397  0.0580  1.7851 -0.8817
   80MOL    H7816036   6.026   0.435   4.226 -2.7521  0.9617  0.3269
   80MOL    H7916037   5.860   0.185   4.252  1.3485  0.7611  2.8171
   80MOL    H8016038   5.777   0.473   4.146 -2.0651  1.1251  0.3881
   80MOL    H8116039   5.686   0.395   4.265 -0.6898  3.2444 -1.2158
   80MOL    C8216040   5.678   0.303   4.078 -0.2041 -0.7682 -0.2201
   80MOL    C8316041   5.542   0.383   4.058 -1.1428  0.7306 -0.1830
   80MOL    C8416042   5.429   0.336   4.113 -0.2129  0.3638  0.4990
   80MOL    C8516043   5.297   0.406   4.104 -0.3850  0.5463 -0.0216
   80MOL    H8616044   5.727   0.301   3.981  0.3784  2.0617 -0.0315
   80MOL    H8716045   5.652   0.203   4.111  0.7450 -0.4435  1.6028
   80MOL    H8816046   5.546   0.483   4.016  0.9101  1.1285  0.8634
   80MOL    H8916047   5.434   0.238   4.159 -6.3501 -0.7903 -0.9560
   80MOL    H9016048   5.310   0.499   4.049 -2.2087  0.9760  0.2238
   80MOL    H9116049   5.264   0.436   4.204  1.3170 -1.0480  1.0522
   80MOL    C9216050   5.183   0.324   4.025 -0.0018 -0.0231 -0.8068
   80MOL    C9316051   5.062   0.409   3.992 -0.3132 -0.3279 -0.7007
   80MOL    C9416052   5.023   0.443   3.875 -0.7891 -0.0605  0.2624
   80MOL    C9516053   4.904   0.523   3.834 -0.5665  0.6237 -0.3590
   80MOL    H9616054   5.224   0.299   3.927  1.2830 -2.4918  0.3320
   80MOL    H9716055   5.151   0.231   4.070 -1.7196  1.0003  0.1640
   80MOL    H9816056   5.004   0.442   4.077 -1.3260  2.3215 -2.3643
   80MOL    H9916057   5.088   0.406   3.797 -2.4921 -0.6236 -0.9331
   80MOL   H10016058   4.841   0.530   3.922 -1.3612  0.1803 -0.8837
   80MOL   H10116059   4.846   0.451   3.776 -1.0746  0.6402  0.1240
   80MOL   C10216060   4.935   0.657   3.759  0.4185  0.4722 -0.4231
   80MOL   C10316061   4.813   0.741   3.732  0.3827 -0.4838 -0.8887
   80MOL   C10416062   4.792   0.867   3.764 -0.1600  0.5272 -0.1678
   80MOL   C10516063   4.658   0.942   3.732 -0.0643  0.4113 -0.1005
   80MOL   H10616064   5.007   0.711   3.820  0.5450 -2.0076  1.7273
   80MOL   H10716065   4.975   0.624   3.663  0.1785 -3.2449  0.6984
   80MOL   H10816066   4.737   0.682   3.683  0.9803 -1.0385 -1.1521
   80MOL   H10916067   4.867   0.925   3.816  2.6297 -0.8498 -2.5521
   80MOL   H11016068   4.621   0.971   3.830  0.6405  1.3455 -0.1002
   80MOL   H11116069   4.586   0.871   3.689 -0.7326 -0.1508  1.9175
   80MOL   C11216070   4.679   1.063   3.639  0.2217 -0.2730  0.2615
   80MOL   C11316071   4.722   1.020   3.504 -0.3709  0.1244  0.5921
   80MOL   C11416072   4.852   1.014   3.455  0.5526  0.4978 -0.3969
   80MOL   C11516073   4.882   0.973   3.316 -0.3349 -0.0010 -0.2587
   80MOL   H11616074   4.586   1.117   3.619  1.0240  1.0559  0.0840
   80MOL   H11716075   4.745   1.144   3.670  0.0799  0.2227 -0.7127
   80MOL   H11816076   4.638   0.989   3.443 -0.3628  1.9276 -0.3660
   80MOL   H11916077   4.936   1.029   3.520 -0.1780  1.3108  0.3750
   80MOL   H12016078   4.794   0.929   3.271 -0.1088 -0.8745  0.1403
   80MOL   H12116079   4.969   0.907   3.316  0.2679  0.7844 -0.2574
   80MOL   C12216080   4.922   1.094   3.234 -0.1191  0.4141 -0.5543
   80MOL   C12316081   4.897   1.054   3.088  0.2291 -0.4341  0.3719
   80MOL   C12416082   5.002   1.036   3.006  0.4498 -0.3073  0.0241
   80MOL   C12516083   4.993   0.974   2.870 -0.2623 -0.3249  0.5051
   80MOL   H12616084   4.850   1.174   3.250 -0.6863 -0.2814  0.5191
   80MOL   H12716085   5.019   1.140   3.249 -0.8043  1.6010  0.3417
   80MOL   H12816086   4.797   1.024   3.063 -0.6471  3.4244 -1.0906
   80MOL   H12916087   5.096   1.061   3.053  0.8708 -0.0902 -0.9180
   80MOL   H13016088   4.895   0.929   2.853 -1.3105  2.3100 -0.7937
   80MOL   H13116089   5.075   0.903   2.870  0.5534  0.5961  0.3088
   80MOL   C13216090   5.024   1.088   2.767 -0.6824 -0.3711  0.1097
   80MOL   C13316091   4.903   1.173   2.757 -0.6441  1.0934  0.2166
   80MOL   C13416092   4.831   1.196   2.644  0.0423  0.2910 -0.0845
   80MOL   C13516093   4.744   1.315   2.637 -0.5658  0.4488  0.1224
   80MOL   H13616094   5.099   1.160   2.800  1.2309 -1.0522 -2.5504
   80MOL   H13716095   5.053   1.051   2.669  0.7945 -1.2087  0.8338
   80MOL   H13816096   4.884   1.226   2.850  1.0330 -0.3058  1.3893
   80MOL   H13916097   4.859   1.142   2.555  1.8519 -0.2592  0.7972
   80MOL   H14016098   4.693   1.329   2.732  0.5225  1.3342  0.5898
   80MOL   H14116099   4.662   1.294   2.569 -0.4806  1.3972 -0.2784
   80MOL   C14216100   4.811   1.443   2.596 -0.1101 -0.0627  0.8065
   80MOL   C14316101   4.713   1.559   2.579 -0.5628  0.1979  0.2564
   80MOL   C14416102   4.734   1.679   2.636 -0.2053 -0.7316 -0.5035
   80MOL   C14516103   4.640   1.801   2.627 -0.6799  0.2341 -0.4256
   80MOL   H14616104   4.894   1.472   2.660  1.0669  0.1937 -0.8334
   80MOL   H14716105   4.849   1.428   2.495 -0.0293  1.0776  0.6701
   80MOL   H14816106   4.626   1.539   2.517 -1.6111 -1.1117  2.0986
   80MOL   H14916107   4.829   1.691   2.686 -0.8640 -1.4762  0.9185
   80MOL   H15016108   4.714   1.881   2.627 -1.1630  0.6906  0.3375
   80MOL   H15116109   4.591   1.809   2.724 -2.7722 -2.2827 -1.2113
   80MOL   C15216110   4.557   1.817   2.504  0.3050  0.2189 -0.1312
   80MOL   C15316111   4.465   1.937   2.510  0.2315 -0.0276 -0.3455
   80MOL   C15416112   4.429   2.010   2.407 -0.2759 -1.0801  0.6034
   80MOL   C15516113   4.304   2.100   2.405 -0.3908  0.0397  0.1899
   80MOL   H15616114   4.619   1.839   2.417  0.7526 -2.4667 -0.5328
   80MOL   H15716115   4.495   1.730   2.481 -0.1963  0.2641  1.0209
   80MOL   H15816116   4.416   1.932   2.607 -0.8488 -4.7843 -0.9907
   80MOL   H15916117   4.486   1.991   2.317 -0.3554  1.3264  0.0036
   80MOL   H16016118   4.278   2.121   2.509 -1.6844  0.5143 -0.2207
   80MOL   H16116119   4.222   2.047   2.355 -1.3067  2.4323 -0.9245
   80MOL   C16216120   4.318   2.241   2.335 -0.1785 -0.6850  0.3770
   80MOL   C16316121   4.207   2.340   2.364 -0.0632 -0.1327 -0.2937
   80MOL   C16416122   4.135   2.395   2.272  0.1954 -0.0849  0.3309
   80MOL   C16516123   4.021   2.483   2.298  0.3726  0.7983  0.0415
   80MOL   H16616124   4.414   2.286   2.357 -0.5661  0.3005  0.0877
   80MOL   H16716125   4.341   2.233   2.229  1.6800  2.3166  0.5184
   80MOL   H16816126   4.195   2.356   2.470 -1.6622 -1.5008 -0.2445
   80MOL   H16916127   4.158   2.391   2.167 -2.7155  1.2214 -0.4142
   80MOL   H17016128   4.047   2.589   2.299  2.0063  0.4411 -1.5708
   80MOL   H17116129   4.001   2.477   2.405  0.2991  1.3784  0.0607
   80MOL   C17216130   3.899   2.472   2.210 -0.7209  0.4011 -1.2979
   80MOL   C17316131   3.912   2.548   2.082 -0.4824 -0.0092  0.4467
   80MOL   C17416132   3.820   2.632   2.037  0.2572 -0.4972 -0.6442
   80MOL   C17516133   3.844   2.725   1.916 -0.1129 -0.6956 -0.5314
   80MOL   H17616134   3.876   2.367   2.188 -0.1666  0.3356 -1.5581
   80MOL   H17716135   3.813   2.519   2.258  1.8875  0.6357  3.4364
   80MOL   H17816136   3.998   2.524   2.021  0.7672  1.0228  1.7924
   80MOL   H17916137   3.733   2.667   2.090  1.4539  1.0397  0.3525
   80MOL   H18016138   3.761   2.700   1.850 -0.8126  0.9292 -0.2970
   80MOL   H18116139   3.926   2.698   1.850 -0.6510 -1.6548 -0.8174
   80MOL   C18216140   3.854   2.876   1.942  0.8464  0.5425  0.3471
   80MOL   C18316141   3.852   2.962   1.818  0.1283 -0.3512 -0.3872
   80MOL   C18416142   3.758   3.058   1.781  0.4378 -0.1047 -0.1428
   80MOL   C18516143   3.762   3.170   1.679 -0.5778  0.1063 -0.0479
   80MOL   H18616144   3.762   2.898   1.997 -0.4196 -2.3008 -0.5286
   80MOL   H18716145   3.938   2.905   2.005  0.1153  1.1225  1.0538
   80MOL   H18816146   3.945   2.965   1.763  0.1303  0.0899 -0.3663
   80MOL   H18916147   3.666   3.057   1.837  1.0770 -0.1957  0.9161
   80MOL   H19016148   3.697   3.148   1.594 -0.0290 -0.9211 -0.2153
   80MOL   H19116149   3.865   3.191   1.649 -0.4349 -1.2259 -0.5167
   80MOL   C19216150   3.722   3.303   1.740  0.4033 -0.0895  1.0431
   80MOL   C19316151   3.572   3.319   1.749 -0.1737  0.6431 -0.5980
   80MOL   C19416152   3.515   3.345   1.870 -0.2350  1.1123  0.1195
   80MOL   C19516153   3.365   3.354   1.882 -0.1354  0.6122 -0.2331
   80MOL   H19616154   3.763   3.322   1.839  1.3622  0.8215  0.4803
   80MOL   H19716155   3.753   3.381   1.670  0.9962 -0.4293  0.9255
   80MOL   H19816156   3.522   3.307   1.654 -0.9517  0.2407 -0.1412
   80MOL   H19916157   3.575   3.350   1.960  0.0122 -0.1188  0.0214
   80MOL   H20016158   3.340   3.262   1.933  0.8677 -1.1814 -2.8897
   80MOL   H20116159   3.300   3.358   1.795 -0.6966 -0.9338  0.1168
   80MOL   H20216160   3.330   3.427   1.956 -0.5659  0.9141 -0.7251
   81MOL     C116161   5.084   0.283   0.640  0.0954 -0.0650  0.2558
   81MOL     C216162   5.091   0.170   0.743  0.5056  0.3344  0.9189
   81MOL     C316163   5.001   0.164   0.842 -0.3209  0.0429  0.0228
   81MOL     C416164   4.987   0.054   0.938  0.3935 -0.0285  0.5364
   81MOL     H516165   5.164   0.357   0.652  0.7554 -1.3872  4.5453
   81MOL     H616166   4.991   0.338   0.651  0.5773  0.7913  0.1462
   81MOL     H716167   5.165   0.093   0.731  0.5449  0.6415 -0.9722
   81MOL     H816168   4.931   0.245   0.856  0.0743  0.6552 -1.4663
   81MOL     H916169   5.068   7.962   0.915  0.8898  1.2708 -1.7876
   81MOL    H1016170   4.888   0.011   0.922  1.2833 -1.5995 -0.8788
   81MOL    H1116171   5.090   0.258   0.534 -2.2924  1.8687 -0.3778
   81MOL    C1216172   5.002   0.100   1.080  0.3755 -0.3514  0.9424
   81MOL    C1316173   4.885   0.193   1.122 -0.1823  0.4163  0.0579
   81MOL    C1416174   4.796   0.153   1.217  0.1016  0.0453  0.0094
   81MOL    C1516175   4.685   0.237   1.279  0.4351  0.3640 -0.3013
   81MOL    H1616176   5.009   0.017   1.151  1.0728 -0.4617  0.7504
   81MOL    H1716177   5.094   0.157   1.098  0.5718  0.3367 -2.0659
   81MOL    H1816178   4.880   0.291   1.077  1.6873  0.0352 -1.0429
   81MOL    H1916179   4.803   0.053   1.258  0.5559 -1.4162 -3.4304
   81MOL    H2016180   4.596   0.212   1.222 -0.3071 -0.7431  1.3137
   81MOL    H2116181   4.706   0.341   1.253 -2.0638  1.3134  1.2516
   81MOL    C2216182   4.657   0.210   1.424 -0.2612  0.0533 -0.4262
   81MOL    C2316183   4.585   0.075   1.425  0.1825 -0.6520  0.2698
   81MOL    C2416184   4.460   0.062   1.478  0.3715  0.1866 -0.1551
   81MOL    C2516185   4.394   7.904   1.503  0.0697 -0.7389  0.3685
   81MOL    H2616186   4.741   0.211   1.494 -1.9044  0.4231  1.6081
   81MOL    H2716187   4.594   0.294   1.453  0.3398 -0.1907  1.7176
   81MOL    H2816188   4.647   7.967   1.398  0.4877 -0.7592  1.2887
   81MOL    H2916189   4.402   0.152   1.493  2.0577  1.8685 -3.2322
   81MOL    H3016190   4.452   7.835   1.442  1.1728  0.5226 -0.0378
   81MOL    H3116191   4.297   7.923   1.458  0.8903 -0.7093 -1.4259
   81MOL    C3216192   4.381   7.874   1.650  0.7991  0.0034 -0.1411
   81MOL    C3316193   4.299   7.746   1.674  0.3649 -0.3192  0.0980
   81MOL    C3416194   4.185   7.751   1.749  0.4859 -0.1645 -0.1354
   81MOL    C3516195   4.103   7.626   1.782 -0.6310  0.0198  0.2830
   81MOL    H3616196   4.480   7.860   1.692  0.2795 -1.5303  0.6020
   81MOL    H3716197   4.324   7.951   1.701 -0.3383  1.0804 -2.9113
   81MOL    H3816198   4.319   7.646   1.639 -0.2279  0.1722 -1.7006
   81MOL    H3916199   4.159   7.842   1.800  1.3084  1.5072 -2.5823
   81MOL    H4016200   4.155   7.533   1.762 -1.0636  0.1734 -1.6150
   81MOL    H4116201   4.015   7.628   1.718  1.2891 -0.6200 -2.4357
   81MOL    C4216202   4.067   7.626   1.927 -0.5698  0.6228 -0.0553
   81MOL    C4316203   4.009   7.492   1.976  0.6384 -0.3476 -0.2439
   81MOL    C4416204   3.916   7.491   2.077 -0.1457 -0.3026 -0.3222
   81MOL    C4516205   3.847   7.368   2.136 -0.3744  0.4238 -0.8244
   81MOL    H4616206   4.155   7.622   1.992 -0.0545 -2.1143 -0.8354
   81MOL    H4716207   4.004   7.710   1.953 -1.1417 -0.4956  2.3284
   81MOL    H4816208   4.032   7.396   1.932 -2.2932 -0.2377 -2.1684
   81MOL    H4916209   3.889   7.587   2.120 -0.8414 -0.0166 -1.3686
   81MOL    H5016210   3.906   7.281   2.106  0.1815  0.0588  1.2917
   81MOL    H5116211   3.746   7.345   2.102 -0.0031 -0.9357 -1.0233
   81MOL    C5216212   3.836   7.362   2.293  0.4232  0.2930 -0.6857
   81MOL    C5316213   3.810   7.220   2.341  0.9230 -0.1355  0.3795
   81MOL    C5416214   3.748   7.125   2.268 -0.6165  0.6507  0.0829
   81MOL    C5516215   3.735   6.976   2.320 -0.6416 -0.0380 -0.1291
   81MOL    H5616216   3.928   7.402   2.337  0.1222  0.1922  0.0377
   81MOL    H5716217   3.752   7.422   2.328  1.2401  0.9052  0.2745
   81MOL    H5816218   3.858   7.193   2.434  2.0214 -0.2574 -0.2235
   81MOL    H5916219   3.701   7.154   2.175  0.7634 -0.9163 -1.1239
   81MOL    H6016220   3.825   6.956   2.378 -0.5770  1.2391  0.2258
   81MOL    H6116221   3.749   6.911   2.234 -0.2384 -0.6137  0.3701
   81MOL    C6216222   3.594   6.949   2.388  0.1709  0.2273  0.2337
   81MOL    C6316223   3.485   6.973   2.294  0.3596 -0.9694  0.3280
   81MOL    C6416224   3.364   7.026   2.325  0.1937 -0.2201  0.1638
   81MOL    C6516225   3.246   7.050   2.234  0.1660  0.3415 -0.4667
   81MOL    H6616226   3.582   6.841   2.400  0.0427  0.3151  0.9415
   81MOL    H6716227   3.569   7.019   2.467 -0.0647 -1.8017  2.0069
   81MOL    H6816228   3.501   6.934   2.195  0.7370  1.9910 -0.8290
   81MOL    H6916229   3.348   7.061   2.426  1.9440 -2.1283  1.1346
   81MOL    H7016230   3.277   7.014   2.136 -0.4871  0.5016 -0.7376
   81MOL    H7116231   3.231   7.157   2.224  0.9144  0.5223  0.3302
   81MOL    C7216232   3.125   6.980   2.280 -0.8180  0.3382 -0.4508
   81MOL    C7316233   3.071   7.036   2.411  0.4659 -0.7856  0.2983
   81MOL    C7416234   3.000   6.956   2.492 -0.7255  0.3096 -0.5973
   81MOL    C7516235   2.956   6.996   2.633  0.5397 -0.6543  0.1727
   81MOL    H7616236   3.052   6.984   2.199 -2.2430  0.5430  0.8096
   81MOL    H7716237   3.148   6.873   2.277  1.0081  0.7019  0.2111
   81MOL    H7816238   3.099   7.140   2.421  0.4880 -0.5246 -2.0340
   81MOL    H7916239   2.983   6.853   2.464 -2.3845  0.4983 -0.3490
   81MOL    H8016240   2.986   7.096   2.663 -1.6870  0.8119 -2.2556
   81MOL    H8116241   3.014   6.933   2.700  0.6969 -0.6954 -0.0027
   81MOL    C8216242   2.805   6.979   2.651  0.1404  0.2032 -0.2102
   81MOL    C8316243   2.747   6.978   2.792 -0.2865  0.4398 -0.2804
   81MOL    C8416244   2.816   6.984   2.909 -0.3236  0.6508 -0.0122
   81MOL    C8516245   2.764   7.027   3.046  0.3273  0.0398  0.0561
   81MOL    H8616246   2.767   7.057   2.584  1.5642  0.5718 -0.6033
   81MOL    H8716247   2.768   6.886   2.608 -1.0067 -0.5237  2.2390
   81MOL    H8816248   2.640   6.991   2.794 -0.5712 -1.4301 -1.4647
   81MOL    H8916249   2.924   6.974   2.902 -0.6392 -1.3277 -2.5902
   81MOL    H9016250   2.768   6.947   3.119  0.9741 -0.2119 -0.2479
   81MOL    H9116251   2.657   7.046   3.045  0.1949 -0.6086 -2.9303
   81MOL    C9216252   2.844   7.148   3.094 -0.0659 -0.0448  0.3890
   81MOL    C9316253   2.796   7.212   3.225 -0.1241  0.3953 -0.1192
   81MOL    C9416254   2.756   7.339   3.242  0.7047 -0.5036  0.6343
   81MOL    C9516255   2.701   7.409   3.361 -0.2159 -0.8149  0.2939
   81MOL    H9616256   2.944   7.111   3.115 -1.4633 -3.4515  1.4914
   81MOL    H9716257   2.837   7.222   3.014 -2.2524  0.3565  0.8933
   81MOL    H9816258   2.795   7.151   3.314 -0.8377 -1.9025 -1.6799
   81MOL    H9916259   2.762   7.402   3.154 -0.2251  1.5477  2.0007
   81MOL   H10016260   2.768   7.491   3.385 -2.1478  0.7909  0.3203
   81MOL   H10116261   2.709   7.336   3.443 -0.6799 -1.3590 -0.1384
   81MOL   C10216262   2.562   7.464   3.353 -0.0905  0.0454 -0.2569
   81MOL   C10316263   2.518   7.534   3.478  0.1443 -0.5226 -0.0348
   81MOL   C10416264   2.573   7.514   3.601 -0.0509  0.4328 -0.4601
   81MOL   C10516265   2.530   7.598   3.721  0.7795  0.3926 -0.4898
   81MOL   H10616266   2.562   7.538   3.274 -0.2358  0.5486  0.2162
   81MOL   H10716267   2.495   7.381   3.330  1.3600 -0.7538 -1.7177
   81MOL   H10816268   2.431   7.599   3.475  1.8407  1.9534  2.0003
   81MOL   H10916269   2.660   7.452   3.617 -1.0299 -0.0040  3.8457
   81MOL   H11016270   2.552   7.538   3.809 -1.8164 -3.0432 -2.0445
   81MOL   H11116271   2.423   7.608   3.740  1.1369  2.3378  0.6239
   81MOL   C11216272   2.585   7.742   3.717 -0.3877  0.3315 -0.0039
   81MOL   C11316273   2.536   7.821   3.837 -0.6149 -0.2168 -0.5503
   81MOL   C11416274   2.495   7.947   3.827 -0.2033  0.0056 -0.0793
   81MOL   C11516275   2.425   0.049   3.942 -0.4192 -0.3776  0.3459
   81MOL   H11616276   2.694   7.732   3.718 -0.3529  0.5437 -0.8758
   81MOL   H11716277   2.554   7.794   3.626 -0.6711 -0.2260 -0.2276
   81MOL   H11816278   2.536   7.769   3.931  1.1167 -0.2536 -0.5422
   81MOL   H11916279   2.502   0.022   3.732  1.5997  0.4257  0.2702
   81MOL   H12016280   2.450   0.008   4.040  1.2927 -0.1373  0.0232
   81MOL   H12116281   2.318   0.044   3.918 -0.4560  4.5995 -1.0727
   81MOL   C12216282   2.458   0.195   3.926  0.4070  0.4972 -0.2125
   81MOL   C12316283   2.370   0.283   4.015 -0.7180  0.0770  0.6131
   81MOL   C12416284   2.414   0.346   4.124  0.8679  0.4526 -0.5062
   81MOL   C12516285   2.339   0.420   4.230 -0.2832  0.8003  0.5781
   81MOL   H12616286   2.565   0.201   3.941  1.0254 -1.9346 -3.1160
   81MOL   H12716287   2.458   0.224   3.821  0.0978 -1.4879 -0.7803
   81MOL   H12816288   2.265   0.291   3.989 -0.5745  0.0263  0.0136
   81MOL   H12916289   2.521   0.337   4.140  0.7474  0.3986  0.2615
   81MOL   H13016290   2.358   0.361   4.320 -0.7132  0.6089  0.5462
   81MOL   H13116291   2.230   0.416   4.221 -0.1555  0.9680 -1.0568
   81MOL   C13216292   2.397   0.561   4.253  0.8323 -0.3085 -0.5703
   81MOL   C13316293   2.377   0.670   4.143 -0.5143 -0.3534 -0.1512
   81MOL   C13416294   2.319   0.791   4.158 -0.5020  0.5648  0.1075
   81MOL   C13516295   2.286   0.878   4.042  0.6977 -0.4401  0.4084
   81MOL   H13616296   2.354   0.602   4.345  0.6500  1.3406 -1.3584
   81MOL   H13716297   2.506   0.552   4.254  1.1286  2.3150 -2.2124
   81MOL   H13816298   2.405   0.633   4.046  1.8390  0.5420  0.1516
   81MOL   H13916299   2.283   0.828   4.253  0.0293  2.7043 -0.4856
   81MOL   H14016300   2.179   0.876   4.025  0.2921  1.7896  2.4340
   81MOL   H14116301   2.331   0.837   3.952 -0.1751  0.4998 -0.4673
   81MOL   C14216302   2.333   1.024   4.064  0.2939  0.2931 -0.2371
   81MOL   C14316303   2.236   1.106   4.149 -0.1069  0.4174 -0.6710
   81MOL   C14416304   2.284   1.166   4.264  0.0108  0.0647  0.3267
   81MOL   C14516305   2.199   1.239   4.373  0.1615  0.5756  0.5227
   81MOL   H14616306   2.431   1.036   4.111 -0.2533  0.0076  0.9876
   81MOL   H14716307   2.347   1.071   3.966 -0.0296  1.7446  0.3979
   81MOL   H14816308   2.134   1.122   4.115 -0.5758  2.1981  1.4647
   81MOL   H14916309   2.389   1.149   4.281 -0.2870  0.2063  2.5148
   81MOL   H15016310   2.153   1.171   4.445 -0.6457  0.3945 -0.1535
   81MOL   H15116311   2.117   1.286   4.318 -0.3428 -2.2074 -1.2251
   81MOL   C15216312   2.282   1.340   4.451 -0.1486 -0.3412  0.3398
   81MOL   C15316313   2.207   1.433   4.545 -0.2989  0.4180 -0.3877
   81MOL   C15416314   2.227   1.565   4.561 -0.1625  0.5987  0.2220
   81MOL   C15516315   2.163   1.658   4.660 -0.3186  0.1415 -0.0308
   81MOL   H15616316   2.370   1.291   4.495  0.9061  2.2782  1.2516
   81MOL   H15716317   2.329   1.405   4.378  1.4475  0.8927  2.4067
   81MOL   H15816318   2.133   1.387   4.610  1.9778 -2.4138  0.3111
   81MOL   H15916319   2.299   1.608   4.493  0.8931 -0.1750  0.8233
   81MOL   H16016320   2.209   1.754   4.684 -2.3445  0.7364  1.6493
   81MOL   H16116321   2.157   1.614   4.759  0.8547 -0.2410 -0.1297
   81MOL   C16216322   2.014   1.692   4.615  0.4324 -0.1181 -0.2615
   81MOL   C16316323   1.930   1.746   4.722 -0.7512 -0.0410  0.3363
   81MOL   C16416324   1.853   1.856   4.724 -0.2424 -0.2611 -0.9236
   81MOL   C16516325   1.780   1.920   4.837 -0.0394  0.4275 -0.4560
   81MOL   H16616326   2.023   1.766   4.535  0.2568  0.9270  0.6762
   81MOL   H16716327   1.969   1.604   4.569  2.3053 -2.2001  1.7615
   81MOL   H16816328   1.940   1.683   4.810  1.2592  1.7437  1.4374
   81MOL   H16916329   1.845   1.920   4.638  0.2237  0.1772 -0.6491
   81MOL   H17016330   1.758   1.855   4.922  3.1261 -1.4139 -0.9279
   81MOL   H17116331   1.681   1.939   4.795 -0.5477 -0.2159  0.4421
   81MOL   C17216332   1.848   2.056   4.877 -0.0008  0.5577 -0.0342
   81MOL   C17316333   1.770   2.143   4.961  0.1543 -0.5212  0.2929
   81MOL   C17416334   1.803   2.183   5.084 -0.3899  0.0010 -0.0276
   81MOL   C17516335   1.721   2.272   5.169 -0.8277  0.0193 -0.1405
   81MOL   H17616336   1.942   2.041   4.929 -0.8940 -1.1945  1.1357
   81MOL   H17716337   1.873   2.111   4.786  1.1641  0.2428  0.0895
   81MOL   H17816338   1.678   2.180   4.916 -0.3630 -2.6453 -0.4634
   81MOL   H17916339   1.893   2.138   5.125 -0.9762 -2.5176 -1.4412
   81MOL   H18016340   1.616   2.266   5.141 -1.2358  0.8169  1.1746
   81MOL   H18116341   1.754   2.370   5.137  1.0997 -0.9286 -1.1118
   81MOL   C18216342   1.750   2.253   5.318  0.5277  0.1603 -0.0932
   81MOL   C18316343   1.658   2.341   5.405 -0.0013  0.5590  0.5287
   81MOL   C18416344   1.551   2.300   5.466  0.0388 -0.2517  0.2203
   81MOL   C18516345   1.443   2.391   5.544 -0.5387 -0.0965 -0.0142
   81MOL   H18616346   1.729   2.147   5.335 -2.4999  0.8391  0.7727
   81MOL   H18716347   1.853   2.277   5.345  0.1671  0.4061  1.1142
   81MOL   H18816348   1.679   2.447   5.400 -0.4360  0.5619 -1.4919
   81MOL   H18916349   1.529   2.195   5.451 -0.4818 -0.3784  1.8306
   81MOL   H19016350   1.339   2.361   5.533 -1.2057  2.0122  0.3585
   81MOL   H19116351   1.439   2.491   5.503 -3.2686  0.0250  0.4493
   81MOL   C19216352   1.478   2.403   5.692 -0.4898  0.5314 -0.3552
   81MOL   C19316353   1.446   2.272   5.772  0.1868  0.8319 -1.1331
   81MOL   C19416354   1.530   2.206   5.858 -0.1927 -0.5440  0.1205
   81MOL   C19516355   1.500   2.084   5.930 -0.3452  0.1731  0.0541
   81MOL   H19616356   1.583   2.428   5.700 -0.7549  1.4971  0.3177
   81MOL   H19716357   1.425   2.490   5.732 -0.6328  0.6534 -0.8003
   81MOL   H19816358   1.348   2.230   5.755  0.3713  0.0213 -0.2647
   81MOL   H19916359   1.630   2.246   5.853  0.1270 -1.4157 -0.5187
   81MOL   H20016360   1.564   2.005   5.890  0.7381  0.6011  0.9194
   81MOL   H20116361   1.392   2.068   5.926 -0.3453  0.3658 -0.8511
   81MOL   H20216362   1.534   2.080   6.033  3.3578 -0.4052 -1.1123
   82MOL     C116363   3.034   5.235   1.856  0.1372 -0.0753  0.8555
   82MOL     C216364   3.109   5.293   1.736 -0.2770 -0.6325 -0.1380
   82MOL     C316365   3.078   5.401   1.663  0.3641 -0.2849 -0.0510
   82MOL     C416366   3.159   5.470   1.557 -0.2159  0.3086 -0.2190
   82MOL     H516367   3.032   5.126   1.855  1.6262 -0.1577 -2.7648
   82MOL     H616368   2.933   5.276   1.848  0.0478 -0.2298  1.1964
   82MOL     H716369   3.207   5.249   1.721  0.3206  0.2329  1.1420
   82MOL     H816370   2.988   5.460   1.677  1.2799  0.3618  3.5832
   82MOL     H916371   3.246   5.411   1.530 -0.5414  0.9743 -2.7677
   82MOL    H1016372   3.200   5.562   1.598  1.9218 -0.6484 -0.1699
   82MOL    H1116373   3.074   5.265   1.952  2.3768  1.1362 -0.4147
   82MOL    C1216374   3.081   5.499   1.424  0.1235  0.0215 -0.2707
   82MOL    C1316375   3.047   5.371   1.350  0.1278  0.1386  0.3537
   82MOL    C1416376   3.061   5.342   1.218  0.8789  0.4399 -0.3772
   82MOL    C1516377   2.997   5.222   1.156 -0.3508 -0.7400  0.0892
   82MOL    H1616378   2.991   5.554   1.450  0.3323 -1.0590  3.0495
   82MOL    H1716379   3.136   5.569   1.361  1.1035  1.1539  1.7981
   82MOL    H1816380   2.997   5.298   1.412  1.1519 -1.7984 -1.0530
   82MOL    H1916381   3.106   5.405   1.142 -0.2004  0.6506 -0.8443
   82MOL    H2016382   2.929   5.175   1.228 -0.8599 -0.9750 -0.5452
   82MOL    H2116383   3.077   5.157   1.119  0.8274  0.2304  0.8769
   82MOL    C2216384   2.918   5.257   1.022  0.3861  0.1740 -0.1579
   82MOL    C2316385   2.853   5.149   0.937 -0.3472  0.1950  0.3510
   82MOL    C2416386   2.892   5.020   0.926 -0.3143 -0.3468 -0.0990
   82MOL    C2516387   2.839   4.920   0.825  0.6487 -0.0220  0.5956
   82MOL    H2616388   2.839   5.331   1.036  1.4783  1.4676 -0.7390
   82MOL    H2716389   2.985   5.315   0.959  0.2007 -0.0370 -0.5545
   82MOL    H2816390   2.778   5.187   0.870 -1.0385 -2.0641 -0.2097
   82MOL    H2916391   2.974   4.991   0.990  1.8399  1.1836 -2.0549
   82MOL    H3016392   2.785   4.848   0.887  0.2996  1.6214  2.2248
   82MOL    H3116393   2.918   4.863   0.775 -0.5578 -1.5502  0.4025
   82MOL    C3216394   2.730   4.974   0.732  0.5687  0.2843 -0.1105
   82MOL    C3316395   2.674   4.863   0.649  0.8468  0.3772 -0.0556
   82MOL    C3416396   2.551   4.810   0.660 -0.0372  0.1880  0.0543
   82MOL    C3516397   2.512   4.685   0.582  0.3811  0.5628  0.5818
   82MOL    H3616398   2.651   5.011   0.796  0.0889 -0.4555 -0.2710
   82MOL    H3716399   2.760   5.057   0.668  1.1700 -1.3817 -2.0450
   82MOL    H3816400   2.737   4.808   0.580  0.8595  3.2412 -2.4394
   82MOL    H3916401   2.478   4.852   0.727 -0.1053 -0.4620  0.3865
   82MOL    H4016402   2.517   4.602   0.653  3.6849  1.7294  1.8141
   82MOL    H4116403   2.569   4.660   0.493 -2.9407 -0.6986 -1.2892
   82MOL    C4216404   2.365   4.696   0.537  0.7832 -0.3670 -0.0752
   82MOL    C4316405   2.306   4.571   0.479 -0.2668  0.1391 -0.7783
   82MOL    C4416406   2.186   4.523   0.524  0.9344 -0.9100  1.2021
   82MOL    C4516407   2.117   4.395   0.493 -0.2178 -0.0596  0.3726
   82MOL    H4616408   2.312   4.726   0.628  0.3604  0.5705 -0.6174
   82MOL    H4716409   2.364   4.768   0.456  0.5539  0.1793  0.4051
   82MOL    H4816410   2.364   4.506   0.416 -1.4080 -1.5812 -0.0665
   82MOL    H4916411   2.134   4.589   0.592 -0.9316 -2.2190  1.0973
   82MOL    H5016412   2.168   4.340   0.414 -0.7695 -0.1408  0.0740
   82MOL    H5116413   2.022   4.421   0.449  0.4616  0.6491 -0.6797
   82MOL    C5216414   2.112   4.319   0.626 -0.1675 -0.4032  0.1406
   82MOL    C5316415   2.044   4.187   0.618  0.0862 -0.5090  0.5184
   82MOL    C5416416   1.942   4.149   0.694  0.8322  0.1532 -0.1250
   82MOL    C5516417   1.886   4.008   0.675 -1.2433  0.3696  0.3673
   82MOL    H5616418   2.211   4.307   0.671  0.2212  0.3575 -0.5000
   82MOL    H5716419   2.069   4.388   0.699 -1.0835  1.1940 -1.8400
   82MOL    H5816420   2.083   4.117   0.546 -3.0445 -2.1942  0.4019
   82MOL    H5916421   1.903   4.207   0.776  0.9009  0.6001 -0.4055
   82MOL    H6016422   1.912   3.972   0.575  0.7145  1.3794  0.4901
   82MOL    H6116423   1.778   4.026   0.671 -1.4857 -1.1234  0.0575
   82MOL    C6216424   1.916   3.911   0.788 -0.3625  0.0442  0.5276
   82MOL    C6316425   1.848   3.778   0.778 -0.5129 -0.1607  0.0103
   82MOL    C6416426   1.752   3.744   0.862  0.1078 -0.1150  0.1595
   82MOL    C6516427   1.656   3.621   0.851  0.7815  0.0934  0.2337
   82MOL    H6616428   2.021   3.893   0.765 -0.3364 -0.0002  0.6839
   82MOL    H6716429   1.910   3.957   0.886 -3.4614 -0.1836  0.4965
   82MOL    H6816430   1.865   3.716   0.691 -1.8016 -1.3731  0.5833
   82MOL    H6916431   1.738   3.817   0.940  1.1091  1.3550 -1.0082
   82MOL    H7016432   1.660   3.558   0.940  1.4362  1.9511  1.5466
   82MOL    H7116433   1.687   3.561   0.765 -0.1894 -2.6652  1.7715
   82MOL    C7216434   1.505   3.657   0.836 -0.0091  0.3515 -0.2336
   82MOL    C7316435   1.491   3.729   0.702 -0.4224  0.5864  0.0640
   82MOL    C7416436   1.405   3.829   0.683 -0.9124  0.2536 -0.6288
   82MOL    C7516437   1.389   3.900   0.551  0.2453 -0.6315  0.1539
   82MOL    H7616438   1.441   3.569   0.832 -0.7408  0.8097  1.1426
   82MOL    H7716439   1.466   3.715   0.920 -0.3175 -1.5171  0.9457
   82MOL    H7816440   1.551   3.693   0.620  0.9208  1.0186  0.8352
   82MOL    H7916441   1.341   3.861   0.763 -0.4381 -0.7049  0.1377
   82MOL    H8016442   1.471   3.890   0.481  3.0607  3.0146  2.7123
   82MOL    H8116443   1.384   4.009   0.558 -1.3482 -0.6794  0.0784
   82MOL    C8216444   1.270   3.844   0.468 -0.1773  0.4925  0.1135
   82MOL    C8316445   1.234   3.933   0.346 -0.1801  0.2524 -0.7290
   82MOL    C8416446   1.188   4.057   0.349 -0.6078 -0.0707 -0.5481
   82MOL    C8516447   1.163   4.145   0.226 -0.1188  0.3554  0.3558
   82MOL    H8616448   1.286   3.738   0.449 -0.8519  0.3326  0.4511
   82MOL    H8716449   1.175   3.840   0.521 -1.6041  1.1736 -2.3240
   82MOL    H8816450   1.259   3.886   0.252  0.5499  0.7091 -0.7637
   82MOL    H8916451   1.164   4.091   0.449 -0.2268  0.0145 -0.4847
   82MOL    H9016452   1.062   4.185   0.218 -0.0993  0.3159 -0.1232
   82MOL    H9116453   1.175   4.084   0.136 -1.1115 -0.6834  0.9191
   82MOL    C9216454   1.256   4.270   0.220  0.1510  0.7436 -0.1052
   82MOL    C9316455   1.200   4.368   0.121 -0.2881  0.6254 -0.4717
   82MOL    C9416456   1.255   4.376   7.973  0.3118  0.1030 -0.3872
   82MOL    C9516457   1.213   4.474   7.871  0.4725  0.1331  0.3365
   82MOL    H9616458   1.255   4.326   0.314  2.4990  0.6140  0.0229
   82MOL    H9716459   1.359   4.242   0.199  0.5696  0.0715  2.6823
   82MOL    H9816460   1.124   4.434   0.159 -0.1947 -0.2412  1.2680
   82MOL    H9916461   1.334   4.308   7.945 -0.8190 -1.8164  0.9414
   82MOL   H10016462   1.109   4.466   7.838  0.8006  1.0374 -0.9412
   82MOL   H10116463   1.278   4.459   7.786  2.2588  0.4538  1.6222
   82MOL   C10216464   1.215   4.615   7.922 -0.1567 -0.0611 -0.1384
   82MOL   C10316465   1.171   4.713   7.821  0.1531  0.0737  0.5253
   82MOL   C10416466   1.142   4.699   7.694  0.0755  0.1282  0.0859
   82MOL   C10516467   1.116   4.813   7.600 -0.4776 -0.9352 -0.9613
   82MOL   H10616468   1.157   4.625   0.037 -0.6881  0.0448 -0.4833
   82MOL   H10716469   1.317   4.647   7.944 -0.9431  1.8148  0.8348
   82MOL   H10816470   1.147   4.809   7.863 -1.1080  0.8862 -1.9089
   82MOL   H10916471   1.155   4.599   7.656  1.1441 -0.4093  1.7715
   82MOL   H11016472   1.203   4.830   7.536  0.4487  3.5465  1.3009
   82MOL   H11116473   1.112   4.908   7.653  0.8175 -0.5649 -1.4946
   82MOL   C11216474   0.979   4.796   7.529  0.5885 -0.1146 -0.2978
   82MOL   C11316475   0.944   4.930   7.462 -0.5396 -0.2830 -0.2444
   82MOL   C11416476   0.958   4.950   7.329 -0.4764  0.7138  0.5166
   82MOL   C11516477   0.895   5.081   7.281  0.4111 -0.3909  0.0150
   82MOL   H11616478   0.980   4.716   7.455 -0.9617  1.4902 -2.1278
   82MOL   H11716479   0.893   4.761   7.587 -0.4150  3.1878  0.3627
   82MOL   H11816480   0.899   5.015   7.512  1.0612 -0.7664  2.1088
   82MOL   H11916481   1.015   4.886   7.264 -0.0786  1.4441  0.1289
   82MOL   H12016482   0.963   5.166   7.272  1.0077 -0.9690 -1.0138
   82MOL   H12116483   0.816   5.115   7.348  0.5499 -1.4057  0.7142
   82MOL   C12216484   0.836   5.054   7.141 -0.6080  0.6951 -0.2222
   82MOL   C12316485   0.773   5.178   7.081 -0.3417 -0.9981  0.7280
   82MOL   C12416486   0.678   5.178   6.984  1.1007 -0.2266 -0.6613
   82MOL   C12516487   0.613   5.299   6.932  0.2102 -0.5907 -0.5518
   82MOL   H12616488   0.915   5.007   7.082 -1.3036 -0.0849 -0.5423
   82MOL   H12716489   0.763   4.975   7.154  0.7761 -0.4810  0.5882
   82MOL   H12816490   0.797   5.273   7.127 -2.3374  0.0494 -0.3209
   82MOL   H12916491   0.658   5.079   6.945  2.3127  0.0289 -1.9218
   82MOL   H13016492   0.655   5.395   6.963  2.0404 -1.4849 -0.2330
   82MOL   H13116493   0.511   5.307   6.969  0.9177  1.4398  1.0392
   82MOL   C13216494   0.605   5.305   6.782  0.2778  0.3007  0.3288
   82MOL   C13316495   0.509   5.202   6.726 -0.4573  0.2298 -0.0099
   82MOL   C13416496   0.538   5.136   6.613  0.3771  0.3719  0.7635
   82MOL   C13516497   0.443   5.028   6.548 -0.2085 -0.2688  0.3630
   82MOL   H13616498   0.569   5.400   6.742  0.8637  1.1874  1.8625
   82MOL   H13716499   0.702   5.312   6.732 -0.7647  1.1043 -1.6474
   82MOL   H13816500   0.421   5.194   6.788  0.5914 -0.3202  1.4377
   82MOL   H13916501   0.631   5.149   6.560 -0.4900  0.2294 -0.8246
   82MOL   H14016502   0.375   4.998   6.628 -0.9447  0.2674 -0.0479
   82MOL   H14116503   0.509   4.945   6.523 -1.3189 -0.7668 -0.9876
   82MOL   C14216504   0.361   5.076   6.423 -0.5624  0.0230  0.0033
   82MOL   C14316505   0.291   4.966   6.351  0.6491  0.6236 -0.2089
   82MOL   C14416506   0.157   4.970   6.315  0.0396  0.0956  0.1284
   82MOL   C14516507   0.088   4.846   6.260 -0.2103 -0.2606 -0.1823
   82MOL   H14616508   0.285   5.149   6.450 -0.1600 -0.6876  3.3896
   82MOL   H14716509   0.439   5.122   6.363  0.5043 -1.2036  0.4246
   82MOL   H14816510   0.359   4.889   6.319  0.2374  0.1915 -0.0379
   82MOL   H14916511   0.097   5.054   6.345 -1.0685 -0.9433  0.8792
   82MOL   H15016512   0.157   4.765   6.234 -0.6211  0.1115 -2.5894
   82MOL   H15116513   0.043   4.873   6.164 -0.5631 -0.2837 -0.0229
   82MOL   C15216514   7.952   4.789   6.356  0.8540 -0.2141 -0.1345
   82MOL   C15316515   0.037   4.706   6.479  0.5242 -0.2599  0.7081
   82MOL   C15416516   7.959   4.598   6.541  0.3360 -0.2486 -0.5852
   82MOL   C15516517   0.069   4.522   6.641 -0.2761  0.2937  0.0691
   82MOL   H15616518   7.894   4.869   6.402 -1.4945 -1.0435 -1.5868
   82MOL   H15716519   7.890   4.722   6.296  0.3710 -0.3022  0.4580
   82MOL   H15816520   0.130   4.743   6.519 -0.7501  1.6097  2.0479
   82MOL   H15916521   7.865   4.554   6.511  0.1241  0.4578 -0.9687
   82MOL   H16016522   0.176   4.539   6.629 -0.0958 -1.5063 -1.0582
   82MOL   H16116523   0.058   4.414   6.636  0.2446  0.0672  2.7881
   82MOL   C16216524   0.024   4.559   6.784 -0.4491  0.0676  0.0342
   82MOL   C16316525   0.104   4.490   6.887 -0.1359 -0.0734  0.2674
   82MOL   C16416526   0.205   4.546   6.963 -0.2799  0.6554 -0.8766
   82MOL   C16516527   0.301   4.472   7.058  0.6382 -0.1212 -0.2714
   82MOL   H16616528   0.043   4.666   6.794  2.9403 -0.3350 -1.3849
   82MOL   H16716529   7.897   4.526   6.783  0.0581 -1.5018 -1.9090
   82MOL   H16816530   0.092   4.382   6.889  1.6140 -0.2957 -0.5562
   82MOL   H16916531   0.221   4.652   6.960 -0.9210  0.7448 -1.2361
   82MOL   H17016532   0.405   4.504   7.048 -0.1782  2.0925 -2.4506
   82MOL   H17116533   0.300   4.366   7.035  2.9936 -0.2780  0.2378
   82MOL   C17216534   0.251   4.501   7.205  0.0793  0.1100  0.3572
   82MOL   C17316535   0.354   4.451   7.307  0.0975  0.3473  0.0047
   82MOL   C17416536   0.330   4.353   7.390  0.8802 -0.1830 -0.1957
   82MOL   C17516537   0.437   4.298   7.484  0.1303  0.0469 -0.1259
   82MOL   H17616538   0.240   4.609   7.214 -2.5813 -0.1056  0.0656
   82MOL   H17716539   0.155   4.452   7.221 -0.8092  1.5881 -0.3752
   82MOL   H17816540   0.446   4.508   7.309  0.7196 -0.4801 -2.5506
   82MOL   H17916541   0.230   4.313   7.386  0.0500  1.7456  0.2446
   82MOL   H18016542   0.517   4.371   7.492  1.2699 -1.2444  0.4300
   82MOL   H18116543   0.484   4.212   7.436 -0.6106 -0.3499 -0.1508
   82MOL   C18216544   0.378   4.269   7.628  0.0553 -0.0265 -0.3419
   82MOL   C18316545   0.310   4.392   7.686  0.7534 -0.7025 -0.7683
   82MOL   C18416546   0.330   4.437   7.812  0.5228  0.2402 -0.4642
   82MOL   C18516547   0.274   4.553   7.890 -0.3796  0.0029  0.8196
   82MOL   H18616548   0.307   4.187   7.621  2.6311 -2.2296 -1.7808
   82MOL   H18716549   0.458   4.240   7.695 -2.3264 -1.7154  1.8569
   82MOL   H18816550   0.237   4.443   7.624  1.5774  3.5144  1.5295
   82MOL   H18916551   0.398   4.376   7.871 -1.0960  0.3346  1.5331
   82MOL   H19016552   0.350   4.605   7.949 -2.4378  2.0421  1.7534
   82MOL   H19116553   0.197   4.516   7.957 -0.2103  0.0770  1.0562
   82MOL   C19216554   0.224   4.655   7.790 -0.4287 -0.0153 -0.4591
   82MOL   C19316555   0.193   4.798   7.848 -0.3069  0.2359  0.8285
   82MOL   C19416556   0.066   4.844   7.846  0.1893  0.5712  0.0067
   82MOL   C19516557   0.018   4.971   7.919 -0.7877 -0.0922  0.2560
   82MOL   H19616558   0.291   4.666   7.705 -0.2221  0.2281 -0.2653
   82MOL   H19716559   0.128   4.614   7.758 -1.4719  2.0997 -0.1876
   82MOL   H19816560   0.277   4.861   7.875 -0.4821  1.3673 -1.1492
   82MOL   H19916561   7.967   4.796   7.787  0.5217 -0.7482  0.6427
   82MOL   H20016562   0.014   5.062   7.859 -0.6788  0.6969  1.4384
   82MOL   H20116563   0.072   5.000   0.031  0.0453 -3.7546  1.0485
   82MOL   H20216564   7.893   4.957   7.957 -2.2082 -1.0342 -3.6062
   83MOL     C116565   2.589   6.475   3.975 -0.4108  0.0415 -0.2410
   83MOL     C216566   2.531   6.615   3.999  0.0663 -0.1916 -0.5425
   83MOL     C316567   2.609   6.717   4.036 -0.6026  0.2610  0.5040
   83MOL     C416568   2.569   6.862   4.037 -0.0168 -0.3391  0.0393
   83MOL     H516569   2.697   6.482   3.986 -0.2273  0.4835 -2.2377
   83MOL     H616570   2.572   6.444   3.872 -2.3812  2.5849 -0.7152
   83MOL     H716571   2.429   6.629   3.966  0.5315  0.4805 -1.7485
   83MOL     H816572   2.708   6.687   4.065 -0.3116  1.0406  0.3270
   83MOL     H916573   2.582   6.892   4.141 -1.8117  0.7324 -0.0229
   83MOL    H1016574   2.463   6.858   4.013  0.6660 -0.9714 -3.0589
   83MOL    H1116575   2.548   6.394   4.036 -1.9415  1.5576  0.7750
   83MOL    C1216576   2.654   6.943   3.932  0.0138 -0.2709 -0.6382
   83MOL    C1316577   2.640   6.902   3.789  0.1011 -0.3582 -0.3799
   83MOL    C1416578   2.605   6.991   3.690 -0.1930  0.0882  0.6395
   83MOL    C1516579   2.593   6.956   3.540  0.1600  0.5371 -0.4138
   83MOL    H1616580   2.636   7.050   3.929  0.9881 -0.0214  1.2499
   83MOL    H1716581   2.758   6.924   3.960 -1.2491 -3.5173  2.3825
   83MOL    H1816582   2.656   6.801   3.756  0.6279 -0.5667  0.5137
   83MOL    H1916583   2.580   7.094   3.709  2.4488  1.0933 -0.9945
   83MOL    H2016584   2.645   6.861   3.525  0.3442 -0.2812  4.4228
   83MOL    H2116585   2.642   7.039   3.490 -0.7059  0.4596 -1.4118
   83MOL    C2216586   2.453   6.945   3.495  0.3620  0.3147 -0.6479
   83MOL    C2316587   2.372   7.069   3.511  0.6858  0.0706  0.3094
   83MOL    C2416588   2.273   7.088   3.600 -0.0904  0.2908 -0.5178
   83MOL    C2516589   2.197   7.214   3.617  0.2612 -0.1610 -0.0383
   83MOL    H2616590   2.441   6.918   3.390 -3.9883  1.4013 -0.5317
   83MOL    H2716591   2.404   6.868   3.554 -1.1824  1.9488  0.2671
   83MOL    H2816592   2.397   7.155   3.450  0.6164  0.0862  0.3026
   83MOL    H2916593   2.245   7.010   3.669 -1.7226 -0.8836 -2.4624
   83MOL    H3016594   2.089   7.214   3.604  0.1434 -1.2194  0.8429
   83MOL    H3116595   2.223   7.277   3.532 -0.5363  0.8729  0.4744
   83MOL    C3216596   2.238   7.300   3.734  0.4483  0.0911  0.0233
   83MOL    C3316597   2.234   7.217   3.862 -0.2597  0.3123  0.1486
   83MOL    C3416598   2.158   7.242   3.973  0.1790  0.0614  0.0973
   83MOL    C3516599   2.173   7.185   4.109 -0.7428 -0.0475 -0.1517
   83MOL    H3616600   2.338   7.342   3.720  0.9456 -0.6278  1.3153
   83MOL    H3716601   2.158   7.373   3.740 -0.5335 -1.1302  2.2859
   83MOL    H3816602   2.304   7.136   3.870 -1.5712 -0.8087  0.5560
   83MOL    H3916603   2.092   7.327   3.979  2.2009  1.8207 -1.9272
   83MOL    H4016604   2.077   7.158   4.151 -0.5577  0.0281  0.3250
   83MOL    H4116605   2.189   7.267   4.179 -0.3137 -0.9167  0.7846
   83MOL    C4216606   2.269   7.067   4.119  0.6366  0.8353  0.2051
   83MOL    C4316607   2.269   7.008   4.263  0.5843  0.7826 -0.3960
   83MOL    C4416608   2.201   6.895   4.301 -0.1313 -0.0221  0.5729
   83MOL    C4516609   2.196   6.849   4.443  0.6060 -0.0313 -0.4635
   83MOL    H4616610   2.231   6.993   4.049 -1.4805  1.1541  0.9905
   83MOL    H4716611   2.367   7.105   4.088 -0.1767  0.1366 -3.4381
   83MOL    H4816612   2.309   7.082   4.331 -1.1661 -0.6674  2.2948
   83MOL    H4916613   2.166   6.831   4.222  2.0610  0.5977 -0.9501
   83MOL    H5016614   2.242   6.922   4.509 -2.2305  0.8750  0.5642
   83MOL    H5116615   2.257   6.759   4.454 -0.4106 -0.5926  0.6855
   83MOL    C5216616   2.048   6.828   4.488  0.4328  0.0136  0.6115
   83MOL    C5316617   2.033   6.765   4.619  0.3823  0.4910  0.0793
   83MOL    C5416618   1.948   6.817   4.715  0.6887 -0.5817  1.1130
   83MOL    C5516619   1.923   6.769   4.857 -0.0729 -0.0569  0.0378
   83MOL    H5616620   2.000   6.925   4.485 -0.2483 -0.3511 -0.9452
   83MOL    H5716621   2.000   6.774   4.406  1.7076  1.1269 -0.9037
   83MOL    H5816622   2.093   6.678   4.642 -0.8723  0.4889  3.6362
   83MOL    H5916623   1.884   6.903   4.703 -0.9438 -2.0494 -1.2322
   83MOL    H6016624   1.927   6.858   4.920 -1.9394  0.4334 -0.4876
   83MOL    H6116625   1.999   6.700   4.891 -0.7843  0.0540  1.9332
   83MOL    C6216626   1.787   6.696   4.873  0.6295  0.2974 -0.1031
   83MOL    C6316627   1.750   6.645   5.021 -0.4191 -0.3508  0.8774
   83MOL    C6416628   1.678   6.529   5.039 -0.0305 -0.2216  0.9252
   83MOL    C6516629   1.632   6.481   5.176  0.2532 -0.0928  1.0246
   83MOL    H6616630   1.708   6.759   4.831  0.0518 -2.8231 -3.9425
   83MOL    H6716631   1.789   6.604   4.814  3.4029 -1.1784  2.1811
   83MOL    H6816632   1.796   6.699   5.103  2.0289 -0.0809 -0.6356
   83MOL    H6916633   1.642   6.472   4.955  0.3654  0.7881  0.0643
   83MOL    H7016634   1.524   6.493   5.181 -0.1267 -2.9961  0.3924
   83MOL    H7116635   1.664   6.547   5.257  1.1124 -1.2001  1.5981
   83MOL    C7216636   1.675   6.335   5.211 -1.0091 -0.4430  0.0678
   83MOL    C7316637   1.624   6.281   5.343  0.1128 -0.1978 -0.0884
   83MOL    C7416638   1.524   6.194   5.343  0.7657  0.2283 -0.0771
   83MOL    C7516639   1.461   6.154   5.466  0.0398 -0.0714  0.2767
   83MOL    H7616640   1.646   6.258   5.140 -1.7174 -0.0356 -0.0874
   83MOL    H7716641   1.784   6.329   5.220 -0.8202  3.0974  1.1305
   83MOL    H7816642   1.659   6.322   5.437  1.5199 -0.0772 -0.6541
   83MOL    H7916643   1.495   6.151   5.248  1.3646 -0.7724  0.1947
   83MOL    H8016644   1.497   6.217   5.548  1.5971  0.7735 -1.0230
   83MOL    H8116645   1.501   6.056   5.493  0.7882 -0.2500 -1.4117
   83MOL    C8216646   1.310   6.157   5.469 -1.0728 -0.3509  0.0172
   83MOL    C8316647   1.249   6.132   5.604 -0.2967 -0.5434  0.3422
   83MOL    C8416648   1.142   6.198   5.654 -0.8432 -0.6362  0.3173
   83MOL    C8516649   1.063   6.164   5.779 -0.1140  0.7353 -0.2066
   83MOL    H8616650   1.269   6.252   5.435  1.7110  1.1405  0.6699
   83MOL    H8716651   1.270   6.086   5.397 -0.5868 -0.7306  0.1135
   83MOL    H8816652   1.292   6.051   5.662 -1.1278 -2.1162 -1.1954
   83MOL    H8916653   1.112   6.281   5.593 -0.2917 -0.0301  0.8547
   83MOL    H9016654   1.103   6.077   5.831  0.6795  0.4983 -1.2180
   83MOL    H9116655   0.958   6.140   5.760 -0.0535 -0.6311  1.0583
   83MOL    C9216656   1.070   6.284   5.870  0.9549  0.5644  0.3963
   83MOL    C9316657   0.961   6.378   5.830 -0.2157 -0.3242 -0.7494
   83MOL    C9416658   0.980   6.488   5.748 -0.0908 -0.1827  0.2388
   83MOL    C9516659   0.873   6.590   5.725 -0.1816 -0.8709  0.0702
   83MOL    H9616660   1.060   6.273   5.978 -1.2619  0.4496  0.2041
   83MOL    H9716661   1.164   6.333   5.843  1.9569 -1.8336 -0.5851
   83MOL    H9816662   0.858   6.362   5.858 -0.1088 -1.1747 -0.8206
   83MOL    H9916663   1.080   6.510   5.715  0.4796 -0.2266  1.9024
   83MOL   H10016664   0.900   6.687   5.768 -0.5492  0.3897 -2.4228
   83MOL   H10116665   0.783   6.574   5.785 -2.2648  2.3342 -2.0289
   83MOL   C10216666   0.829   6.597   5.581 -0.5969  0.2620  0.4888
   83MOL   C10316667   0.738   6.715   5.548 -0.2076  0.3460 -0.6135
   83MOL   C10416668   0.772   6.804   5.453 -0.4691 -0.9072 -0.4014
   83MOL   C10516669   0.678   6.916   5.415  1.0962 -0.9034  0.1557
   83MOL   H10616670   0.914   6.599   5.513 -0.3606 -0.1317  0.7702
   83MOL   H10716671   0.772   6.507   5.556 -0.1345  0.6474 -2.0568
   83MOL   H10816672   0.640   6.714   5.595  0.0400 -0.8539 -0.1001
   83MOL   H10916673   0.869   6.798   5.405 -0.5899 -0.0481 -0.7662
   83MOL   H11016674   0.713   7.013   5.450 -2.6959  0.3482  0.6884
   83MOL   H11116675   0.587   6.907   5.475  0.3767  0.1044 -0.7519
   83MOL   C11216676   0.668   6.936   5.258 -0.0450 -0.4273  0.0781
   83MOL   C11316677   0.553   7.025   5.224 -0.3995 -0.4074  0.5253
   83MOL   C11416678   0.562   7.138   5.159  0.3886 -0.2531 -0.1004
   83MOL   C11516679   0.438   7.217   5.126 -0.0709 -0.0210 -0.5761
   83MOL   H11616680   0.757   6.984   5.219 -0.8124  0.3571 -0.7252
   83MOL   H11716681   0.646   6.844   5.204  1.9266 -0.5353 -0.5738
   83MOL   H11816682   0.460   6.988   5.266  0.1390 -0.6841  1.5021
   83MOL   H11916683   0.655   7.174   5.118  0.5051 -2.4982 -1.9283
   83MOL   H12016684   0.471   7.312   5.084 -0.7022  0.1313 -0.7436
   83MOL   H12116685   0.396   7.246   5.222 -0.6978 -1.4004 -0.4252
   83MOL   C12216686   0.336   7.140   5.039 -0.6124 -0.0437  0.6177
   83MOL   C12316687   0.208   7.226   5.017 -0.6124 -0.5411  0.1165
   83MOL   C12416688   0.090   7.176   4.985  0.1444 -0.3528  0.0910
   83MOL   C12516689   7.932   7.240   4.978 -0.5674  0.8991  0.2697
   83MOL   H12616690   0.383   7.115   4.944 -0.4301  2.5148 -0.0089
   83MOL   H12716691   0.318   7.041   5.081 -0.5858 -0.7212 -0.9191
   83MOL   H12816692   0.213   7.333   5.033 -0.9051 -0.4501 -0.3926
   83MOL   H12916693   0.089   7.070   4.964 -1.2202 -0.8078  2.2837
   83MOL   H13016694   7.933   7.333   5.035 -1.4056  0.5270  0.9166
   83MOL   H13116695   7.862   7.170   5.023 -0.9845  1.8460  1.1268
   83MOL   C13216696   7.899   7.269   4.831  0.2947 -0.1304 -0.3582
   83MOL   C13316697   7.754   7.318   4.813 -0.5960  0.4014  0.0728
   83MOL   C13416698   7.683   7.270   4.711 -0.0483 -0.3967 -0.2605
   83MOL   C13516699   7.535   7.304   4.692  0.1949  0.7376 -0.3280
   83MOL   H13616700   7.967   7.338   4.783  1.9904 -2.4127 -1.3301
   83MOL   H13716701   7.917   7.181   4.769 -0.4679  0.2175 -1.0746
   83MOL   H13816702   7.712   7.394   4.878  1.6032 -0.1050  2.1661
   83MOL   H13916703   7.743   7.221   4.636  1.2264  0.5010  0.1435
   83MOL   H14016704   7.532   7.377   4.610  1.7735  2.3053  0.9646
   83MOL   H14116705   7.492   7.354   4.779 -1.8441 -0.8171 -0.4162
   83MOL   C14216706   7.440   7.189   4.664  0.3214 -0.0467  0.5253
   83MOL   C14316707   7.462   7.121   4.532  0.0107  0.0141  0.4134
   83MOL   C14416708   7.366   7.101   4.435 -0.1618  0.4465 -0.8250
   83MOL   C14516709   7.407   7.050   4.297 -0.0338 -0.0611 -0.9291
   83MOL   H14616710   7.434   7.110   4.739  1.0441  0.5065  1.1866
   83MOL   H14716711   7.338   7.225   4.659 -0.3954 -2.2073 -1.0115
   83MOL   H14816712   7.567   7.098   4.519  0.6537  2.1106  1.6496
   83MOL   H14916713   7.263   7.125   4.456 -0.6370 -1.4381 -0.9010
   83MOL   H15016714   7.316   7.016   4.247 -0.9497 -0.6565  1.1185
   83MOL   H15116715   7.478   6.968   4.306  1.3350  1.1469 -0.5963
   83MOL   C15216716   7.480   7.156   4.212  0.0306 -0.6113  0.9326
   83MOL   C15316717   7.507   7.108   4.069  0.5711  0.7639 -0.1540
   83MOL   C15416718   7.627   7.099   4.014 -0.1219 -0.0823 -0.5413
   83MOL   C15516719   7.662   7.055   3.875 -0.3075  0.5458  0.2027
   83MOL   H15616720   7.409   7.237   4.196  1.0141 -0.1844 -1.4510
   83MOL   H15716721   7.577   7.194   4.243  0.7379  0.4973 -2.4211
   83MOL   H15816722   7.423   7.077   4.009  0.5694 -0.5253  0.4933
   83MOL   H15916723   7.705   7.117   4.086  0.0399 -0.4658 -0.6227
   83MOL   H16016724   7.565   7.047   3.826  0.0426  0.1223 -0.4149
   83MOL   H16116725   7.705   6.955   3.877  0.4792  0.8909  0.6550
   83MOL   C16216726   7.734   7.167   3.804 -0.4375 -0.0646 -0.2336
   83MOL   C16316727   7.772   7.137   3.660  0.3482  0.1376  0.1329
   83MOL   C16416728   7.891   7.091   3.615  0.0504  0.4929 -0.6636
   83MOL   C16516729   7.928   7.071   3.466 -0.2698  0.2962  0.4826
   83MOL   H16616730   7.688   7.265   3.794 -0.5156 -0.1244 -0.4894
   83MOL   H16716731   7.833   7.188   3.845 -0.2794  1.2828 -1.2835
   83MOL   H16816732   7.711   7.154   3.573 -1.6193 -1.8595  1.0756
   83MOL   H16916733   7.965   7.054   3.685 -1.9070 -1.8674  0.2678
   83MOL   H17016734   7.836   7.107   3.420  0.5055  1.6810  0.0020
   83MOL   H17116735   7.943   6.964   3.451 -1.3328  0.0555  1.0705
   83MOL   C17216736   0.076   7.140   3.416 -0.6098 -0.4402 -0.5071
   83MOL   C17316737   0.102   7.152   3.269  0.1286  0.5953  0.0861
   83MOL   C17416738   0.211   7.102   3.211  0.3321 -0.3695  0.2516
   83MOL   C17516739   0.236   7.079   3.058  0.2289 -0.0371 -0.1989
   83MOL   H17616740   0.073   7.237   3.466 -0.9820 -1.1946  0.9750
   83MOL   H17716741   0.161   7.095   3.467 -0.7168 -0.2638 -0.1654
   83MOL   H17816742   0.026   7.198   3.208  0.8343  0.1973 -1.0906
   83MOL   H17916743   0.290   7.057   3.270  0.0047 -3.5379 -1.6242
   83MOL   H18016744   0.144   7.111   3.010 -0.5267  0.0266  1.2765
   83MOL   H18116745   0.269   6.975   3.054  0.1479 -0.0645 -0.1447
   83MOL   C18216746   0.345   7.165   2.998 -0.4919 -0.2282  0.4065
   83MOL   C18316747   0.354   7.129   2.848 -0.0378 -0.0383 -0.6705
   83MOL   C18416748   0.454   7.062   2.785 -0.3800  0.1355  0.2774
   83MOL   C18516749   0.471   7.037   2.635  0.6477  0.0104 -0.4200
   83MOL   H18616750   0.335   7.273   3.009  0.9814 -0.0180 -0.1722
   83MOL   H18716751   0.443   7.139   3.039 -0.3628 -1.0632 -0.4160
   83MOL   H18816752   0.285   7.188   2.791  0.3168  1.9309  0.8963
   83MOL   H18916753   0.534   7.019   2.842  1.0753  2.1484 -0.1671
   83MOL   H19016754   0.523   6.942   2.625  0.0282 -0.7102  2.5620
   83MOL   H19116755   0.526   7.120   2.591 -0.4975  0.1339 -1.6243
   83MOL   C19216756   0.346   7.030   2.545  0.4742  0.1261  0.3552
   83MOL   C19316757   0.276   7.154   2.497 -0.5494  0.7110  0.4850
   83MOL   C19416758   0.296   7.279   2.541 -0.1074  0.2659  0.1560
   83MOL   C19516759   0.229   7.388   2.477  0.2892 -0.1791  0.5808
   83MOL   H19616760   0.394   6.991   2.455  1.5331 -0.8429  1.3209
   83MOL   H19716761   0.274   6.960   2.587 -0.0067  0.5635  0.2610
   83MOL   H19816762   0.206   7.133   2.418 -0.5402  2.0486  0.1220
   83MOL   H19916763   0.368   7.298   2.620 -1.2991 -0.8447  1.5195
   83MOL   H20016764   0.300   7.453   2.425  1.2111 -2.0009 -0.4777
   83MOL   H20116765   0.173   7.451   2.546  0.8765  1.1760 -0.1436
   83MOL   H20216766   0.163   7.345   2.402  2.1807 -0.7650 -0.7893
   84MOL     C116767   1.707   7.145   3.472 -1.0940  0.6941 -0.5845
   84MOL     C216768   1.669   7.291   3.480  0.8781 -0.1415  0.8699
   84MOL     C316769   1.557   7.342   3.422 -0.2762 -0.6289  0.2824
   84MOL     C416770   1.521   7.492   3.419 -0.6137  0.2513 -0.1919
   84MOL     H516771   1.659   7.092   3.390  1.5904 -2.6042 -0.1015
   84MOL     H616772   1.695   7.091   3.566  1.5192 -0.7476 -1.0344
   84MOL     H716773   1.742   7.353   3.530  0.0531  0.2505  1.6080
   84MOL     H816774   1.499   7.272   3.364 -0.1766 -0.7194  0.2899
   84MOL     H916775   1.540   7.531   3.318  2.1687  0.9539  0.5502
   84MOL    H1016776   1.590   7.541   3.487  1.8288 -1.0054 -1.6633
   84MOL    H1116777   1.813   7.146   3.445 -0.6482  0.4756  1.0876
   84MOL    C1216778   1.383   7.521   3.470 -0.1354  0.0810  0.1683
   84MOL    C1316779   1.338   7.663   3.447 -0.4424  0.6595 -0.1554
   84MOL    C1416780   1.247   7.730   3.518  0.5907  0.4677 -0.0494
   84MOL    C1516781   1.222   7.878   3.512  0.1600  0.5963  0.7845
   84MOL    H1616782   1.303   7.454   3.440  0.5878 -0.8240  0.2102
   84MOL    H1716783   1.389   7.504   3.578 -1.3836  3.0636  0.7548
   84MOL    H1816784   1.390   7.705   3.362 -1.5774  3.5130  0.5301
   84MOL    H1916785   1.213   7.684   3.609 -0.9540  1.3189 -0.1590
   84MOL    H2016786   1.297   7.922   3.446  0.9452  0.0455  1.3015
   84MOL    H2116787   1.251   7.915   3.610 -1.4945  1.3885  0.9775
   84MOL    C2216788   1.075   7.907   3.482 -0.3034  0.5879  0.7360
   84MOL    C2316789   1.042   0.069   3.537  0.0425  0.1742  0.5152
   84MOL    C2416790   0.997   0.163   3.454  0.6687  0.5550 -0.7075
   84MOL    C2516791   0.953   0.302   3.508 -0.0074  0.4286 -0.1488
   84MOL    H2616792   1.051   7.889   3.377  0.1611 -2.5166  1.1188
   84MOL    H2716793   1.006   7.842   3.535  0.0672  0.0512  0.5564
   84MOL    H2816794   1.057   0.095   3.641  0.7035  1.8660  0.0058
   84MOL    H2916795   0.984   0.141   3.350 -4.3809  2.1684 -0.6004
   84MOL    H3016796   1.017   0.387   3.484 -0.6444  0.9046 -0.1442
   84MOL    H3116797   0.926   0.311   3.613 -0.8412  0.8956 -0.4003
   84MOL    C3216798   0.827   0.348   3.434 -0.7974 -0.3390  0.1747
   84MOL    C3316799   0.732   0.447   3.490  0.0606 -0.5319  0.2207
   84MOL    C3416800   0.611   0.419   3.542  0.3785  0.2102 -0.7620
   84MOL    C3516801   0.521   0.524   3.608 -0.5025 -0.6034 -0.6348
   84MOL    H3616802   0.842   0.367   3.327  0.3130  0.7171  0.5061
   84MOL    H3716803   0.771   0.254   3.432 -0.4522 -0.5347 -0.4494
   84MOL    H3816804   0.758   0.552   3.479 -0.2807 -0.4748 -0.0556
   84MOL    H3916805   0.584   0.315   3.541  0.8434  0.0800 -3.4067
   84MOL    H4016806   0.437   0.549   3.542 -0.0272  1.8839 -0.3342
   84MOL    H4116807   0.573   0.619   3.611  0.6998 -1.2894  0.6292
   84MOL    C4216808   0.460   0.483   3.747 -0.4873 -0.4244 -0.9082
   84MOL    C4316809   0.556   0.509   3.862 -0.2194  0.3901 -0.3918
   84MOL    C4416810   0.522   0.572   3.976  0.7165 -0.4954  0.6868
   84MOL    C4516811   0.601   0.599   4.094  0.3652 -0.0037 -0.3655
   84MOL    H4616812   0.371   0.544   3.764 -1.3464 -1.7361 -0.6478
   84MOL    H4716813   0.417   0.383   3.746 -0.0493 -0.6422  0.6708
   84MOL    H4816814   0.657   0.473   3.846 -0.8209 -1.3014 -0.4736
   84MOL    H4916815   0.427   0.623   3.978  1.5054  1.0996 -1.0442
   84MOL    H5016816   0.607   0.707   4.103 -3.0963  0.4787 -2.8342
   84MOL    H5116817   0.702   0.557   4.094  0.4687  0.2432 -0.5284
   84MOL    C5216818   0.544   0.540   4.220  0.6020  0.2362 -0.1596
   84MOL    C5316819   0.618   0.579   4.346 -0.2156  0.4022  1.0728
   84MOL    C5416820   0.562   0.660   4.434 -0.7673 -0.4612  0.5242
   84MOL    C5516821   0.632   0.704   4.555  0.4044  0.0155  0.3258
   84MOL    H5616822   0.439   0.559   4.241  0.7683  0.3155  0.6163
   84MOL    H5716823   0.539   0.431   4.217  0.2417  0.1171  3.0799
   84MOL    H5816824   0.717   0.540   4.364 -0.4743 -1.8089 -1.8655
   84MOL    H5916825   0.465   0.699   4.409  0.1798  2.2819  0.9856
   84MOL    H6016826   0.701   0.625   4.586 -1.1761 -1.6871 -0.3720
   84MOL    H6116827   0.555   0.718   4.631 -0.3185  1.0855 -0.5956
   84MOL    C6216828   0.705   0.833   4.520  0.0430  0.8905 -0.4096
   84MOL    C6316829   0.771   0.887   4.643 -1.0352 -0.3551  0.3010
   84MOL    C6416830   0.881   0.959   4.638 -0.6885 -0.3471 -0.7142
   84MOL    C6516831   0.958   1.002   4.767  0.1917 -0.3034  0.0629
   84MOL    H6616832   0.775   0.807   4.441 -1.4857  1.1969 -1.9088
   84MOL    H6716833   0.635   0.903   4.474 -0.2798  0.7578 -0.1208
   84MOL    H6816834   0.731   0.877   4.743 -0.9269  1.6584  0.5549
   84MOL    H6916835   0.932   0.968   4.543  0.8015  2.1375  0.2578
   84MOL    H7016836   1.060   0.964   4.765  0.1534 -0.3918 -0.4249
   84MOL    H7116837   0.908   0.968   4.857 -0.5161  0.0170 -0.2089
   84MOL    C7216838   0.956   1.153   4.786  0.3401 -0.1849  0.5094
   84MOL    C7316839   1.042   1.227   4.680 -0.4596 -0.7673 -0.2529
   84MOL    C7416840   0.999   1.339   4.621 -0.1222 -0.1871  0.5196
   84MOL    C7516841   1.086   1.422   4.527 -0.0364 -0.5110  0.5325
   84MOL    H7616842   0.855   1.195   4.788 -0.0860 -1.1200 -0.8575
   84MOL    H7716843   0.996   1.178   4.884  1.4914  2.1798 -0.5267
   84MOL    H7816844   1.141   1.191   4.659 -0.6142 -1.2635 -0.1516
   84MOL    H7916845   0.899   1.371   4.644 -0.8591 -0.2554 -2.4004
   84MOL    H8016846   1.190   1.390   4.533 -0.4964 -1.8124  2.0504
   84MOL    H8116847   1.084   1.520   4.574 -2.8852 -0.2687  0.0113
   84MOL    C8216848   1.040   1.435   4.381 -0.5388  0.1775 -0.1635
   84MOL    C8316849   1.078   1.323   4.291 -0.0360  0.5533  1.0968
   84MOL    C8416850   0.993   1.228   4.262  0.0725  0.5054  0.4453
   84MOL    C8516851   1.023   1.126   4.150 -0.3373  0.1197  0.2401
   84MOL    H8616852   0.934   1.461   4.369 -0.2598  0.7581 -1.4884
   84MOL    H8716853   1.087   1.525   4.342  0.8989  0.2824  1.7369
   84MOL    H8816854   1.172   1.324   4.238 -1.0466 -1.7094 -0.8355
   84MOL    H8916855   0.893   1.219   4.303 -0.0423  0.4415  0.1501
   84MOL    H9016856   1.127   1.142   4.123  0.6722 -0.7333  3.3881
   84MOL    H9116857   0.943   1.149   4.080 -0.0641  1.0348  0.2178
   84MOL    C9216858   1.012   0.988   4.206 -0.5001  0.1308 -0.0901
   84MOL    C9316859   1.051   0.888   4.100  0.0760  0.4665  0.5135
   84MOL    C9416860   0.964   0.798   4.050 -1.0259 -0.0801 -0.5243
   84MOL    C9516861   0.979   0.721   3.922  0.1653  0.0675 -0.6349
   84MOL    H9616862   1.075   0.982   4.295 -0.6692  0.5982  0.0636
   84MOL    H9716863   0.916   0.963   4.250 -1.3410  0.8616 -1.4970
   84MOL    H9816864   1.151   0.897   4.061  1.2023 -1.6682  2.7920
   84MOL    H9916865   0.868   0.798   4.101 -1.0931 -1.3805 -0.6376
   84MOL   H10016866   0.917   0.777   3.852  0.1191 -0.2021 -0.8098
   84MOL   H10116867   0.926   0.627   3.933 -1.6890  1.0709 -0.7590
   84MOL   C10216868   1.131   0.695   3.889 -0.0322 -0.3990  0.2235
   84MOL   C10316869   1.155   0.593   3.774 -0.8214  0.3547 -0.4958
   84MOL   C10416870   1.233   0.481   3.787  0.0067 -0.3192  0.4854
   84MOL   C10516871   1.232   0.371   3.689  0.2114  0.9986 -0.3894
   84MOL   H10616872   1.165   0.791   3.849  0.0837  0.1092  1.5209
   84MOL   H10716873   1.185   0.683   3.983 -1.3783 -1.5396  0.8669
   84MOL   H10816874   1.103   0.610   3.681 -2.0099  2.1173  0.4657
   84MOL   H10916875   1.270   0.453   3.884  1.0925 -1.6287 -0.2869
   84MOL   H11016876   1.177   0.415   3.606 -0.8122 -0.4679 -0.5049
   84MOL   H11116877   1.183   0.277   3.717  2.7497 -0.1715  0.2904
   84MOL   C11216878   1.370   0.348   3.621  0.0355  0.2795  0.1909
   84MOL   C11316879   1.470   0.282   3.718 -0.5742  0.2389 -0.2294
   84MOL   C11416880   1.593   0.330   3.737 -0.2510 -0.0559 -0.0010
   84MOL   C11516881   1.704   0.264   3.819 -0.2541 -0.6994  0.1408
   84MOL   H11616882   1.352   0.280   3.537 -1.0793  0.8801 -0.0653
   84MOL   H11716883   1.403   0.446   3.589  0.6050  0.8345  2.4397
   84MOL   H11816884   1.438   0.194   3.773 -0.8275  0.5454  0.1231
   84MOL   H11916885   1.631   0.420   3.691  0.6821 -1.1259 -1.3644
   84MOL   H12016886   1.661   0.177   3.869 -0.1231 -1.4098 -0.9775
   84MOL   H12116887   1.731   0.328   3.904  0.9928 -1.1235  0.0735
   84MOL   C12216888   1.826   0.229   3.735 -0.2706 -0.4838  0.5970
   84MOL   C12316889   1.942   0.164   3.820 -0.4040  0.1782 -0.2690
   84MOL   C12416890   1.920   0.091   3.935 -0.7742 -0.4386  0.7127
   84MOL   C12516891   2.020   0.011   4.012 -0.0502 -0.1920  0.4611
   84MOL   H12616892   1.798   0.149   3.667 -1.3848  1.0614 -0.7989
   84MOL   H12716893   1.851   0.318   3.677 -1.4922  0.1527  1.0356
   84MOL   H12816894   2.039   0.177   3.774 -0.4246 -1.7153 -0.8798
   84MOL   H12916895   1.820   0.061   3.962 -1.1970 -1.4251 -1.7421
   84MOL   H13016896   2.110   7.966   3.955  0.0331  0.2544  0.4180
   84MOL   H13116897   1.963   7.903   4.051 -0.4392 -1.6770 -3.1207
   84MOL   C13216898   2.067   0.095   4.132  0.4967 -0.4080  0.1256
   84MOL   C13316899   2.138   0.009   4.238  0.4174  0.1747  1.1017
   84MOL   C13416900   2.266   0.014   4.264 -0.4828 -0.0903 -0.3468
   84MOL   C13516901   2.341   7.907   4.370  0.7143  0.0015  0.2909
   84MOL   H13616902   2.126   0.182   4.106 -0.1882  0.2037  0.5937
   84MOL   H13716903   1.978   0.135   4.181  0.5813  0.5357 -0.5056
   84MOL   H13816904   2.067   7.918   4.285  1.3441  0.7650  3.4310
   84MOL   H13916905   2.328   0.081   4.206 -1.3579 -0.3064 -1.5670
   84MOL   H14016906   2.415   7.845   4.320  2.6586  1.9349  0.7031
   84MOL   H14116907   2.272   7.841   4.424  0.3959  0.8095  0.8749
   84MOL   C14216908   2.413   0.022   4.472  0.3434 -0.5581 -0.0955
   84MOL   C14316909   2.519   7.936   4.560 -0.1375 -0.7535  0.2542
   84MOL   C14416910   2.525   0.003   4.690 -0.3973  0.6534 -0.3404
   84MOL   C14516911   2.632   7.952   4.790  0.3099 -0.2312 -0.0788
   84MOL   H14616912   2.479   0.082   4.409  0.0846  1.7782  1.7802
   84MOL   H14716913   2.350   0.085   4.535 -0.0445  0.7905 -1.7877
   84MOL   H14816914   2.590   7.876   4.504  0.8688  0.7868 -0.1501
   84MOL   H14916915   2.457   0.080   4.722 -2.1037 -0.8358 -0.3087
   84MOL   H15016916   2.586   7.924   4.884 -0.3344  0.0793 -0.2966
   84MOL   H15116917   2.684   0.065   4.820 -1.4967  0.4784  0.9932
   84MOL   C15216918   2.725   7.842   4.741  0.2326 -0.2775 -0.8024
   84MOL   C15316919   2.826   7.807   4.854  0.2660  0.3075 -0.5912
   84MOL   C15416920   2.859   7.687   4.898  0.7760  0.3255 -0.3841
   84MOL   C15516921   2.955   7.664   5.007 -0.7527  0.0180 -0.0589
   84MOL   H15616922   2.673   7.751   4.713 -0.6279 -0.6712  1.9855
   84MOL   H15716923   2.781   7.863   4.650  0.8668  0.7669 -0.1842
   84MOL   H15816924   2.873   7.891   4.902  0.5988 -0.7697  1.0096
   84MOL   H15916925   2.821   7.599   4.848  0.4167  0.1450  0.2138
   84MOL   H16016926   2.906   7.635   5.100  0.5354  0.1734  0.6725
   84MOL   H16116927   2.997   7.764   5.020 -2.7142  0.8768 -0.0996
   84MOL   C16216928   3.053   7.546   4.980 -0.5826 -0.1794  0.1224
   84MOL   C16316929   3.166   7.522   5.082  0.2064 -0.3481  0.3390
   84MOL   C16416930   3.185   7.418   5.164 -0.1609  0.0890  0.8590
   84MOL   C16516931   3.295   7.402   5.261 -0.3981 -0.1848  0.2534
   84MOL   H16616932   3.007   7.451   4.953 -0.7963 -0.5891  1.8759
   84MOL   H16716933   3.109   7.577   4.892 -1.9099  2.7137  0.2388
   84MOL   H16816934   3.247   7.592   5.090  0.4298 -0.2514 -2.3486
   84MOL   H16916935   3.104   7.347   5.150  0.4226 -0.2149 -1.0136
   84MOL   H17016936   3.358   7.491   5.267  1.0059 -1.2447  1.6690
   84MOL   H17116937   3.348   7.309   5.241  0.0549 -0.2326  1.6505
   84MOL   C17216938   3.229   7.385   5.394 -0.2725 -0.3940  0.9938
   84MOL   C17316939   3.331   7.367   5.503  0.4931  0.1848 -0.4053
   84MOL   C17416940   3.306   7.313   5.622 -0.8577  0.0790 -0.0881
   84MOL   C17516941   3.414   7.294   5.740  0.2947  0.6411 -0.1992
   84MOL   H17616942   3.172   7.474   5.420 -0.9852 -0.3247 -0.7142
   84MOL   H17716943   3.151   7.308   5.403  0.5771 -1.3078  0.6373
   84MOL   H17816944   3.429   7.409   5.487  0.9426 -0.4550  0.6422
   84MOL   H17916945   3.205   7.284   5.645 -0.4566 -1.0558  0.3203
   84MOL   H18016946   3.372   7.351   5.823  0.7707  1.7477 -0.7125
   84MOL   H18116947   3.516   7.322   5.713  1.4232 -1.3692  1.8501
   84MOL   C18216948   3.425   7.153   5.782 -0.1019  0.1476  0.4378
   84MOL   C18316949   3.473   7.147   5.922 -0.5172 -0.3735 -0.1048
   84MOL   C18416950   3.389   7.117   6.026  0.0076  0.8373 -0.1076
   84MOL   C18516951   3.426   7.100   6.173 -0.0186  0.3015  0.6343
   84MOL   H18616952   3.324   7.111   5.778  0.6227 -1.4305 -2.7734
   84MOL   H18716953   3.497   7.098   5.721 -2.2766 -0.2125 -1.8619
   84MOL   H18816954   3.577   7.161   5.948 -0.9202  1.1306  0.7345
   84MOL   H18916955   3.283   7.106   6.010  0.3394 -1.1757 -1.0854
   84MOL   H19016956   3.398   7.190   6.227  0.3617 -0.4748  2.1643
   84MOL   H19116957   3.533   7.084   6.172 -0.0564  0.0397 -0.6117
   84MOL   C19216958   3.348   6.981   6.223 -0.3304  0.5181 -0.3539
   84MOL   C19316959   3.366   6.946   6.376  0.3640  0.5184  0.1610
   84MOL   C19416960   3.265   6.940   6.461  0.1607  0.2864  0.1083
   84MOL   C19516961   3.280   6.913   6.607 -0.1342  0.0776 -0.4426
   84MOL   H19616962   3.243   6.998   6.199 -0.5896 -1.2532 -0.5071
   84MOL   H19716963   3.383   6.895   6.166 -2.4021  0.0425 -0.9449
   84MOL   H19816964   3.462   6.917   6.415 -0.3639 -0.9793  0.8662
   84MOL   H19916965   3.165   6.965   6.430 -0.4143  0.2640  1.8568
   84MOL   H20016966   3.239   6.814   6.627  1.7152 -1.2594 -2.9794
   84MOL   H20116967   3.244   6.998   6.665  0.4189 -0.7743  1.1811
   84MOL   H20216968   3.387   6.911   6.628  0.1506  2.2146 -1.5392
   85MOL     C116969   6.396   6.122   5.115  0.2490  0.1852 -0.5830
   85MOL     C216970   6.455   6.252   5.178 -0.0966 -0.2825  0.4541
   85MOL     C316971   6.422   6.380   5.138  0.5376 -0.9201 -0.6044
   85MOL     C416972   6.491   6.511   5.162  0.6012  0.1899  0.1946
   85MOL     H516973   6.373   6.053   5.197 -0.7800 -0.4678 -1.4133
   85MOL     H616974   6.465   6.078   5.044  0.9607  2.1296 -1.1229
   85MOL     H716975   6.545   6.234   5.235  0.1967  0.0920  0.1197
   85MOL     H816976   6.337   6.391   5.072  0.0373  1.5041  0.3927
   85MOL     H916977   6.428   6.572   5.227  1.9025  2.0638 -0.2863
   85MOL    H1016978   6.519   6.565   5.072  1.4769 -0.5080  0.0463
   85MOL    H1116979   6.301   6.148   5.068 -0.6517 -1.1259  0.4582
   85MOL    C1216980   6.631   6.496   5.225 -0.0305  0.5246  0.5086
   85MOL    C1316981   6.634   6.461   5.374  0.2212  0.5800  0.0323
   85MOL    C1416982   6.703   6.526   5.467  0.2741 -0.0174 -0.3937
   85MOL    C1516983   6.702   6.476   5.613 -0.3640 -0.1338  0.0999
   85MOL    H1616984   6.705   6.448   5.160 -0.7878 -0.3668  0.3047
   85MOL    H1716985   6.667   6.599   5.218  1.2475  0.0657  0.0536
   85MOL    H1816986   6.590   6.367   5.405  1.9658  0.4956  2.3688
   85MOL    H1916987   6.763   6.614   5.446  1.9360 -1.0563 -0.1043
   85MOL    H2016988   6.680   6.371   5.630  0.7824 -0.6926 -1.6490
   85MOL    H2116989   6.628   6.541   5.659 -0.4392  1.1541 -1.7769
   85MOL    C2216990   6.844   6.492   5.668 -0.2339 -0.7012  0.2920
   85MOL    C2316991   6.867   6.448   5.808 -0.6270 -0.3438  0.0384
   85MOL    C2416992   6.893   6.534   5.911 -0.5264  0.6542 -0.3449
   85MOL    C2516993   6.936   6.501   6.052 -0.3449  0.0811  0.1403
   85MOL    H2616994   6.908   6.431   5.604 -1.0501  0.7540 -1.9906
   85MOL    H2716995   6.874   6.596   5.653  0.3362 -0.8829  0.1484
   85MOL    H2816996   6.864   6.342   5.826 -1.9993 -0.0925  1.3882
   85MOL    H2916997   6.898   6.640   5.888  2.0152  0.9749  1.4997
   85MOL    H3016998   7.025   6.558   6.078  0.5266 -1.4155  0.4658
   85MOL    H3116999   6.959   6.395   6.061  1.2380  0.5275  1.5556
   85MOL    C3217000   6.821   6.520   6.156 -0.1723 -0.4165 -0.8424
   85MOL    C3317001   6.870   6.485   6.293  0.7683 -0.3539  0.0430
   85MOL    C3417002   6.850   6.553   6.409  0.7285  0.3416 -0.0727
   85MOL    C3517003   6.916   6.538   6.542  0.0430 -0.0916 -0.1223
   85MOL    H3617004   6.788   6.624   6.157 -1.7552 -0.8978  2.9765
   85MOL    H3717005   6.732   6.461   6.138  0.4602 -1.1909 -1.4833
   85MOL    H3817006   6.935   6.398   6.297 -0.4192 -1.2504  0.1805
   85MOL    H3917007   6.775   6.631   6.422  0.4176  0.0566 -0.1346
   85MOL    H4017008   6.880   6.616   6.608  0.3188 -1.0193  1.1441
   85MOL    H4117009   7.022   6.564   6.533  0.0682  0.1947  0.9650
   85MOL    C4217010   6.898   6.403   6.615 -0.6163  0.0182  0.2730
   85MOL    C4317011   6.995   6.394   6.731 -0.4154  0.1999  0.2157
   85MOL    C4417012   6.967   6.372   6.865  0.4316 -0.7658 -0.5544
   85MOL    C4517013   7.068   6.369   6.971 -0.0613 -0.7000 -0.5364
   85MOL    H4617014   6.801   6.385   6.661 -0.6217 -0.2694  0.1522
   85MOL    H4717015   6.920   6.321   6.547  1.8183  1.5121 -0.8044
   85MOL    H4817016   7.096   6.386   6.694 -0.4611 -1.5020  0.4155
   85MOL    H4917017   6.866   6.368   6.904  0.6952 -3.2033 -0.0503
   85MOL    H5017018   7.077   6.475   6.996  1.9872 -0.0807 -3.6580
   85MOL    H5117019   7.162   6.331   6.931 -0.1468 -1.3741 -0.1079
   85MOL    C5217020   7.032   6.302   7.104 -0.0644 -0.3277  0.0691
   85MOL    C5317021   7.127   6.351   7.216  0.0978 -0.0730  0.6457
   85MOL    C5417022   7.209   6.272   7.285 -0.4783 -0.0913  0.1714
   85MOL    C5517023   7.303   6.318   7.392 -0.0554  0.4976  0.4384
   85MOL    H5617024   6.926   6.310   7.130 -0.2831 -1.6624 -0.3726
   85MOL    H5717025   7.050   6.195   7.100 -1.6903 -0.5891 -1.1971
   85MOL    H5817026   7.123   6.458   7.233 -1.2198 -0.2361  1.4041
   85MOL    H5917027   7.221   6.169   7.255  2.6808  0.5588 -0.9975
   85MOL    H6017028   7.289   6.423   7.418 -0.1573  0.6841 -0.3554
   85MOL    H6117029   7.397   6.299   7.341 -0.5483 -0.5737 -0.0965
   85MOL    C6217030   7.293   6.234   7.517  0.3385  0.0299  0.0815
   85MOL    C6317031   7.363   6.279   7.645 -0.0721 -0.7934 -0.5763
   85MOL    C6417032   7.410   6.397   7.678 -0.2599 -0.7917 -0.5798
   85MOL    C6517033   7.464   6.423   7.816  0.4164  0.0392  0.0937
   85MOL    H6617034   7.189   6.220   7.544  1.5929 -3.5365  3.6322
   85MOL    H6717035   7.327   6.133   7.496  1.1771  0.0374  1.3152
   85MOL    H6817036   7.385   6.200   7.715 -0.2972  0.7956  1.3420
   85MOL    H6917037   7.392   6.477   7.608 -1.9716  0.6683  1.4695
   85MOL    H7017038   7.466   6.343   7.890  1.3124 -1.3550 -1.4268
   85MOL    H7117039   7.397   6.497   7.860  0.2503  0.1593 -0.3631
   85MOL    C7217040   7.612   6.477   7.816 -1.1912  0.1686 -0.4860
   85MOL    C7317041   7.647   6.485   7.963 -0.2374 -0.5504  0.1090
   85MOL    C7417042   7.739   6.403   0.038 -0.2559 -0.3769 -0.2081
   85MOL    C7517043   7.806   6.404   0.174  0.1454 -0.1495 -0.2169
   85MOL    H7617044   7.683   6.408   7.770 -0.6100  0.6925 -0.3803
   85MOL    H7717045   7.619   6.577   7.772 -2.0967 -0.2891 -1.7214
   85MOL    H7817046   7.624   6.575   0.042  0.4085 -1.4756  1.9236
   85MOL    H7917047   7.767   6.316   7.958  1.6345  0.4494 -0.5521
   85MOL    H8017048   7.778   6.502   0.213  0.8957 -0.8037  2.0546
   85MOL    H8117049   7.914   6.405   0.160  0.7164  3.0214  3.5937
   85MOL    C8217050   7.771   6.282   0.261  0.0188 -0.2005 -0.5662
   85MOL    C8317051   7.835   6.295   0.395  0.4674  0.4139 -0.1158
   85MOL    C8417052   7.895   6.193   0.461  0.2610 -0.4780  0.5795
   85MOL    C8517053   7.932   6.207   0.609 -0.8255 -0.1232 -0.2429
   85MOL    H8617054   7.662   6.280   0.269  0.0846  1.5417  1.1303
   85MOL    H8717055   7.796   6.188   0.212  1.2020 -1.1648  1.8097
   85MOL    H8817056   7.821   6.389   0.445  0.5008  0.3239  0.0656
   85MOL    H8917057   7.916   6.092   0.427 -1.0727 -1.2655  2.0339
   85MOL    H9017058   7.906   6.115   0.660  0.7044  0.0126  0.8396
   85MOL    H9117059   7.871   6.277   0.666  0.8150 -0.4067  1.9375
   85MOL    C9217060   0.106   6.243   0.615 -0.5404  0.7752  0.2853
   85MOL    C9317061   0.149   6.267   0.762 -0.2333  0.6900  0.5846
   85MOL    C9417062   0.211   6.372   0.816 -0.6605  0.3644 -0.3189
   85MOL    C9517063   0.270   6.379   0.961  0.4884  0.9706  0.2022
   85MOL    H9617064   0.170   6.163   0.578  0.6171  0.9407  1.8957
   85MOL    H9717065   0.126   6.333   0.556 -3.4016  1.6614  0.5598
   85MOL    H9817066   0.134   6.185   0.831  0.5822 -1.3406 -1.6234
   85MOL    H9917067   0.235   6.459   0.755 -0.0646 -0.5989 -1.4720
   85MOL   H10017068   0.194   6.356   1.036 -1.1032  0.1011 -1.6552
   85MOL   H10117069   0.307   6.479   0.981  0.0538  1.0044  0.8626
   85MOL   C10217070   0.384   6.279   0.984  0.0185 -0.4946 -0.2068
   85MOL   C10317071   0.430   6.287   1.131  0.0675  0.5372  0.0647
   85MOL   C10417072   0.423   6.177   1.209  0.4433  0.6313 -0.6054
   85MOL   C10517073   0.450   6.165   1.359 -0.0700 -0.2599 -0.2364
   85MOL   H10617074   0.348   6.178   0.965 -0.5189 -0.5087  0.8586
   85MOL   H10717075   0.467   6.305   0.918 -0.4421 -3.3364 -1.9979
   85MOL   H10817076   0.481   6.377   1.163 -1.5486  1.0304  1.3144
   85MOL   H10917077   0.374   6.097   1.155  0.9234  0.1087 -0.2688
   85MOL   H11017078   0.351   6.159   1.404 -0.7366  0.9794 -1.5065
   85MOL   H11117079   0.518   6.243   1.395 -2.2308  1.4034  0.3630
   85MOL   C11217080   0.509   6.026   1.388 -0.1821  0.4124  0.1253
   85MOL   C11317081   0.547   5.992   1.531 -0.3344  0.0461 -0.4509
   85MOL   C11417082   0.580   6.072   1.634 -0.0669  0.1859 -0.4341
   85MOL   C11517083   0.614   6.010   1.771  0.1216 -0.2780  0.1582
   85MOL   H11617084   0.427   5.963   1.356 -2.2778  2.6825  0.8385
   85MOL   H11717085   0.605   6.019   1.336 -0.5794  0.5381 -0.6251
   85MOL   H11817086   0.547   5.886   1.552  0.8745 -0.2637 -1.8836
   85MOL   H11917087   0.579   6.180   1.628 -1.0853  0.1549 -0.9916
   85MOL   H12017088   0.627   5.902   1.762 -1.6380 -0.3396 -2.0285
   85MOL   H12117089   0.524   6.032   1.828  0.2983  0.1130  0.2838
   85MOL   C12217090   0.747   6.074   1.830 -0.2352 -0.3332  0.6205
   85MOL   C12317091   0.765   6.031   1.975  0.1134  0.2389 -0.4241
   85MOL   C12417092   0.868   5.960   2.021  0.6508 -0.1639  0.4576
   85MOL   C12517093   0.885   5.924   2.168  0.2591  0.0916  0.7571
   85MOL   H12617094   0.837   6.050   1.773 -0.0590  1.3409  0.1814
   85MOL   H12717095   0.738   6.182   1.820  1.0879 -0.3815 -1.5767
   85MOL   H12817096   0.689   6.076   2.037  0.2058 -1.8020  1.2206
   85MOL   H12917097   0.937   5.934   1.942 -1.8634  0.0004 -1.8908
   85MOL   H13017098   0.803   5.966   2.226  1.7647  0.6039  2.5708
   85MOL   H13117099   0.978   5.958   2.214  0.9037  1.1783 -1.2690
   85MOL   C13217100   0.884   5.772   2.186 -0.0888 -0.0753  0.1889
   85MOL   C13317101   0.995   5.695   2.113 -0.1616  0.5099 -0.3069
   85MOL   C13417102   0.967   5.586   2.039 -0.2920  0.3546  0.5475
   85MOL   C13517103   1.064   5.490   1.964 -0.6177  0.0254 -0.6083
   85MOL   H13617104   0.900   5.758   2.293  0.8248 -0.5908 -0.0066
   85MOL   H13717105   0.790   5.731   2.149 -1.5092  1.8779  1.4469
   85MOL   H13817106   1.099   5.723   2.123  0.4998 -2.2776  1.2718
   85MOL   H13917107   0.866   5.548   2.031 -0.1413  0.0465  0.0026
   85MOL   H14017108   1.043   5.390   2.001 -1.9975  1.0094  1.3726
   85MOL   H14117109   1.162   5.502   2.009 -1.8232  1.1683  1.8796
   85MOL   C14217110   1.060   5.503   1.808  0.5287  0.3760 -0.7738
   85MOL   C14317111   1.121   5.378   1.747  0.2599 -0.3382 -0.2699
   85MOL   C14417112   1.053   5.305   1.656 -0.1066  0.4384  0.0571
   85MOL   C14517113   1.081   5.167   1.591 -0.7392 -0.0170  0.5695
   85MOL   H14617114   0.958   5.514   1.770 -0.2497  0.0808  1.1765
   85MOL   H14717115   1.115   5.596   1.791  1.4410 -0.1071 -0.4858
   85MOL   H14817116   1.210   5.341   1.796  1.2678  0.2446 -1.6148
   85MOL   H14917117   0.954   5.339   1.630  0.2565 -0.1851 -2.2645
   85MOL   H15017118   1.175   5.126   1.629 -1.0961 -0.7114  0.7199
   85MOL   H15117119   1.096   5.193   1.486  3.1299 -0.8674  0.8353
   85MOL   C15217120   0.968   5.073   1.621 -0.0740  0.0876  0.0116
   85MOL   C15317121   0.967   4.944   1.536  0.0668  0.4350 -0.3997
   85MOL   C15417122   0.995   4.921   1.405 -0.2200  0.5362 -0.4834
   85MOL   C15517123   0.997   4.789   1.341  0.0405  0.6232 -0.9451
   85MOL   H15617124   0.967   5.037   1.724  1.4748  4.0108  1.4912
   85MOL   H15717125   0.875   5.125   1.599 -1.1273 -1.0287  1.6777
   85MOL   H15817126   0.932   4.862   1.598 -1.1683 -0.4570 -2.2307
   85MOL   H15917127   1.026   4.998   1.337 -1.0664  0.5557 -0.8654
   85MOL   H16017128   0.945   4.722   1.410  2.1783  0.4100  0.5024
   85MOL   H16117129   1.103   4.764   1.333  0.1381  0.5723  0.3896
   85MOL   C16217130   0.924   4.791   1.204  0.2444  0.5544 -0.2015
   85MOL   C16317131   0.925   4.653   1.136 -0.1926 -0.3022  0.1270
   85MOL   C16417132   0.817   4.582   1.079  0.1778  0.0727 -0.0274
   85MOL   C16517133   0.826   4.439   1.034 -0.4131 -0.6917  0.4031
   85MOL   H16617134   0.822   4.826   1.220  0.2818 -0.4896  2.5038
   85MOL   H16717135   0.969   4.860   1.133  1.6857  0.7323  0.8816
   85MOL   H16817136   1.017   4.596   1.139 -0.2893 -0.4432  0.4349
   85MOL   H16917137   0.726   4.637   1.054  0.2648  0.6887  1.0056
   85MOL   H17017138   0.724   4.407   1.054 -0.7343  0.5170  0.7759
   85MOL   H17117139   0.889   4.377   1.097 -1.3789 -1.6093  0.4914
   85MOL   C17217140   0.863   4.428   0.881  0.2394 -0.4143  0.0574
   85MOL   C17317141   1.010   4.476   0.850  0.5752  0.8748 -0.3536
   85MOL   C17417142   1.029   4.582   0.779  0.8784 -0.2043  0.4155
   85MOL   C17517143   1.160   4.656   0.756  0.3082 -0.3887  0.1851
   85MOL   H17617144   0.860   4.325   0.845 -2.8893  0.2776 -1.9155
   85MOL   H17717145   0.804   4.487   0.811 -0.7615  0.5206  1.6478
   85MOL   H17817146   1.088   4.416   0.895  1.0966  0.2723 -2.0235
   85MOL   H17917147   0.944   4.635   0.737  0.6731 -0.6213  0.2970
   85MOL   H18017148   1.203   4.647   0.657 -0.8323  0.7014 -0.4233
   85MOL   H18117149   1.238   4.615   0.821 -0.2709 -0.5041  0.8092
   85MOL   C18217150   1.138   4.806   0.799  0.2082  0.5123  0.1773
   85MOL   C18317151   1.227   4.909   0.731 -0.1226 -0.0369  0.4775
   85MOL   C18417152   1.192   5.006   0.641 -0.4356  0.0563  0.0617
   85MOL   C18517153   1.287   5.097   0.563  0.8405 -0.1029 -0.2581
   85MOL   H18617154   1.039   4.824   0.757 -0.0256  0.2888  0.6196
   85MOL   H18717155   1.127   4.823   0.907 -1.5185 -1.6140  0.3666
   85MOL   H18817156   1.332   4.894   0.750  0.2257  2.2730  0.5595
   85MOL   H18917157   1.087   5.001   0.617 -0.1360 -0.5783 -1.1407
   85MOL   H19017158   1.282   5.084   0.454  0.5094  2.6504 -0.6205
   85MOL   H19117159   1.388   5.070   0.592  0.6872 -0.8875 -0.4464
   85MOL   C19217160   1.272   5.243   0.594 -0.6053 -0.2729 -0.3849
   85MOL   C19317161   1.399   5.325   0.581  0.0232 -0.3629 -0.5282
   85MOL   C19417162   1.450   5.356   0.462  0.2347 -0.1647 -0.0310
   85MOL   C19517163   1.580   5.444   0.446  0.3399 -0.0442 -0.0527
   85MOL   H19617164   1.195   5.282   0.528 -1.1630 -0.3486  0.2251
   85MOL   H19717165   1.239   5.257   0.697  3.4071  0.8951  0.8395
   85MOL   H19817166   1.447   5.357   0.672 -1.6018  2.2107 -0.5295
   85MOL   H19917167   1.404   5.328   0.368  1.1037  0.7335 -0.7330
   85MOL   H20017168   1.611   5.417   0.345 -0.2422 -3.1065  0.5503
   85MOL   H20117169   1.659   5.418   0.516 -0.6826 -0.8388  0.8261
   85MOL   H20217170   1.552   5.550   0.453  0.5094 -0.0505  0.7275
   86MOL     C117171   6.628   7.149   2.317 -0.0762  0.2322 -0.5957
   86MOL     C217172   6.706   7.275   2.321  0.2838 -0.4626 -0.3664
   86MOL     C317173   6.651   7.395   2.307  0.0325  0.1382  0.4526
   86MOL     C417174   6.729   7.515   2.285  0.0913  0.0746 -0.3005
   86MOL     H517175   6.699   7.080   2.273 -0.3942 -0.2036 -0.4206
   86MOL     H617176   6.532   7.154   2.264  0.0456  2.2353 -0.6953
   86MOL     H717177   6.813   7.262   2.324  0.2851 -0.7321 -1.3647
   86MOL     H817178   6.543   7.393   2.299  0.1879  0.3670 -2.3844
   86MOL     H917179   6.701   7.533   2.181 -1.9074  0.7664  0.3268
   86MOL    H1017180   6.836   7.498   2.287  0.2078  0.8308 -0.0485
   86MOL    H1117181   6.604   7.100   2.411  0.3049  0.1463 -0.5430
   86MOL    C1217182   6.686   7.636   2.377  0.0687  0.3107  0.5960
   86MOL    C1317183   6.704   7.775   2.316  0.2074  0.0388  0.0606
   86MOL    C1417184   6.609   7.866   2.332  0.6037 -0.1618 -0.1047
   86MOL    C1517185   6.604   0.030   2.265 -0.0873 -0.3775  0.5408
   86MOL    H1617186   6.579   7.629   2.400 -0.6302 -2.7117 -3.0224
   86MOL    H1717187   6.736   7.639   2.474 -1.8448  1.7140  1.5932
   86MOL    H1817188   6.776   7.795   2.238  2.1876 -1.2258  1.5426
   86MOL    H1917189   6.529   7.836   2.399 -0.0671  2.4842  0.3471
   86MOL    H2017190   6.509   0.035   2.212 -0.3615  0.6370  1.1107
   86MOL    H2117191   6.683   0.044   2.191 -0.4970 -2.5159 -0.3451
   86MOL    C2217192   6.613   0.142   2.367  0.3441 -0.9982 -0.2119
   86MOL    C2317193   6.509   0.154   2.468  0.0102 -0.1178 -0.0364
   86MOL    C2417194   6.440   0.268   2.492 -0.3744  0.1953 -0.2549
   86MOL    C2517195   6.333   0.281   2.602 -0.4242  0.1790  0.3073
   86MOL    H2617196   6.705   0.127   2.424  1.0703  2.3708 -0.3410
   86MOL    H2717197   6.624   0.233   2.308 -0.4463 -0.3624  0.6193
   86MOL    H2817198   6.498   0.075   2.541  1.4020  0.1084  0.4353
   86MOL    H2917199   6.442   0.347   2.418 -2.4780 -1.5505 -2.2757
   86MOL    H3017200   6.295   0.187   2.643 -0.5330 -0.6300 -1.5898
   86MOL    H3117201   6.241   0.319   2.559 -1.0758  0.3646  1.8462
   86MOL    C3217202   6.380   0.375   2.720  0.4382  0.4209 -0.9621
   86MOL    C3317203   6.274   0.407   2.827  0.3006 -0.2497  0.7162
   86MOL    C3417204   6.200   0.520   2.833 -0.1579  0.5683 -0.1062
   86MOL    C3517205   6.109   0.536   2.952  0.6843 -0.5504 -0.5332
   86MOL    H3617206   6.473   0.336   2.761 -1.1035 -3.0266 -0.5781
   86MOL    H3717207   6.404   0.471   2.675  1.0183  0.8057  0.1737
   86MOL    H3817208   6.261   0.341   2.911  0.2709  0.6921  1.4518
   86MOL    H3917209   6.202   0.602   2.762  2.1007 -0.4244 -1.2444
   86MOL    H4017210   6.113   0.446   3.014 -1.4151  1.2145  2.2351
   86MOL    H4117211   6.009   0.532   2.909 -0.2650 -1.1086  1.6622
   86MOL    C4217212   6.137   0.656   3.045 -0.2419  0.3382 -0.3449
   86MOL    C4317213   6.082   0.791   3.018 -0.3974  0.6314 -0.3921
   86MOL    C4417214   5.962   0.819   2.959 -0.1534  0.6382  0.1996
   86MOL    C4517215   5.905   0.958   2.939  0.1801  0.4285  0.5609
   86MOL    H4617216   6.136   0.626   3.150 -0.6951 -1.6525 -0.8859
   86MOL    H4717217   6.244   0.669   3.032 -0.0441  0.9907  1.6678
   86MOL    H4817218   6.140   0.873   3.059 -0.3008  0.9148 -1.0841
   86MOL    H4917219   5.909   0.738   2.912  1.2556  0.8504 -1.8362
   86MOL    H5017220   5.981   1.036   2.949 -0.7564  1.3138  0.7913
   86MOL    H5117221   5.830   0.982   3.014 -1.0003 -0.6799 -0.2480
   86MOL    C5217222   5.848   0.975   2.800  0.7438  0.4004  1.0000
   86MOL    C5317223   5.941   0.935   2.686  0.0219  0.7962  0.4445
   86MOL    C5417224   5.909   0.833   2.606 -0.8567 -0.0680  0.0448
   86MOL    C5517225   5.991   0.803   2.482 -0.6433  0.0056  0.5087
   86MOL    H5617226   5.758   0.914   2.799  1.1796 -0.2405 -0.1996
   86MOL    H5717227   5.798   1.069   2.774 -0.5843 -0.3196  0.8851
   86MOL    H5817228   6.013   1.014   2.670  1.0634 -0.1594  0.3733
   86MOL    H5917229   5.827   0.766   2.627 -1.4908  0.7268  0.0924
   86MOL    H6017230   6.074   0.870   2.462  0.2704 -1.5142 -0.9175
   86MOL    H6117231   5.918   0.813   2.401 -1.6498  3.4279  1.7610
   86MOL    C6217232   6.045   0.659   2.489  0.2589 -0.1494 -0.3395
   86MOL    C6317233   6.153   0.623   2.389  0.0067 -0.0426  0.2690
   86MOL    C6417234   6.126   0.554   2.275 -0.0968  0.3399  0.0549
   86MOL    C6517235   6.222   0.529   2.162  0.9094  0.1190  0.7906
   86MOL    H6617236   6.095   0.632   2.582 -1.1382  1.4831  0.9114
   86MOL    H6717237   5.957   0.599   2.469  1.1492 -2.1209  1.4215
   86MOL    H6817238   6.252   0.664   2.396  0.4252 -0.9023 -0.5668
   86MOL    H6917239   6.026   0.517   2.257  0.4745 -1.1653 -0.1383
   86MOL    H7017240   6.327   0.552   2.173  1.6574 -1.6999 -1.9129
   86MOL    H7117241   6.184   0.575   2.070  3.7865  3.3710  1.1570
   86MOL    C7217242   6.254   0.387   2.135 -0.1347 -0.2263  0.2094
   86MOL    C7317243   6.311   0.356   2.003 -0.1299  0.2700  0.0497
   86MOL    C7417244   6.430   0.293   1.983 -0.2268 -0.1145  0.3439
   86MOL    C7517245   6.480   0.261   1.843 -0.4059 -0.0894 -0.6799
   86MOL    H7617246   6.334   0.349   2.199 -1.2675  0.0144  1.8306
   86MOL    H7717247   6.163   0.331   2.159  0.4233 -1.5797 -0.7551
   86MOL    H7817248   6.245   0.381   1.921  1.1301 -0.2188 -1.1213
   86MOL    H7917249   6.480   0.256   2.071 -1.6275 -2.1184  0.3114
   86MOL    H8017250   6.406   0.296   1.771  0.3550  0.2477 -1.3020
   86MOL    H8117251   6.491   0.155   1.818  2.9681  0.4268 -1.5994
   86MOL    C8217252   6.614   0.334   1.825  0.5079  0.0360  0.4383
   86MOL    C8317253   6.661   0.344   1.683 -0.5579  0.3807 -0.8611
   86MOL    C8417254   6.764   0.424   1.642 -0.0162  0.3690  0.3492
   86MOL    C8517255   6.822   0.445   1.503  0.1278  0.1275  0.2497
   86MOL    H8617256   6.601   0.436   1.859  0.7553  0.0500  0.4965
   86MOL    H8717257   6.700   0.282   1.869  1.7366  0.9365 -0.8270
   86MOL    H8817258   6.603   0.290   1.610  3.5316 -2.5663 -2.1253
   86MOL    H8917259   6.805   0.487   1.718 -2.7002  1.3794  1.0201
   86MOL    H9017260   6.930   0.451   1.518  0.5475 -2.1971 -1.5834
   86MOL    H9117261   6.793   0.537   1.451 -0.6771 -0.2628  0.0173
   86MOL    C9217262   6.790   0.330   1.398  0.2274 -0.0597  0.7157
   86MOL    C9317263   6.880   0.342   1.276 -0.0139 -0.4536  0.7794
   86MOL    C9417264   6.854   0.404   1.163 -0.7209  0.0970  0.2659
   86MOL    C9517265   6.933   0.411   1.037  0.0802  0.3239 -0.4001
   86MOL    H9617266   6.797   0.228   1.436 -1.1962 -0.8851 -1.1734
   86MOL    H9717267   6.684   0.320   1.376  0.5191 -3.5416  0.5909
   86MOL    H9817268   6.975   0.292   1.291  0.1339  0.1296  1.8166
   86MOL    H9917269   6.759   0.455   1.155 -0.0140  1.3596 -0.3331
   86MOL   H10017270   7.021   0.347   1.044  0.7186  1.1611 -0.6773
   86MOL   H10117271   6.969   0.514   1.034 -2.5416  1.2659 -0.6615
   86MOL   C10217272   6.854   0.386   0.910  0.1512  0.4651 -0.3973
   86MOL   C10317273   6.799   0.248   0.904  0.3733  0.2326  0.2447
   86MOL   C10417274   6.816   0.155   0.811 -0.2649 -0.3999  0.0623
   86MOL   C10517275   6.771   0.017   0.815 -0.4522 -0.4052  0.5337
   86MOL   H10617276   6.767   0.453   0.903 -1.7850 -2.0077 -0.7761
   86MOL   H10717277   6.910   0.408   0.819 -0.3012  0.8635 -0.5876
   86MOL   H10817278   6.740   0.219   0.990  1.7095  0.4521  1.2480
   86MOL   H10917279   6.883   0.177   0.729  2.3692 -3.2459  1.3271
   86MOL   H11017280   6.691   0.008   0.889  1.3930 -0.9057  2.5184
   86MOL   H11117281   6.861   7.939   0.840 -1.4514 -1.3695  2.1311
   86MOL   C11217282   6.727   7.930   0.691  0.4646  0.6107  0.3809
   86MOL   C11317283   6.692   7.781   0.684 -0.5618 -0.5503  0.4047
   86MOL   C11417284   6.654   7.716   0.572 -0.1393 -0.6298 -0.0466
   86MOL   C11517285   6.619   7.573   0.567  0.0458 -0.3568  0.2614
   86MOL   H11617286   6.634   7.975   0.658  0.7335 -0.7173 -2.3238
   86MOL   H11717287   6.806   7.940   0.617  1.3454  1.3343  1.4146
   86MOL   H11817288   6.680   7.725   0.775 -1.2937 -2.0498 -0.5820
   86MOL   H11917289   6.645   7.757   0.473 -0.9799 -0.5717  0.0549
   86MOL   H12017290   6.588   7.531   0.662  2.1890 -4.1420 -0.5781
   86MOL   H12117291   6.713   7.528   0.533  0.1196  0.1732 -0.2443
   86MOL   C12217292   6.510   7.563   0.452 -0.0265 -0.0643  0.4044
   86MOL   C12317293   6.438   7.434   0.451 -0.2085  0.2262 -0.0326
   86MOL   C12417294   6.313   7.407   0.490  0.5057 -0.0963 -0.0211
   86MOL   C12517295   6.234   7.276   0.477 -0.4951  1.0095 -1.1012
   86MOL   H12617296   6.440   7.644   0.473 -1.7991 -1.8163  1.4143
   86MOL   H12717297   6.549   7.578   0.351  0.5778 -1.4249  0.4243
   86MOL   H12817298   6.480   7.352   0.394 -2.2134 -2.1686  1.8036
   86MOL   H12917299   6.256   7.479   0.546 -0.0311 -0.4778 -0.0766
   86MOL   H13017300   6.184   7.253   0.571  0.7561  0.7961 -0.4771
   86MOL   H13117301   6.307   7.198   0.455 -0.9181  0.0541  0.7863
   86MOL   C13217302   6.126   7.270   0.371  0.3489 -0.4257  0.6272
   86MOL   C13317303   6.045   7.142   0.381 -0.5324  0.1509  0.1401
   86MOL   C13417304   6.044   7.052   0.283 -0.4101  0.7637  0.0137
   86MOL   C13517305   5.957   6.929   0.279 -0.2478  0.2810 -0.3300
   86MOL   H13617306   6.058   7.354   0.388  0.1065 -0.2639 -1.0720
   86MOL   H13717307   6.174   7.288   0.275 -0.7195  0.2817  0.2193
   86MOL   H13817308   5.985   7.119   0.467 -0.4211  2.7856  0.9587
   86MOL   H13917309   6.105   7.078   0.198 -1.2089  0.5550 -0.6258
   86MOL   H14017310   5.909   6.931   0.181  0.1958  3.7292 -0.5585
   86MOL   H14117311   5.883   6.946   0.357  2.1229 -0.0192  2.0537
   86MOL   C14217312   6.022   6.797   0.317 -0.6993  0.0269 -0.2757
   86MOL   C14317313   5.917   6.688   0.318 -0.1909  0.1641 -0.1699
   86MOL   C14417314   5.799   6.697   0.255  0.8669  0.0118  0.4453
   86MOL   C14517315   5.708   6.570   0.240 -0.4526  0.1057 -0.3838
   86MOL   H14617316   6.105   6.769   0.252 -0.7153  2.3644 -1.3608
   86MOL   H14717317   6.077   6.810   0.409 -0.6422  0.5376 -0.3831
   86MOL   H14817318   5.944   6.589   0.352 -0.0927  0.0169 -0.6805
   86MOL   H14917319   5.778   6.784   0.194 -0.1811 -1.5552 -1.4808
   86MOL   H15017320   5.766   6.478   0.239  2.3924  1.7516  2.6651
   86MOL   H15117321   5.690   6.569   0.132 -0.6696  0.1282 -0.3465
   86MOL   C15217322   5.587   6.591   0.332 -0.3870  0.4202  0.5987
   86MOL   C15317323   5.620   6.564   0.477  0.0124  0.1303 -0.1895
   86MOL   C15417324   5.518   6.563   0.564  0.6257  0.1991 -0.0104
   86MOL   C15517325   5.530   6.537   0.715  0.2593  0.0496 -0.0577
   86MOL   H15617326   5.569   6.698   0.331  0.8082  0.6265 -0.9006
   86MOL   H15717327   5.495   6.536   0.313  0.3806 -0.5365 -0.3804
   86MOL   H15817328   5.718   6.527   0.502  0.3744  2.3593  1.8651
   86MOL   H15917329   5.414   6.576   0.538  1.1376  0.0625 -2.1706
   86MOL   H16017330   5.637   6.545   0.737 -0.1537 -1.0476  2.5274
   86MOL   H16117331   5.489   6.442   0.748  1.1784 -0.1427  0.5624
   86MOL   C16217332   5.465   6.649   0.785  0.2182  0.0484 -0.2914
   86MOL   C16317333   5.486   6.658   0.934  0.7039 -0.5056  0.5381
   86MOL   C16417334   5.504   6.775   0.996 -0.1954 -0.2155 -0.0303
   86MOL   C16517335   5.491   6.786   1.149 -0.3710 -0.5158  0.0843
   86MOL   H16617336   5.510   6.740   0.745  1.0246  0.3852  1.3463
   86MOL   H16717337   5.359   6.668   0.769 -0.0445  0.0130  1.3289
   86MOL   H16817338   5.463   6.566   0.985  0.4443  0.8596  2.9483
   86MOL   H16917339   5.519   6.869   0.944  0.4542  0.4999  1.4108
   86MOL   H17017340   5.569   6.854   1.182  0.6575 -0.6014 -2.0846
   86MOL   H17117341   5.508   6.688   1.192  2.3541  0.6585  1.8373
   86MOL   C17217342   5.346   6.839   1.189 -0.7891 -0.1089 -0.4562
   86MOL   C17317343   5.339   6.863   1.336  0.3334  0.1331  0.3870
   86MOL   C17417344   5.240   6.822   1.420  0.3590 -0.5773 -0.3426
   86MOL   C17517345   5.244   6.849   1.569 -0.1683  0.9717 -0.1235
   86MOL   H17617346   5.327   6.938   1.145 -0.7945  0.1191  0.0553
   86MOL   H17717347   5.267   6.770   1.159 -0.5736 -0.3440 -0.4794
   86MOL   H17817348   5.429   6.906   1.378  0.5953 -1.2928  1.3229
   86MOL   H17917349   5.152   6.777   1.376 -0.2256  1.5296 -1.3909
   86MOL   H18017350   5.151   6.890   1.607  0.8738  2.7025  0.6374
   86MOL   H18117351   5.322   6.924   1.580  1.8780 -1.2210  0.9066
   86MOL   C18217352   5.263   6.718   1.644  0.5531  0.4005  0.0723
   86MOL   C18317353   5.224   6.738   1.791  0.2791  0.4584 -0.7577
   86MOL   C18417354   5.293   6.696   1.900 -0.2385  0.3602  0.8965
   86MOL   C18517355   5.242   6.714   2.046 -0.7496 -0.0935 -0.2779
   86MOL   H18617356   5.191   6.647   1.604  0.2323  0.1224  1.1116
   86MOL   H18717357   5.364   6.676   1.651  1.2567  1.9249 -0.5268
   86MOL   H18817358   5.123   6.775   1.799 -0.1353 -0.1004 -3.0607
   86MOL   H18917359   5.392   6.653   1.888 -0.2856  1.1600 -2.7279
   86MOL   H19017360   5.235   6.620   2.100  0.4324 -0.9421 -1.5869
   86MOL   H19117361   5.142   6.758   2.044 -0.1962  1.2128  0.2148
   86MOL   C19217362   5.337   6.800   2.138  0.2685  0.1035 -0.2142
   86MOL   C19317363   5.373   6.934   2.086 -0.1142 -0.3671 -0.3884
   86MOL   C19417364   5.321   7.050   2.134 -0.4182  0.5403  0.4184
   86MOL   C19517365   5.360   7.191   2.084 -0.2138  0.0903 -0.4672
   86MOL   H19617366   5.288   6.824   2.233 -1.3169  1.2753 -1.3115
   86MOL   H19717367   5.427   6.739   2.152  1.0892  1.3760  0.2405
   86MOL   H19817368   5.446   6.934   2.005 -0.8225  1.4190 -1.0615
   86MOL   H19917369   5.251   7.057   2.216 -1.6408 -1.8659 -0.3721
   86MOL   H20017370   5.281   7.233   2.021 -0.3906 -0.1355 -0.4014
   86MOL   H20117371   5.449   7.184   2.023  0.5148 -1.3111  0.7188
   86MOL   H20217372   5.400   7.251   2.166 -0.4183 -0.0746 -0.2428
   87MOL     C117373   4.892   2.477   6.182  0.4704 -0.5467 -0.2566
   87MOL     C217374   5.038   2.466   6.147  0.5162 -0.2853  0.5156
   87MOL     C317375   5.093   2.383   6.055 -0.8380 -0.0574 -0.8691
   87MOL     C417376   5.249   2.376   6.045  0.4681 -0.5591 -0.3385
   87MOL     H517377   4.818   2.441   6.110  0.3536  0.1504 -0.4858
   87MOL     H617378   4.869   2.583   6.190  1.3936 -0.2400 -1.5686
   87MOL     H717379   5.099   2.524   6.214 -0.6571  0.4949  0.9373
   87MOL     H817380   5.029   2.319   5.998 -0.9422 -1.1994  0.5049
   87MOL     H917381   5.301   2.439   6.118  0.0270  0.0036 -0.5112
   87MOL    H1017382   5.268   2.425   5.950  0.1675 -1.2115 -0.7416
   87MOL    H1117383   4.878   2.431   6.280  3.0110  0.6550  0.6952
   87MOL    C1217384   5.292   2.236   6.075 -0.1341  0.5666  0.0813
   87MOL    C1317385   5.442   2.218   6.075 -0.1301 -0.5040  0.1192
   87MOL    C1417386   5.521   2.198   6.182 -0.1520 -0.1609  0.1385
   87MOL    C1517387   5.669   2.183   6.162  0.2904  0.0553 -0.4510
   87MOL    H1617388   5.253   2.211   6.174  0.1302 -2.5013 -0.5466
   87MOL    H1717389   5.246   2.168   6.003  2.5976  0.1970 -1.3755
   87MOL    H1817390   5.487   2.237   5.978 -0.8666  0.7529  0.0162
   87MOL    H1917391   5.483   2.180   6.282 -2.4503  1.9537 -0.2845
   87MOL    H2017392   5.708   2.178   6.060  0.5982  3.2093 -0.5134
   87MOL    H2117393   5.697   2.087   6.206 -0.5893  0.4524  1.0114
   87MOL    C2217394   5.736   2.306   6.223 -0.0172 -0.1610  0.5361
   87MOL    C2317395   5.888   2.293   6.224 -0.5217  0.0233 -0.6726
   87MOL    C2417396   5.961   2.342   6.124 -0.2733  0.1241 -0.0584
   87MOL    C2517397   6.113   2.334   6.112 -0.5443 -0.4618 -0.0711
   87MOL    H2617398   5.710   2.399   6.172  2.5001 -0.4633 -1.4586
   87MOL    H2717399   5.702   2.317   6.326 -0.7303 -0.5929  0.3464
   87MOL    H2817400   5.927   2.236   6.308 -0.2220  0.3138 -0.6144
   87MOL    H2917401   5.909   2.391   6.043 -0.0296  0.0066 -0.2884
   87MOL    H3017402   6.166   2.338   6.208 -2.1797  0.1276  0.8275
   87MOL    H3117403   6.150   2.417   6.052  2.8053 -0.8071  1.4021
   87MOL    C3217404   6.153   2.204   6.050  0.2521  0.6416  0.4143
   87MOL    C3317405   6.307   2.185   6.030 -0.4049 -0.0595 -0.5446
   87MOL    C3417406   6.356   2.113   5.927  0.6760 -0.3821 -0.6010
   87MOL    C3517407   6.501   2.095   5.887 -0.1737 -1.0601 -0.1389
   87MOL    H3617408   6.134   2.132   6.129 -0.7101  1.3612  0.8562
   87MOL    H3717409   6.101   2.179   5.958 -0.6755 -1.0258  1.3801
   87MOL    H3817410   6.371   2.228   6.105 -0.9981 -0.3568  0.1442
   87MOL    H3917411   6.278   2.074   5.862 -2.4678  2.8505  1.0140
   87MOL    H4017412   6.493   1.994   5.848 -3.0899 -0.8899 -0.1440
   87MOL    H4117413   6.571   2.110   5.970 -0.4307 -1.5634  0.1683
   87MOL    C4217414   6.531   2.198   5.772 -0.1885 -0.3468 -0.2153
   87MOL    C4317415   6.672   2.192   5.721 -0.4837 -0.3938  1.0036
   87MOL    C4417416   6.702   2.169   5.593 -0.1207 -0.9936  0.8876
   87MOL    C4517417   6.844   2.173   5.531 -0.1195 -0.0206 -0.2355
   87MOL    H4617418   6.457   2.180   5.694  2.3192 -0.3346 -2.6760
   87MOL    H4717419   6.509   2.298   5.809 -0.6310 -1.0904  1.6405
   87MOL    H4817420   6.751   2.208   5.793 -1.6396 -0.5314  2.3372
   87MOL    H4917421   6.623   2.163   5.519 -0.3832  0.0150  1.0709
   87MOL    H5017422   6.921   2.196   5.605 -0.1115 -0.3311 -0.1455
   87MOL    H5117423   6.845   2.257   5.461  0.0095 -1.0431 -1.5005
   87MOL    C5217424   6.878   2.040   5.476  0.4555  0.8668  0.2951
   87MOL    C5317425   6.918   1.935   5.579 -0.2133 -0.3468  0.2466
   87MOL    C5417426   6.925   1.949   5.711 -0.9477 -0.1403  1.1663
   87MOL    C5517427   6.964   1.827   5.799 -0.1998  0.1560  0.4606
   87MOL    H5617428   6.799   2.007   5.409  1.2440 -0.1142 -0.1776
   87MOL    H5717429   6.959   2.049   5.404  0.0009  1.4278 -0.1471
   87MOL    H5817430   6.935   1.838   5.536 -0.5981 -0.8313  1.1975
   87MOL    H5917431   6.911   2.048   5.751 -3.8929  1.3542 -3.1759
   87MOL    H6017432   7.072   1.826   5.818  0.2298  0.4280 -1.8030
   87MOL    H6117433   6.947   1.733   5.746 -1.6569 -0.4889  2.0171
   87MOL    C6217434   6.873   1.834   5.919  0.1704 -0.0473 -0.3390
   87MOL    C6317435   6.868   1.706   6.001  0.3123  0.5247  0.5110
   87MOL    C6417436   6.798   1.688   6.112  0.3956 -0.1172 -0.1091
   87MOL    C6517437   6.806   1.561   6.191  0.7127 -0.4604  0.1289
   87MOL    H6617438   6.898   1.917   5.985 -0.8267 -0.5182  0.6517
   87MOL    H6717439   6.770   1.858   5.891 -1.3374 -2.9192  2.4710
   87MOL    H6817440   6.947   1.634   5.982  0.9342  1.0247  1.1837
   87MOL    H6917441   6.730   1.767   6.142 -0.3966  0.0323 -2.2437
   87MOL    H7017442   6.841   1.480   6.127  0.3592 -0.2775 -0.2983
   87MOL    H7117443   6.700   1.538   6.205  0.8798 -0.8523  0.7954
   87MOL    C7217444   6.880   1.590   6.330  0.4602 -0.1751 -0.1067
   87MOL    C7317445   6.888   1.468   6.422  1.4313 -0.4606 -0.2158
   87MOL    C7417446   7.004   1.409   6.467 -0.0735 -0.1242  0.5594
   87MOL    C7517447   7.011   1.293   6.559 -0.9117 -0.0896 -0.2631
   87MOL    H7617448   6.978   1.638   6.319  1.1093 -1.5813 -0.5163
   87MOL    H7717449   6.821   1.666   6.382 -1.0707 -1.5908  0.2573
   87MOL    H7817450   6.793   1.423   6.448  2.4679 -2.4212  0.3103
   87MOL    H7917451   7.096   1.446   6.426 -1.9404  1.1989 -2.6255
   87MOL    H8017452   6.909   1.268   6.589 -0.1731 -2.2752  0.5282
   87MOL    H8117453   7.069   1.324   6.646 -1.2878  2.3685 -0.8492
   87MOL    C8217454   7.079   1.173   6.499  0.1816  0.0368  0.0404
   87MOL    C8317455   7.227   1.200   6.482 -0.2606 -0.6400  0.1625
   87MOL    C8417456   7.314   1.110   6.437  0.0715 -0.1915 -0.9026
   87MOL    C8517457   7.463   1.117   6.451  0.0061 -0.1420 -0.0521
   87MOL    H8617458   7.061   1.084   6.559 -0.2979 -1.5334 -2.3576
   87MOL    H8717459   7.042   1.144   6.400  1.2416 -0.3551 -0.2491
   87MOL    H8817460   7.262   1.294   6.521 -1.2043  1.0191 -2.8176
   87MOL    H8917461   7.267   1.020   6.400 -2.2916  0.2415  0.8972
   87MOL    H9017462   7.503   1.018   6.473 -0.0038 -0.5576 -1.8509
   87MOL    H9117463   7.483   1.177   6.541 -1.7419 -0.4015  0.5285
   87MOL    C9217464   7.532   1.166   6.327 -0.1924 -0.3425 -0.3095
   87MOL    C9317465   7.686   1.149   6.331  0.1469  0.8442  0.0245
   87MOL    C9417466   7.771   1.256   6.357 -0.8942 -0.2547  0.1814
   87MOL    C9517467   7.925   1.245   6.361  0.6587  0.0744  0.2486
   87MOL    H9617468   7.495   1.113   6.239  1.2973  1.1695 -1.8696
   87MOL    H9717469   7.507   1.272   6.316  1.3810  0.2669  1.7998
   87MOL    H9817470   7.715   1.046   6.323 -0.4665  0.6290  0.5106
   87MOL    H9917471   7.731   1.356   6.368  0.1858 -0.0600  2.6027
   87MOL   H10017472   7.945   1.139   6.343  1.0178 -0.2506  2.3768
   87MOL   H10117473   7.964   1.272   6.459 -2.4007  1.1654  1.2177
   87MOL   C10217474   0.029   1.323   6.265  0.1136  0.2599 -0.1635
   87MOL   C10317475   0.016   1.468   6.307 -0.5692 -0.0854 -0.0320
   87MOL   C10417476   7.929   1.563   6.233  0.0471 -0.3693  0.3207
   87MOL   C10517477   7.932   1.712   6.270  0.3695  0.3280 -0.7772
   87MOL   H10617478   0.132   1.288   6.278 -0.2530 -0.2417  1.5670
   87MOL   H10717479   7.969   1.314   6.163  0.7374  2.4556 -0.6079
   87MOL   H10817480   0.054   1.491   6.406  0.1537 -2.2416  0.2246
   87MOL   H10917481   7.897   1.530   6.135 -0.7341  0.2936  0.3445
   87MOL   H11017482   0.023   1.772   6.208 -1.2324  1.0383 -1.8714
   87MOL   H11117483   0.010   1.716   6.364  0.3144 -0.1827 -0.7216
   87MOL   C11217484   7.786   1.758   6.290  0.4197  0.2905  0.2674
   87MOL   C11317485   7.773   1.906   6.325  0.0199  0.0554  1.7140
   87MOL   C11417486   7.695   1.964   6.415  0.3793  0.3175 -0.6115
   87MOL   C11517487   7.693   2.113   6.448 -0.0486 -0.0111 -0.4873
   87MOL   H11617488   7.733   1.740   6.197  0.1942  0.8307  0.2855
   87MOL   H11717489   7.734   1.706   6.370  0.5062  0.1670  0.2439
   87MOL   H11817490   7.841   1.971   6.273 -1.4405 -0.3432 -0.8191
   87MOL   H11917491   7.642   1.901   6.486  1.1915  1.7030  1.2539
   87MOL   H12017492   7.591   2.151   6.448  0.3052  0.9477 -0.1067
   87MOL   H12117493   7.740   2.161   6.362  0.7896 -1.3251 -0.7829
   87MOL   C12217494   7.761   2.145   6.573 -0.3325  0.2673 -0.1731
   87MOL   C12317495   7.779   2.299   6.588  0.9832 -0.5993  0.4722
   87MOL   C12417496   7.765   2.373   6.702  0.1207 -0.1039 -0.0918
   87MOL   C12517497   7.785   2.521   6.698 -0.0389 -0.8234  0.3432
   87MOL   H12617498   7.707   2.103   6.658 -1.7466  1.2854 -0.5374
   87MOL   H12717499   7.863   2.108   6.577 -0.4012  0.2141  1.4220
   87MOL   H12817500   7.808   2.349   6.497 -1.2756 -2.0513 -1.0731
   87MOL   H12917501   7.734   2.323   6.793  1.2701 -1.9263 -0.6915
   87MOL   H13017502   7.742   2.564   6.607 -0.8567  0.4161  1.3001
   87MOL   H13117503   7.892   2.529   6.681 -0.0947 -0.3181  0.2146
   87MOL   C13217504   7.745   2.592   6.834 -0.6871 -0.1364 -0.0113
   87MOL   C13317505   7.597   2.581   6.856  0.3146  0.3510  0.1051
   87MOL   C13417506   7.538   2.540   6.973  0.6623 -0.2790 -0.2503
   87MOL   C13517507   7.390   2.510   6.980 -0.2213 -0.2107 -0.7618
   87MOL   H13617508   7.796   2.537   6.913 -0.2550  0.7141  0.3196
   87MOL   H13717509   7.784   2.693   6.847 -1.1406 -0.0793  0.9612
   87MOL   H13817510   7.539   2.596   6.766 -2.9713 -4.4834  1.2155
   87MOL   H13917511   7.586   2.521   7.068 -0.1943  3.1484  0.9350
   87MOL   H14017512   7.335   2.561   6.902 -2.5902  3.6216  3.2122
   87MOL   H14117513   7.339   2.550   7.068  0.1300 -0.7881 -0.2853
   87MOL   C14217514   7.366   2.357   6.993 -0.1422 -0.7055 -0.1934
   87MOL   C14317515   7.412   2.285   6.870  0.5581 -0.0981 -0.1341
   87MOL   C14417516   7.328   2.261   6.765 -0.5626 -0.5606 -0.2855
   87MOL   C14517517   7.369   2.162   6.658 -0.7603  0.1492 -0.1309
   87MOL   H14617518   7.410   2.321   7.087  0.5496 -0.2159 -0.3261
   87MOL   H14717519   7.258   2.343   7.001 -0.4690  0.8762 -1.6355
   87MOL   H14817520   7.508   2.235   6.870  0.2791 -0.6699 -1.4678
   87MOL   H14917521   7.227   2.298   6.768 -0.0325  0.8498  0.5496
   87MOL   H15017522   7.381   2.064   6.704 -0.9772 -0.0573 -0.5166
   87MOL   H15117523   7.471   2.189   6.633 -1.3281  1.8312 -0.6955
   87MOL   C15217524   7.285   2.165   6.525 -0.1854  0.3220 -0.1574
   87MOL   C15317525   7.306   2.048   6.424  0.5207 -0.5374 -0.1167
   87MOL   C15417526   7.235   1.938   6.411  0.6363  0.0654 -0.3371
   87MOL   C15517527   7.276   1.826   6.316 -0.3082 -0.5535 -0.2996
   87MOL   H15617528   7.179   2.152   6.547 -0.3714  0.2422 -1.0793
   87MOL   H15717529   7.300   2.259   6.472  1.3359  0.8259  1.1162
   87MOL   H15817530   7.389   2.064   6.355  0.2656  1.9554  0.1043
   87MOL   H15917531   7.152   1.921   6.477  1.8621 -1.7136  0.7920
   87MOL   H16017532   7.375   1.841   6.274 -0.3124  0.3148 -0.0095
   87MOL   H16117533   7.212   1.826   6.227 -0.7811  4.1856 -0.0467
   87MOL   C16217534   7.292   1.681   6.363 -0.0987  0.4830  0.1340
   87MOL   C16317535   7.371   1.674   6.492 -0.3165  0.0983  0.1180
   87MOL   C16417536   7.469   1.586   6.512 -0.0545 -0.3691  0.2514
   87MOL   C16517537   7.550   1.589   6.638  0.4322 -0.2681 -0.4446
   87MOL   H16617538   7.194   1.635   6.371 -0.0700 -0.4083 -3.5624
   87MOL   H16717539   7.353   1.615   6.301  0.0766 -0.2564  1.0770
   87MOL   H16817540   7.346   1.738   6.575 -0.0457  2.3891 -1.5156
   87MOL   H16917541   7.498   1.529   6.425 -1.6769  0.6667 -0.9800
   87MOL   H17017542   7.489   1.631   6.717  0.2559  0.3053 -0.8796
   87MOL   H17117543   7.636   1.656   6.630 -1.1311  1.8532  0.4319
   87MOL   C17217544   7.602   1.448   6.672 -0.5496 -0.5186  0.2089
   87MOL   C17317545   7.702   1.458   6.782  0.0708 -0.3221  0.1563
   87MOL   C17417546   7.817   1.392   6.769 -0.2137  0.3910 -0.6449
   87MOL   C17517547   7.930   1.402   6.865 -0.1938  0.0870  0.3728
   87MOL   H17617548   7.526   1.381   6.711  0.7863 -1.9822  0.3860
   87MOL   H17717549   7.646   1.395   6.587 -0.0685 -2.3285  1.5456
   87MOL   H17817550   7.681   1.528   6.861 -3.0479  1.3879 -2.0988
   87MOL   H17917551   7.833   1.321   6.690 -1.0350 -0.6462  0.1050
   87MOL   H18017552   7.945   1.298   6.893 -0.7054 -0.8714 -2.7576
   87MOL   H18117553   7.895   1.450   6.957 -2.2297 -3.7768  1.7249
   87MOL   C18217554   0.073   1.476   6.811 -0.0032  0.3127  0.3604
   87MOL   C18317555   0.051   1.615   6.750 -0.2973 -0.1091  0.4870
   87MOL   C18417556   0.094   1.726   6.809 -0.2331 -0.4462 -0.0845
   87MOL   C18517557   0.073   1.872   6.766 -0.0872  0.6206  0.4859
   87MOL   H18617558   0.159   1.484   6.877  1.2992 -0.5245 -1.1963
   87MOL   H18717559   0.103   1.427   6.718 -1.1513 -1.2045  0.7923
   87MOL   H18817560   7.972   1.616   6.657  0.2232 -1.5506  0.1346
   87MOL   H18917561   0.141   1.713   6.905 -0.0846 -2.4452 -0.4169
   87MOL   H19017562   0.016   1.877   6.673  0.3265  0.5362  0.2306
   87MOL   H19117563   0.171   1.915   6.744  0.0348  1.0030  1.7248
   87MOL   C19217564   7.972   1.938   6.874  0.2158  0.2670 -0.0940
   87MOL   C19317565   7.832   1.881   6.888  0.0344  0.4305 -0.8352
   87MOL   C19417566   7.719   1.958   6.879  1.1548  0.2745  0.1063
   87MOL   C19517567   7.584   1.888   6.885  0.0567 -0.2543  0.0580
   87MOL   H19617568   0.035   1.939   6.975  2.2607 -1.1189 -0.8500
   87MOL   H19717569   7.960   2.041   6.842 -2.1081 -0.9846 -3.6017
   87MOL   H19817570   7.841   1.776   6.913  0.4563  1.0141  1.6325
   87MOL   H19917571   7.726   2.064   6.860  0.1781  0.8816  2.9197
   87MOL   H20017572   7.604   1.782   6.898 -1.2539 -0.1609  3.4669
   87MOL   H20117573   7.534   1.890   6.789  0.8212  1.2655 -0.3273
   87MOL   H20217574   7.507   1.927   6.952 -0.0032  1.3677 -0.9262
   88MOL     C117575   6.683   6.270   3.963  0.1559 -0.4913  0.8494
   88MOL     C217576   6.725   6.144   3.881 -0.0542 -0.7225  0.0947
   88MOL     C317577   6.658   6.096   3.775  0.4982  0.2641 -0.0252
   88MOL     C417578   6.699   5.964   3.706 -0.1928 -0.0454 -0.4102
   88MOL     H517579   6.633   6.244   4.056 -2.7581 -0.2936 -0.5820
   88MOL     H617580   6.629   6.334   3.892  0.6988 -1.1861 -0.1931
   88MOL     H717581   6.800   6.074   3.916  0.0102  0.1248  1.7048
   88MOL     H817582   6.575   6.157   3.742  0.6810  1.3686  1.4973
   88MOL     H917583   6.619   5.892   3.726  0.1737 -0.3620 -0.0703
   88MOL    H1017584   6.792   5.921   3.744  0.0259 -0.0829 -0.9863
   88MOL    H1117585   6.775   6.326   3.976  0.9090 -1.8933  1.6019
   88MOL    C1217586   6.720   5.973   3.553  0.3141 -0.6379 -0.8873
   88MOL    C1317587   6.759   5.840   3.495  0.3560  0.8444 -0.1416
   88MOL    C1417588   6.680   5.760   3.415  0.1418 -0.2377  0.0018
   88MOL    C1517589   6.728   5.619   3.374  0.2071  0.1348  0.3515
   88MOL    H1617590   6.637   6.022   3.503  1.7916  3.1250  0.1600
   88MOL    H1717591   6.796   6.048   3.528  0.2049  0.2465  1.3651
   88MOL    H1817592   6.860   5.815   3.524  1.4044  1.4778 -3.1063
   88MOL    H1917593   6.578   5.783   3.387 -0.7440 -1.6114  2.0033
   88MOL    H2017594   6.709   5.555   3.460 -0.8465  1.9029  1.4573
   88MOL    H2117595   6.834   5.614   3.349  0.1053 -1.7336  0.2638
   88MOL    C2217596   6.650   5.584   3.244 -0.4252  0.2762 -0.3475
   88MOL    C2317597   6.527   5.502   3.270 -0.8018 -0.0034 -0.6263
   88MOL    C2417598   6.507   5.369   3.265  0.5163 -0.2756 -0.0359
   88MOL    C2517599   6.375   5.298   3.299 -0.7491  0.5897 -1.0209
   88MOL    H2617600   6.648   5.670   3.177  0.9389  0.6527  0.0876
   88MOL    H2717601   6.720   5.526   3.184  1.3682 -0.3307  2.2567
   88MOL    H2817602   6.443   5.563   3.302  2.7143  4.3525  0.6889
   88MOL    H2917603   6.591   5.308   3.238 -0.3623 -1.4893 -0.0722
   88MOL    H3017604   6.351   5.306   3.406  1.8613 -0.8992 -0.2924
   88MOL    H3117605   6.395   5.193   3.282  0.9330  0.6407  0.4459
   88MOL    C3217606   6.263   5.349   3.211 -0.2451  0.0463  0.4616
   88MOL    C3317607   6.122   5.279   3.212  0.3507 -0.4355 -0.0908
   88MOL    C3417608   6.027   5.299   3.306 -0.2425  0.1472  0.2628
   88MOL    C3517609   5.882   5.253   3.302 -0.2246  0.1030 -0.4255
   88MOL    H3617610   6.247   5.449   3.252  0.2592  0.8192 -1.1787
   88MOL    H3717611   6.301   5.350   3.109 -1.2358 -0.3005  0.0773
   88MOL    H3817612   6.095   5.242   3.114  0.0170  0.3125 -0.2914
   88MOL    H3917613   6.065   5.343   3.397 -3.1119  0.4114  1.3821
   88MOL    H4017614   5.827   5.317   3.371 -1.5204 -0.8534 -0.5617
   88MOL    H4117615   5.885   5.154   3.346  1.0296 -0.2014 -1.1824
   88MOL    C4217616   5.814   5.259   3.168 -1.2304  0.0620  0.0067
   88MOL    C4317617   5.661   5.231   3.165 -0.8642  0.1890 -0.3819
   88MOL    C4417618   5.600   5.166   3.263 -0.1933  0.5236  0.6509
   88MOL    C4517619   5.455   5.132   3.265  0.3106 -0.0540  0.6635
   88MOL    H4617620   5.823   5.360   3.128  2.9075 -1.1901 -2.5747
   88MOL    H4717621   5.860   5.184   3.104 -1.8056 -0.2310 -0.0612
   88MOL    H4817622   5.606   5.260   3.077 -0.4242  1.5278 -0.2292
   88MOL    H4917623   5.655   5.130   3.349 -0.9360 -5.1029 -1.0034
   88MOL    H5017624   5.460   5.028   3.298  0.1155  0.0181  0.9193
   88MOL    H5117625   5.416   5.132   3.163 -1.0941  0.8721  1.1944
   88MOL    C5217626   5.368   5.219   3.360 -0.2923  0.2000  0.5162
   88MOL    C5317627   5.231   5.159   3.381  0.0257 -0.5749  0.1608
   88MOL    C5417628   5.112   5.217   3.348 -1.3422  0.2315  0.1339
   88MOL    C5517629   4.978   5.154   3.375  0.0820 -0.6441 -0.6454
   88MOL    H5617630   5.425   5.225   3.452 -0.0284  1.6907  0.2714
   88MOL    H5717631   5.355   5.319   3.320  0.6905  0.2997  0.4225
   88MOL    H5817632   5.232   5.072   3.445 -0.7155 -1.6493 -1.2378
   88MOL    H5917633   5.112   5.306   3.287  1.0583 -1.2876 -2.2116
   88MOL    H6017634   4.988   5.068   3.441 -2.3176  0.2481  0.9779
   88MOL    H6117635   4.940   5.106   3.285  0.0203  0.0507 -0.9940
   88MOL    C6217636   4.887   5.265   3.423 -0.1391  0.6143 -0.5628
   88MOL    C6317637   4.854   5.370   3.326  0.7136 -0.1116 -0.1039
   88MOL    C6417638   4.873   5.501   3.343  1.1791  0.5912  0.0263
   88MOL    C6517639   4.818   5.614   3.255  0.7804 -0.5288  0.4777
   88MOL    H6617640   4.796   5.217   3.458  0.3542 -0.0658 -0.1861
   88MOL    H6717641   4.933   5.319   3.505  1.1877  1.1217 -1.6150
   88MOL    H6817642   4.801   5.332   3.240  0.4253 -0.8875  0.4040
   88MOL    H6917643   4.941   5.528   3.423  0.6678  3.9821 -0.6043
   88MOL    H7017644   4.753   5.681   3.311  2.1017  1.3133 -0.1385
   88MOL    H7117645   4.735   5.575   3.195 -0.1688 -0.6703  1.8647
   88MOL    C7217646   4.918   5.677   3.156  0.0906  0.0934 -0.2432
   88MOL    C7317647   4.975   5.582   3.054  0.9965  1.1179  0.0615
   88MOL    C7417648   5.106   5.539   3.045  0.5833 -1.0589 -0.0365
   88MOL    C7517649   5.136   5.430   2.945 -0.6440 -0.5978 -0.1571
   88MOL    H7617650   4.861   5.748   3.096 -1.6019 -0.1543  1.0336
   88MOL    H7717651   4.997   5.720   3.217 -2.4760  3.3782  0.9115
   88MOL    H7817652   4.902   5.542   2.985  4.5671 -3.8241 -1.1687
   88MOL    H7917653   5.188   5.569   3.110  2.0635 -1.2168 -1.7768
   88MOL    H8017654   5.225   5.460   2.890  0.7499 -2.5529  0.9614
   88MOL    H8117655   5.057   5.422   2.869 -1.0827  1.7839  0.0270
   88MOL    C8217656   5.175   5.295   3.007  0.5983  0.0366 -0.2703
   88MOL    C8317657   5.196   5.184   2.907 -0.1163  0.5020 -0.2881
   88MOL    C8417658   5.314   5.126   2.879  0.0477 -0.3484 -0.1727
   88MOL    C8517659   5.331   5.018   2.766 -0.7873 -0.1008  0.7902
   88MOL    H8617660   5.259   5.298   3.076 -0.1435 -0.1681  0.6381
   88MOL    H8717661   5.095   5.263   3.072  1.0309  0.5614  0.5300
   88MOL    H8817662   5.101   5.167   2.858  0.1141 -0.6155 -0.3571
   88MOL    H8917663   5.401   5.157   2.935 -0.5613 -1.1563  1.2322
   88MOL    H9017664   5.360   4.920   2.805 -0.6258  0.3300  1.7556
   88MOL    H9117665   5.412   5.059   2.705 -2.1304 -0.9951 -1.6423
   88MOL    C9217666   5.198   4.989   2.682  0.3238  0.1388 -0.2162
   88MOL    C9317667   5.233   4.896   2.565  0.0101 -0.7860 -0.3278
   88MOL    C9417668   5.196   4.915   2.439  0.3972 -0.1820  0.1709
   88MOL    C9517669   5.222   4.825   2.322 -0.2359 -0.0218  0.4822
   88MOL    H9617670   5.122   4.945   2.747 -1.7992  0.3558 -2.4393
   88MOL    H9717671   5.156   5.077   2.632  3.1811 -0.0593 -3.1273
   88MOL    H9817672   5.290   4.810   2.597 -0.1941 -1.1611 -0.9621
   88MOL    H9917673   5.136   5.001   2.415  1.8467  0.6604 -0.5026
   88MOL   H10017674   5.122   4.799   2.289  0.0710  0.2217 -0.6603
   88MOL   H10117675   5.275   4.737   2.359 -0.1065 -0.1104  0.0941
   88MOL   C10217676   5.287   4.907   2.203  0.3783 -0.4280  0.6208
   88MOL   C10317677   5.277   4.820   2.074  0.8580  0.1538 -0.0641
   88MOL   C10417678   5.371   4.795   1.978  0.6540  0.6260 -1.1607
   88MOL   C10517679   5.346   4.717   1.849  1.0561 -0.0431 -0.2884
   88MOL   H10617680   5.239   5.001   2.177 -0.6612 -1.1295 -0.0280
   88MOL   H10717681   5.389   4.945   2.216  0.2426  0.2970 -0.3018
   88MOL   H10817682   5.173   4.795   2.059  0.8530  0.1622 -0.0387
   88MOL   H10917683   5.472   4.829   1.999  1.0060 -0.7076 -0.6526
   88MOL   H11017684   5.323   4.789   1.771 -0.3903  1.1226  1.1810
   88MOL   H11117685   5.253   4.662   1.866  1.2799 -1.0410 -2.1740
   88MOL   C11217686   5.458   4.620   1.807  0.1710  0.0909  0.3583
   88MOL   C11317687   5.421   4.523   1.697 -0.1902 -0.0327 -0.6557
   88MOL   C11417688   5.418   4.392   1.716  0.3423  0.2299  0.1177
   88MOL   C11517689   5.385   4.290   1.605  1.1659  0.1395 -0.3624
   88MOL   H11617690   5.550   4.669   1.776  0.7568 -0.4471  1.2150
   88MOL   H11717691   5.474   4.557   1.895 -0.0962  2.8280  2.4167
   88MOL   H11817692   5.409   4.564   1.598 -1.1843  2.7031  0.5303
   88MOL   H11917693   5.427   4.339   1.810  0.9536 -2.7353 -1.5345
   88MOL   H12017694   5.443   4.198   1.610  3.6175  1.7266  1.8545
   88MOL   H12117695   5.387   4.336   1.506 -1.2137 -0.0763 -0.5511
   88MOL   C12217696   5.242   4.230   1.624 -0.4761  0.2188  0.4099
   88MOL   C12317697   5.130   4.310   1.569 -0.2121  0.3590 -0.5957
   88MOL   C12417698   5.031   4.256   1.499  0.2823 -0.1038  0.3315
   88MOL   C12517699   4.896   4.319   1.475 -0.8201 -0.3580  0.3965
   88MOL   H12617700   5.242   4.128   1.588 -0.8327  0.8549 -1.4634
   88MOL   H12717701   5.222   4.221   1.731 -2.0335  1.2664  0.2310
   88MOL   H12817702   5.122   4.406   1.619  1.3936 -0.6496  1.7083
   88MOL   H12917703   5.043   4.158   1.457 -1.6252 -0.3572  0.3474
   88MOL   H13017704   4.879   4.306   1.368 -0.8404  1.4404  0.1672
   88MOL   H13117705   4.900   4.425   1.500 -1.0623 -0.1913 -0.2742
   88MOL   C13217706   4.782   4.262   1.560  0.7203 -0.3548 -0.5406
   88MOL   C13317707   4.654   4.338   1.541  0.1652 -0.0288  0.3058
   88MOL   C13417708   4.543   4.281   1.494  0.5342  0.1678  0.2426
   88MOL   C13517709   4.411   4.356   1.467 -0.4101 -0.0875 -0.2531
   88MOL   H13617710   4.768   4.158   1.528  1.4717  0.2551 -2.9003
   88MOL   H13717711   4.805   4.259   1.667  1.6382 -0.5421 -0.7378
   88MOL   H13817712   4.657   4.443   1.568  2.5885 -0.2294  0.9869
   88MOL   H13917713   4.543   4.174   1.479 -0.3887  0.1063  0.6795
   88MOL   H14017714   4.414   4.340   1.359 -1.8690 -0.6133 -0.2306
   88MOL   H14117715   4.431   4.459   1.499 -0.3932 -0.8599  2.2977
   88MOL   C14217716   4.291   4.295   1.540 -0.0484  0.0377  0.7786
   88MOL   C14317717   4.161   4.375   1.498  0.1739 -0.1253  0.0644
   88MOL   C14417718   4.077   4.431   1.581  0.3377 -0.2892  0.2152
   88MOL   C14517719   3.953   4.516   1.533  0.3790  0.2407  0.0591
   88MOL   H14617720   4.282   4.188   1.519  1.7070 -0.2178  1.2553
   88MOL   H14717721   4.294   4.305   1.648  1.2102  1.1659  0.6522
   88MOL   H14817722   4.137   4.389   1.393 -1.9253  0.9125  0.6506
   88MOL   H14917723   4.091   4.418   1.687 -0.2339  0.3808  0.3790
   88MOL   H15017724   3.863   4.465   1.564  0.4622  1.1546  1.8736
   88MOL   H15117725   3.941   4.519   1.425  2.8234  1.5631 -0.2319
   88MOL   C15217726   3.949   4.654   1.590 -0.6132 -0.0978 -0.5080
   88MOL   C15317727   3.829   4.729   1.536 -0.1690 -0.0721  0.5454
   88MOL   C15417728   3.838   4.849   1.483 -0.5071 -0.1154  0.3316
   88MOL   C15517729   3.731   4.937   1.430 -0.6075 -0.4894 -0.3520
   88MOL   H15617730   3.942   4.661   1.698  0.0785  0.7906 -0.5169
   88MOL   H15717731   4.038   4.708   1.560  0.7207 -1.2536  1.3021
   88MOL   H15817732   3.731   4.685   1.544 -0.6402  1.2424  2.1801
   88MOL   H15917733   3.936   4.893   1.475  0.1056 -1.8785 -2.6584
   88MOL   H16017734   3.632   4.893   1.441 -1.3384  0.7741 -1.6207
   88MOL   H16117735   3.749   4.950   1.323 -1.8244 -0.0424 -0.5156
   88MOL   C16217736   3.737   5.074   1.494 -0.2429 -0.1031 -0.2246
   88MOL   C16317737   3.621   5.159   1.451  0.0891  0.2574 -0.1513
   88MOL   C16417738   3.633   5.272   1.378 -0.5846  0.3994 -0.3483
   88MOL   C16517739   3.520   5.352   1.319 -0.0654  0.3727 -0.0254
   88MOL   H16617740   3.746   5.068   1.602 -0.2622 -2.0332 -0.3162
   88MOL   H16717741   3.833   5.112   1.457  0.0316 -0.6326 -0.0599
   88MOL   H16817742   3.522   5.120   1.469 -0.8869  3.8564  2.8290
   88MOL   H16917743   3.732   5.311   1.357  0.3900 -2.5634 -1.5159
   88MOL   H17017744   3.554   5.452   1.346  1.1383 -0.4889  1.8047
   88MOL   H17117745   3.429   5.336   1.377  0.8246  0.0036  1.2857
   88MOL   C17217746   3.502   5.338   1.169 -0.4865  0.2968  0.0717
   88MOL   C17317747   3.454   5.202   1.132  0.6537  0.1175 -0.6306
   88MOL   C17417748   3.531   5.116   1.071 -0.3370 -0.1020 -0.0143
   88MOL   C17517749   3.484   4.981   1.023  0.3837  0.1283  0.3219
   88MOL   H17617750   3.437   5.420   1.138  0.1294  0.5707 -0.5373
   88MOL   H17717751   3.598   5.361   1.121  0.4590 -2.3045  0.6323
   88MOL   H17817752   3.351   5.173   1.146  0.4628  1.9456  2.4426
   88MOL   H17917753   3.636   5.134   1.056  0.5234 -2.5600  2.5492
   88MOL   H18017754   3.563   4.909   1.045  0.4309  0.1362  0.1776
   88MOL   H18117755   3.476   4.977   0.915 -0.3839 -2.2329  0.4430
   88MOL   C18217756   3.348   4.940   1.077  0.3107  0.0187 -0.0391
   88MOL   C18317757   3.301   4.799   1.046  0.1949 -0.3273 -0.1869
   88MOL   C18417758   3.199   4.735   1.112  0.2849  0.1015  0.2227
   88MOL   C18517759   3.139   4.609   1.063  0.0318 -0.9721 -0.0677
   88MOL   H18617760   3.323   4.968   1.179  1.1338 -1.3163  0.5437
   88MOL   H18717761   3.279   4.993   1.012 -1.4343  0.2360  1.9467
   88MOL   H18817762   3.349   4.756   0.960  0.4608  0.2360 -0.3236
   88MOL   H18917763   3.140   4.787   1.186  2.2095  2.0522  0.4701
   88MOL   H19017764   3.089   4.565   1.149  3.4504 -2.5027  1.2201
   88MOL   H19117765   3.214   4.534   1.038  1.2134  1.2143 -3.5038
   88MOL   C19217766   3.051   4.636   0.939  0.0281 -0.4457  0.4543
   88MOL   C19317767   2.958   4.517   0.905 -0.6183  0.0970  0.3851
   88MOL   C19417768   2.835   4.522   0.858  0.0151  0.8269 -0.0317
   88MOL   C19517769   2.739   4.400   0.839  0.5055  0.2649 -0.4198
   88MOL   H19617770   2.999   4.724   0.976  2.8003  1.2518  0.4189
   88MOL   H19717771   3.106   4.670   0.852 -1.5319 -0.3301 -0.5005
   88MOL   H19817772   3.009   4.432   0.949  0.0640  0.6866  0.7517
   88MOL   H19917773   2.788   4.616   0.833 -0.3324  0.6283 -0.1374
   88MOL   H20017774   2.748   4.361   0.738 -1.6089 -2.5939  0.4532
   88MOL   H20117775   2.636   4.430   0.860  0.7317 -0.0827  1.1948
   88MOL   H20217776   2.775   4.334   0.917  2.7446  0.9672 -0.8183
   89MOL     C117777   5.844   0.234   1.101 -0.7992 -0.3030  0.3877
   89MOL     C217778   5.867   0.380   1.132 -0.3269 -0.3131 -0.1702
   89MOL     C317779   5.812   0.484   1.060 -0.3111 -0.0791 -0.5188
   89MOL     C417780   5.835   0.631   1.097 -0.6466 -0.1792 -0.3298
   89MOL     H517781   5.941   0.201   1.062 -0.0858  1.7919  0.2745
   89MOL     H617782   5.767   0.228   1.024  0.5185 -0.7380 -0.9271
   89MOL     H717783   5.943   0.401   1.205  1.6144 -2.3031 -1.5428
   89MOL     H817784   5.749   0.466   0.974  0.4696  1.4143 -1.3997
   89MOL     H917785   5.852   0.694   1.010  1.8632 -0.8660 -0.3784
   89MOL    H1017786   5.927   0.656   1.150  0.3318 -2.7124 -0.7603
   89MOL    H1117787   5.816   0.174   1.187 -0.4069 -0.5425  0.3500
   89MOL    C1217788   5.716   0.683   1.176 -0.4875  0.4400 -0.3197
   89MOL    C1317789   5.687   0.603   1.305 -0.1594  0.6942 -0.1917
   89MOL    C1417790   5.704   0.657   1.430  0.0724  0.2342  0.1786
   89MOL    C1517791   5.672   0.573   1.557  0.0772 -0.7344  0.1607
   89MOL    H1617792   5.722   0.788   1.205  0.6767  0.1366  0.5691
   89MOL    H1717793   5.619   0.670   1.129 -1.5469 -1.4415  2.2913
   89MOL    H1817794   5.669   0.497   1.301 -0.5761  0.8043 -1.7984
   89MOL    H1917795   5.749   0.755   1.439  2.5022 -0.6926 -1.0884
   89MOL    H2017796   5.756   0.576   1.626  0.0406 -0.4963  0.1976
   89MOL    H2117797   5.660   0.469   1.529 -0.6209 -0.2454 -1.4048
   89MOL    C2217798   5.541   0.616   1.616 -0.4157  0.0153  0.5801
   89MOL    C2317799   5.501   0.519   1.724  0.0426 -0.6215  1.0966
   89MOL    C2417800   5.420   0.417   1.700 -0.0431  0.5727  0.3504
   89MOL    C2517801   5.390   0.304   1.802  0.0296  0.0276 -0.4843
   89MOL    H2617802   5.535   0.721   1.642  0.8444 -0.3519  2.4935
   89MOL    H2717803   5.463   0.619   1.539 -0.0291 -2.0255  0.0839
   89MOL    H2817804   5.540   0.542   1.822  1.5852 -0.9195  0.5669
   89MOL    H2917805   5.377   0.400   1.602 -0.3123 -1.1653  0.7488
   89MOL    H3017806   5.283   0.287   1.817 -0.0158 -0.7146 -1.5477
   89MOL    H3117807   5.420   0.337   1.901 -0.5300  1.0997 -0.6654
   89MOL    C3217808   5.459   0.169   1.762 -0.0461 -0.5995 -0.1331
   89MOL    C3317809   5.452   0.066   1.869  0.3245  1.0717 -0.1127
   89MOL    C3417810   5.370   7.939   1.876 -0.4554 -0.1472 -0.2563
   89MOL    C3517811   5.375   7.851   2.000  0.0536 -0.4605  0.6317
   89MOL    H3617812   5.418   0.129   1.670 -1.8477 -2.9958  1.6323
   89MOL    H3717813   5.566   0.177   1.741 -0.0573 -0.1810 -0.0478
   89MOL    H3817814   5.529   0.089   1.942  0.7194  0.8813 -0.4641
   89MOL    H3917815   5.293   7.918   1.803 -0.5301  1.0982 -0.5359
   89MOL    H4017816   5.273   7.832   2.033  0.7506 -1.2779  2.4397
   89MOL    H4117817   5.446   7.882   2.077  1.0262  1.1678 -0.8774
   89MOL    C4217818   5.422   7.709   1.963 -0.0433  0.1456 -0.1379
   89MOL    C4317819   5.424   7.605   2.070 -0.1798 -0.1080 -0.0005
   89MOL    C4417820   5.421   7.631   2.200  0.0674 -0.2471 -0.0776
   89MOL    C4517821   5.425   7.526   2.306  0.7077 -0.1945  0.0241
   89MOL    H4617822   5.359   7.674   1.881 -0.2243 -0.1370  0.1225
   89MOL    H4717823   5.520   7.732   1.922  0.6676 -2.4162  0.0313
   89MOL    H4817824   5.417   7.503   2.034 -2.0513 -0.8471  2.3269
   89MOL    H4917825   5.416   7.731   2.241 -0.9942  0.1417 -1.1285
   89MOL    H5017826   5.464   7.561   2.402 -2.5733 -1.0562  1.7422
   89MOL    H5117827   5.484   7.436   2.287 -0.5831 -1.8282  3.4086
   89MOL    C5217828   5.280   7.483   2.328 -0.5353 -0.0705 -0.5121
   89MOL    C5317829   5.273   7.375   2.431  0.1902  0.0450 -0.4940
   89MOL    C5417830   5.192   7.375   2.535 -0.0821  1.0547 -0.1303
   89MOL    C5517831   5.168   7.265   2.636 -0.0218  0.5706  1.1696
   89MOL    H5617832   5.228   7.571   2.367 -0.0836 -0.8724  1.9995
   89MOL    H5717833   5.233   7.452   2.235  2.1948 -1.3903 -1.5289
   89MOL    H5817834   5.318   7.279   2.412 -1.8678 -1.0267  0.0345
   89MOL    H5917835   5.126   7.459   2.551 -0.2538  0.5937  1.7404
   89MOL    H6017836   5.221   7.278   2.730  0.5046  1.3513  0.7698
   89MOL    H6117837   5.205   7.169   2.600 -2.9435  0.0863 -0.7623
   89MOL    C6217838   5.013   7.260   2.666 -0.9354  0.1394 -0.3591
   89MOL    C6317839   4.973   7.151   2.761  0.1364  0.1867 -0.0537
   89MOL    C6417840   5.057   7.079   2.833  0.2756  0.1831 -0.0734
   89MOL    C6517841   5.026   6.952   2.912  1.2193  0.1863 -0.6656
   89MOL    H6617842   4.973   7.359   2.686  1.6868  0.9482  1.1327
   89MOL    H6717843   4.959   7.221   2.580 -1.4321  0.6250 -0.2689
   89MOL    H6817844   4.868   7.125   2.758  0.2802 -0.3525 -0.4428
   89MOL    H6917845   5.165   7.091   2.831  0.4619 -1.5106 -0.8819
   89MOL    H7017846   4.930   6.949   2.963  2.2732 -1.3737  1.2824
   89MOL    H7117847   5.081   6.961   3.006 -3.3225  1.6939  1.9966
   89MOL    C7217848   5.049   6.828   2.837 -0.7003  0.3050  0.4704
   89MOL    C7317849   5.190   6.823   2.768 -0.0469 -1.5418 -0.2076
   89MOL    C7417850   5.213   6.825   2.637 -0.0746  0.2662 -0.2639
   89MOL    C7517851   5.347   6.817   2.575 -0.3463 -0.2999 -0.5042
   89MOL    H7617852   5.050   6.742   2.904  1.8430 -1.2127 -1.3719
   89MOL    H7717853   4.968   6.805   2.768 -0.5377 -0.3936  0.5026
   89MOL    H7817854   5.279   6.816   2.830  0.4724  2.9613 -0.2319
   89MOL    H7917855   5.125   6.829   2.574 -0.2399  0.9845  0.0143
   89MOL    H8017856   5.359   6.735   2.504 -2.3139 -2.0017  1.0700
   89MOL    H8117857   5.420   6.795   2.653  0.8368 -1.9470 -2.0319
   89MOL    C8217858   5.377   6.949   2.506 -0.4555  0.5782  0.0354
   89MOL    C8317859   5.506   6.940   2.438 -0.2831  0.1144 -0.3152
   89MOL    C8417860   5.594   7.037   2.432  0.1942  0.2175  0.1851
   89MOL    C8517861   5.727   7.028   2.362 -0.4494  0.2930 -0.4751
   89MOL    H8617862   5.297   6.971   2.436 -0.3221 -0.7942 -0.5569
   89MOL    H8717863   5.395   7.036   2.570 -1.0335 -0.9177  2.3088
   89MOL    H8817864   5.538   6.848   2.391 -0.0427  0.1929 -0.3044
   89MOL    H8917865   5.561   7.134   2.465  0.2094  0.2983 -0.0315
   89MOL    H9017866   5.747   6.922   2.348 -0.1095  0.4326 -1.0666
   89MOL    H9117867   5.798   7.077   2.428 -2.1604  0.5815  1.1945
   89MOL    C9217868   5.709   7.103   2.222 -0.2928  0.6819  0.1503
   89MOL    C9317869   5.841   7.126   2.154 -0.0344 -0.5377  0.0576
   89MOL    C9417870   5.864   7.114   2.023  0.4758  0.6642 -0.1599
   89MOL    C9517871   5.998   7.115   1.963 -0.6379  0.4278 -0.3522
   89MOL    H9617872   5.642   7.049   2.154  0.3786 -1.2414  0.9754
   89MOL    H9717873   5.670   7.201   2.251  1.2459  1.5534 -0.6610
   89MOL    H9817874   5.925   7.149   2.218  0.9286 -0.0578 -1.3518
   89MOL    H9917875   5.788   7.066   1.964 -0.1107  3.1040 -1.4072
   89MOL   H10017876   6.062   7.167   2.035  0.1180 -1.4625  0.3729
   89MOL   H10117877   5.976   7.178   1.877  0.1107 -0.7602 -1.4118
   89MOL   C10217878   6.037   6.974   1.913  0.1128 -0.3916 -1.1108
   89MOL   C10317879   6.180   6.979   1.876 -0.2329  0.4037 -0.6219
   89MOL   C10417880   6.273   6.896   1.926  0.1595 -0.2904  0.3131
   89MOL   C10517881   6.421   6.879   1.891  0.5028 -0.2302  0.6463
   89MOL   H10617882   6.019   6.904   1.995  1.2729 -0.2096 -0.6853
   89MOL   H10717883   5.969   6.934   1.838 -2.5429  0.1004  0.9281
   89MOL   H10817884   6.204   7.051   1.800  0.0100  1.4700  0.4501
   89MOL   H10917885   6.241   6.826   2.003 -1.2578 -0.5895 -0.5297
   89MOL   H11017886   6.443   6.950   1.811 -1.0565 -1.2988 -0.7496
   89MOL   H11117887   6.446   6.776   1.864  0.2050 -0.0454 -0.3457
   89MOL   C11217888   6.501   6.899   2.012 -0.7098  0.4793 -0.6366
   89MOL   C11317889   6.648   6.902   1.980 -0.0401  0.5040  0.3936
   89MOL   C11417890   6.727   7.010   1.982 -0.2344 -0.9499 -0.7002
   89MOL   C11517891   6.878   7.023   1.967  0.2265 -0.5745  0.2268
   89MOL   H11617892   6.477   6.996   2.057 -0.1149 -0.4684  1.8267
   89MOL   H11717893   6.478   6.833   2.096 -0.2796  0.1450 -0.7867
   89MOL   H11817894   6.687   6.806   1.948 -1.6101  0.7281 -2.3214
   89MOL   H11917895   6.692   7.110   2.002  3.8168  0.8406 -2.0123
   89MOL   H12017896   6.921   6.924   1.951  0.2016 -0.2827 -1.7724
   89MOL   H12117897   6.921   7.062   2.059 -0.2593  1.3945 -0.3515
   89MOL   C12217898   6.929   7.122   1.858  0.9338  0.3243 -0.2936
   89MOL   C12317899   7.083   7.126   1.845  0.1559 -0.3193  0.1054
   89MOL   C12417900   7.156   7.094   1.736  0.0790 -0.4303 -0.0175
   89MOL   C12517901   7.311   7.090   1.739 -0.0036 -0.3071  0.5391
   89MOL   H12617902   6.882   7.101   1.762  1.3114 -1.3178 -0.1351
   89MOL   H12717903   6.896   7.222   1.888 -0.5230 -0.6684  1.5656
   89MOL   H12817904   7.132   7.156   1.936 -1.1740  0.8362  0.4670
   89MOL   H12917905   7.116   7.084   1.636  0.1740 -0.7742 -0.0228
   89MOL   H13017906   7.344   7.094   1.843 -0.9873  2.6518  0.8007
   89MOL   H13117907   7.363   7.169   1.684 -2.3242 -0.7477 -2.4075
   89MOL   C13217908   7.371   6.964   1.667  0.6291 -0.1006  0.2965
   89MOL   C13317909   7.350   6.975   1.519 -0.1460  0.1736  0.4087
   89MOL   C13417910   7.259   6.899   1.459 -0.1770  0.7004 -0.1166
   89MOL   C13517911   7.231   6.894   1.314  0.4900 -0.0151  0.4206
   89MOL   H13617912   7.480   6.958   1.673  0.6705  0.2190 -0.1679
   89MOL   H13717913   7.340   6.865   1.703  2.3707 -0.7343  0.0878
   89MOL   H13817914   7.420   7.036   1.463  0.3866 -0.7273  0.0926
   89MOL   H13917915   7.201   6.829   1.517 -0.0293  1.6490  1.1955
   89MOL   H14017916   7.235   6.790   1.283  0.4436 -0.0728  0.6044
   89MOL   H14117917   7.312   6.945   1.263 -1.3250  1.0621 -1.4692
   89MOL   C14217918   7.095   6.952   1.278  0.0783  0.5762  0.5600
   89MOL   C14317919   7.074   6.965   1.123 -0.0902 -0.0932 -0.4346
   89MOL   C14417920   6.986   6.900   1.054 -0.1030  0.2812  0.0979
   89MOL   C14517921   6.989   6.903   0.901  0.0308  0.3063 -0.1130
   89MOL   H14617922   7.010   6.893   1.312  1.6926 -2.3121 -0.2494
   89MOL   H14717923   7.087   7.051   1.321  0.0352 -0.0643  2.0693
   89MOL   H14817924   7.133   7.044   1.078 -2.4348  1.7199 -0.3952
   89MOL   H14917925   6.919   6.826   1.095  3.0424 -1.6439  1.9272
   89MOL   H15017926   6.935   6.819   0.857  2.3017 -1.3487  0.1357
   89MOL   H15117927   7.094   6.892   0.872  0.4021 -3.4698  2.2260
   89MOL   C15217928   6.931   7.027   0.843 -0.3051 -0.4840 -0.1894
   89MOL   C15317929   6.786   7.057   0.881 -0.4047  0.9209  0.0227
   89MOL   C15417930   6.686   7.088   0.794  0.4852  0.8457 -0.4529
   89MOL   C15517931   6.545   7.123   0.817 -1.0538  0.2550 -1.2730
   89MOL   H15617932   6.998   7.110   0.865 -1.2266  0.6588 -1.5770
   89MOL   H15717933   6.939   7.019   0.735  0.5327 -0.4468 -0.1316
   89MOL   H15817934   6.759   7.059   0.985 -3.0453  0.7308 -0.6205
   89MOL   H15917935   6.720   7.089   0.691  2.1080 -1.2867  0.0423
   89MOL   H16017936   6.535   7.097   0.923 -1.3748  0.8578 -1.1471
   89MOL   H16117937   6.475   7.065   0.758 -2.2859  2.1921 -1.7538
   89MOL   C16217938   6.527   7.272   0.788  0.1142 -0.3120  0.3870
   89MOL   C16317939   6.396   7.323   0.843 -0.0860  0.3709 -0.5549
   89MOL   C16417940   6.376   7.445   0.896  0.5901 -0.0405 -0.0630
   89MOL   C16517941   6.239   7.495   0.946 -0.4329  0.0717  0.7495
   89MOL   H16617942   6.613   7.327   0.827 -0.2465 -0.4228  1.3579
   89MOL   H16717943   6.517   7.281   0.680 -1.0049  1.3703  0.6144
   89MOL   H16817944   6.308   7.260   0.839 -1.1152  1.6434  1.1572
   89MOL   H16917945   6.460   7.510   0.912  1.9096 -1.6269 -0.4304
   89MOL   H17017946   6.156   7.431   0.916  1.2915 -2.1209  0.5149
   89MOL   H17117947   6.229   7.591   0.895  0.3569  0.7241  1.8183
   89MOL   C17217948   6.234   7.513   1.095 -0.0803 -0.4846  0.4744
   89MOL   C17317949   6.091   7.554   1.137 -0.2059  0.2481  0.3506
   89MOL   C17417950   6.041   7.675   1.136 -0.1754 -0.0477 -0.0587
   89MOL   C17517951   5.893   7.716   1.161  1.1407  0.0178 -0.2446
   89MOL   H17617952   6.247   7.412   1.134 -0.0434 -0.6771 -0.0203
   89MOL   H17717953   6.306   7.586   1.131  0.2674 -0.9193  0.6685
   89MOL   H17817954   6.028   7.467   1.139 -3.1639  2.2946 -0.1532
   89MOL   H17917955   6.113   7.752   1.114 -2.0788  2.1583  1.2144
   89MOL   H18017956   5.848   7.745   1.066  2.0954 -0.3464 -0.8184
   89MOL   H18117957   5.899   7.791   1.239  0.6044  1.1799 -1.3133
   89MOL   C18217958   5.814   7.598   1.210 -0.8073  0.2498  0.4175
   89MOL   C18317959   5.677   7.631   1.271  0.5286  0.4851  0.1710
   89MOL   C18417960   5.650   7.624   1.403 -0.3218  0.0331 -0.2689
   89MOL   C18517961   5.522   7.665   1.462  0.2435 -0.0760  0.4975
   89MOL   H18617962   5.791   7.522   1.135 -2.0610  0.0425  1.0010
   89MOL   H18717963   5.870   7.547   1.289 -1.4289 -1.4478 -0.2304
   89MOL   H18817964   5.594   7.648   1.203 -1.9609 -0.8553  2.8042
   89MOL   H18917965   5.726   7.592   1.473 -0.1285  0.4446 -0.2909
   89MOL   H19017966   5.475   7.574   1.499 -1.2385  0.0941 -0.8835
   89MOL   H19117967   5.457   7.709   1.386 -0.3859  0.0108  1.0836
   89MOL   C19217968   5.542   7.769   1.574 -0.3976 -0.2671  0.2064
   89MOL   C19317969   5.644   7.874   1.546  0.2854 -0.3264 -0.1993
   89MOL   C19417970   5.725   7.932   1.634  0.0844 -0.1229  0.3080
   89MOL   C19517971   5.823   0.068   1.596 -0.0387 -0.0351  0.1153
   89MOL   H19617972   5.444   7.816   1.581  0.7753  2.8128 -2.6765
   89MOL   H19717973   5.559   7.716   1.668  0.5642 -0.4687 -0.0760
   89MOL   H19817974   5.644   7.913   1.445 -1.5671  0.8693  0.2270
   89MOL   H19917975   5.723   7.902   1.738 -0.7652 -1.6867 -0.1458
   89MOL   H20017976   5.812   0.149   1.668  0.2539 -0.1575  0.2956
   89MOL   H20117977   5.818   0.112   1.496  0.5629 -0.3324 -0.0500
   89MOL   H20217978   5.926   0.037   1.609  0.9749  1.6623 -3.0979
   90MOL     C117979   0.904   5.322   2.775 -0.0981  0.6745 -0.0417
   90MOL     C217980   0.947   5.464   2.782 -0.3201  0.1664 -0.4314
   90MOL     C317981   1.072   5.507   2.797  0.1753  0.5703 -0.1150
   90MOL     C417982   1.110   5.655   2.796  0.0979 -0.4667 -0.3060
   90MOL     H517983   0.861   5.296   2.678 -0.9016  0.2652  0.4173
   90MOL     H617984   0.831   5.301   2.853  0.3848 -1.3265 -0.0943
   90MOL     H717985   0.862   5.530   2.786 -0.1321  0.3434  0.8487
   90MOL     H817986   1.155   5.440   2.813 -0.1290  0.0345 -0.7641
   90MOL     H917987   1.016   5.711   2.791  0.3872  0.0513  0.0868
   90MOL    H1017988   1.150   5.675   2.696 -0.0584 -1.0853 -0.4978
   90MOL    H1117989   0.989   5.253   2.773 -0.9307 -0.3162 -1.4185
   90MOL    C1217990   1.205   5.690   2.914 -0.1611  0.0595 -0.6354
   90MOL    C1317991   1.243   5.843   2.904  0.2940 -0.4348  0.2793
   90MOL    C1417992   1.367   5.896   2.906  0.1649 -0.1258 -0.3239
   90MOL    C1517993   1.385   6.044   2.925 -0.1146  0.2404 -0.2551
   90MOL    H1617994   1.161   5.661   3.009 -0.9696  0.6382 -0.8336
   90MOL    H1717995   1.301   5.639   2.919  0.1884  0.8451  0.9897
   90MOL    H1817996   1.156   5.908   2.914  0.1390 -0.5922 -0.0608
   90MOL    H1917997   1.453   5.832   2.894  1.1659  0.5408  2.9827
   90MOL    H2017998   1.441   6.067   3.016 -1.8702  1.7360  0.4683
   90MOL    H2117999   1.283   6.078   2.943 -1.1576 -2.4304 -0.8859
   90MOL    C2218000   1.439   6.113   2.802 -0.9619  0.0510 -0.8982
   90MOL    C2318001   1.586   6.084   2.765 -0.0949 -0.7242 -0.1120
   90MOL    C2418002   1.620   6.046   2.642 -0.3292  0.4793  0.1780
   90MOL    C2518003   1.763   6.031   2.598 -0.4852  0.5970  0.1456
   90MOL    H2618004   1.375   6.095   2.715  1.3597 -1.0655 -2.4036
   90MOL    H2718005   1.430   6.220   2.819  1.2904  0.1615 -0.2422
   90MOL    H2818006   1.661   6.091   2.842 -1.1675 -0.6521  0.9380
   90MOL    H2918007   1.548   6.028   2.563  1.6194 -1.6393 -1.2141
   90MOL    H3018008   1.810   5.954   2.660 -0.9305  0.9128  0.8816
   90MOL    H3118009   1.816   6.121   2.627  1.0967  0.1471 -1.2436
   90MOL    C3218010   1.768   5.996   2.442  0.4756  0.2044  0.0080
   90MOL    C3318011   1.903   5.979   2.386  0.6449  0.2622  0.0475
   90MOL    C3418012   1.941   5.864   2.333  0.1763 -0.7060  0.1639
   90MOL    C3518013   2.070   5.834   2.270 -0.6222  0.3230  0.4725
   90MOL    H3618014   1.698   5.913   2.430 -1.2443  1.5325  0.6102
   90MOL    H3718015   1.740   6.082   2.380 -1.2598  0.8256  1.5895
   90MOL    H3818016   1.969   6.064   2.391 -0.7737  1.4259 -0.8040
   90MOL    H3918017   1.867   5.785   2.332 -0.4570 -0.1169 -0.9495
   90MOL    H4018018   2.134   5.778   2.339 -3.1217 -2.9504  0.2552
   90MOL    H4118019   2.116   5.932   2.254 -0.0081  0.1294  1.0244
   90MOL    C4218020   2.061   5.768   2.130  0.7792  0.2383  0.2134
   90MOL    C4318021   2.193   5.769   2.061  0.4796  0.0456 -0.2329
   90MOL    C4418022   2.210   5.839   1.947  1.0259  0.1080 -0.2047
   90MOL    C4518023   2.349   5.868   1.889 -0.4104  0.2309 -0.6973
   90MOL    H4618024   2.025   5.667   2.146 -0.4612  0.4792 -0.9129
   90MOL    H4718025   1.991   5.811   2.058  1.5085  1.1283  0.0169
   90MOL    H4818026   2.283   5.745   2.117  0.0469  0.4716  0.6618
   90MOL    H4918027   2.126   5.888   1.899  0.9924 -0.0949 -0.3516
   90MOL    H5018028   2.354   5.798   1.805  0.0591 -0.6261  0.0505
   90MOL    H5118029   2.431   5.828   1.948 -0.4543  0.4378 -0.4915
   90MOL    C5218030   2.381   6.014   1.861 -0.0499  0.0667  0.4790
   90MOL    C5318031   2.511   6.051   1.789 -0.0668  0.3698 -0.4106
   90MOL    C5418032   2.609   5.970   1.753  0.5902 -0.1495 -0.2486
   90MOL    C5518033   2.738   6.012   1.684  0.4110 -0.2335 -0.7163
   90MOL    H5618034   2.296   6.067   1.818 -0.3139  0.5563  1.5853
   90MOL    H5718035   2.379   6.061   1.960 -1.2546  0.0326  0.4811
   90MOL    H5818036   2.520   6.157   1.770 -2.2664  0.2637 -2.3369
   90MOL    H5918037   2.594   5.864   1.770  2.2905 -0.2009  1.0252
   90MOL    H6018038   2.728   6.119   1.663  1.1700 -0.0837 -0.3548
   90MOL    H6118039   2.750   5.954   1.593 -1.2397  1.2013 -1.8881
   90MOL    C6218040   2.864   5.998   1.772 -0.1356  0.4986 -0.5917
   90MOL    C6318041   2.990   6.023   1.688  0.2611  0.7947  0.1485
   90MOL    C6418042   3.049   5.924   1.614  0.0902 -0.6501 -0.0605
   90MOL    C6518043   3.177   5.941   1.540 -0.7883 -0.0390 -0.3217
   90MOL    H6618044   2.862   6.053   1.866  2.3911  0.2491 -0.3810
   90MOL    H6718045   2.868   5.893   1.800 -0.7770  0.6164 -0.0505
   90MOL    H6818046   3.048   6.114   1.701  2.1587 -0.6745  2.3305
   90MOL    H6918047   2.998   5.829   1.613  0.5323 -0.8904 -1.1515
   90MOL    H7018048   3.249   5.870   1.583 -1.1992 -0.4435 -0.2946
   90MOL    H7118049   3.221   6.039   1.558 -2.9481  0.9357 -0.2835
   90MOL    C7218050   3.166   5.914   1.390 -0.1216  0.4605  0.1565
   90MOL    C7318051   3.296   5.924   1.322 -0.1411  0.3553  0.2380
   90MOL    C7418052   3.374   5.816   1.282 -0.1246 -0.2552 -0.2961
   90MOL    C7518053   3.510   5.829   1.223  0.8915  0.6401  0.3591
   90MOL    H7618054   3.126   5.814   1.371 -0.5430  0.6139  0.2218
   90MOL    H7718055   3.101   5.990   1.349  0.8812  1.8383  1.0629
   90MOL    H7818056   3.328   6.024   1.300 -1.6467  0.4830 -1.4921
   90MOL    H7918057   3.346   5.714   1.306  1.5323 -1.0399 -1.5673
   90MOL    H8018058   3.587   5.778   1.281  0.2420  1.2242  1.7653
   90MOL    H8118059   3.547   5.932   1.234  0.1674  1.0535 -0.9391
   90MOL    C8218060   3.510   5.780   1.068  0.9077  0.3012 -0.0956
   90MOL    C8318061   3.641   5.730   1.017 -0.0244  0.2707  0.0585
   90MOL    C8418062   3.653   5.634   0.923 -0.3343 -0.1205 -0.1127
   90MOL    C8518063   3.787   5.614   0.864  0.3347 -0.5621 -0.2301
   90MOL    H8618064   3.436   5.701   1.060 -0.6458  1.6374  0.6800
   90MOL    H8718065   3.476   5.856   0.997  2.0683 -0.2915 -1.3173
   90MOL    H8818066   3.728   5.792   1.036  1.2098 -2.5920  4.3341
   90MOL    H8918067   3.571   5.571   0.892 -0.0845 -0.7525  0.5181
   90MOL    H9018068   3.868   5.683   0.885 -0.6293  0.8046 -0.9486
   90MOL    H9118069   3.768   5.624   0.757 -1.2378  1.9147  0.2414
   90MOL    C9218070   3.834   5.469   0.893  0.2697 -0.1901 -0.5876
   90MOL    C9318071   3.742   5.358   0.850 -0.3929  0.2908  0.1491
   90MOL    C9418072   3.761   5.281   0.741  0.5008 -0.2736  0.0143
   90MOL    C9518073   3.660   5.184   0.680 -0.1138 -0.0090  1.0237
   90MOL    H9618074   3.926   5.463   0.836  0.2240 -0.0906 -0.6724
   90MOL    H9718075   3.855   5.447   0.998 -1.7717 -2.1405 -0.5377
   90MOL    H9818076   3.641   5.350   0.887 -0.5332  0.9944 -0.0858
   90MOL    H9918077   3.853   5.300   0.689 -0.8015  1.3721 -1.7729
   90MOL   H10018078   3.601   5.241   0.608 -0.3969  2.4615  3.1534
   90MOL   H10118079   3.585   5.150   0.751  2.2787 -0.9216  3.1845
   90MOL   C10218080   3.730   5.061   0.612 -0.3047  0.2796 -0.4512
   90MOL   C10318081   3.624   4.966   0.566  0.2143 -0.1529 -0.7148
   90MOL   C10418082   3.586   4.956   0.439 -0.1048 -0.9084 -0.0001
   90MOL   C10518083   3.482   4.856   0.402  0.0139 -0.3378  0.3439
   90MOL   H10618084   3.798   5.092   0.532  0.4536  0.4880  0.2635
   90MOL   H10718085   3.792   5.019   0.692 -0.7603  0.3734 -0.0455
   90MOL   H10818086   3.578   4.904   0.641  1.0553 -0.0926 -0.1426
   90MOL   H10918087   3.630   5.025   0.368 -1.0656  1.8242  1.9857
   90MOL   H11018088   3.383   4.894   0.424 -0.0689 -0.5315  0.3013
   90MOL   H11118089   3.487   4.769   0.467 -1.4384 -0.0268  0.8746
   90MOL   C11218090   3.500   4.820   0.253 -0.6292  0.0654 -0.2311
   90MOL   C11318091   3.407   4.712   0.206 -0.2817 -0.6998 -0.7878
   90MOL   C11418092   3.357   4.701   0.079  0.8406  0.8235 -0.2654
   90MOL   C11518093   3.255   4.600   0.041  1.1862 -0.0195  0.2066
   90MOL   H11618094   3.456   4.909   0.209  2.0990  1.0767 -0.9903
   90MOL   H11718095   3.598   4.809   0.206  0.7248 -0.1810  2.5273
   90MOL   H11818096   3.371   4.646   0.284  0.8779 -1.5352 -0.9497
   90MOL   H11918097   3.397   4.778   0.015  1.4451 -0.4317 -1.4302
   90MOL   H12018098   3.162   4.655   0.028  2.0564  1.5136  0.3703
   90MOL   H12118099   3.247   4.524   0.120 -0.4513 -0.2633 -0.1767
   90MOL   C12218100   3.290   4.529   7.890 -0.5410  0.7223  0.3099
   90MOL   C12318101   3.181   4.427   7.851  0.0784 -0.3052  0.4383
   90MOL   C12418102   3.114   4.429   7.736  0.3233  0.1821  0.2606
   90MOL   C12518103   3.014   4.322   7.700 -0.2511  0.3068  0.1724
   90MOL   H12618104   3.301   4.604   7.812 -2.0961 -1.1148 -1.7475
   90MOL   H12718105   3.390   4.485   7.890 -0.5285  0.7517  0.3620
   90MOL   H12818106   3.156   4.345   7.916 -0.2578 -1.3862 -1.0324
   90MOL   H12918107   3.125   4.500   7.655 -2.1878  0.6029  0.2340
   90MOL   H13018108   2.918   4.367   7.674  0.4617  1.6682 -0.1466
   90MOL   H13118109   2.983   4.279   7.796 -0.0599 -0.6228 -0.1716
   90MOL   C13218110   3.056   4.226   7.591  0.0846  0.6679 -0.4967
   90MOL   C13318111   2.958   4.124   7.554 -0.1747 -0.3347  0.7629
   90MOL   C13418112   2.954   3.990   7.591 -0.1158  0.5935 -0.1812
   90MOL   C13518113   2.858   3.890   7.537  0.0440  0.0813 -1.3492
   90MOL   H13618114   3.071   4.281   7.497 -3.0556 -1.1647 -2.1454
   90MOL   H13718115   3.151   4.180   7.621 -1.0365 -0.2773  1.6482
   90MOL   H13818116   2.873   4.163   7.499 -0.3006 -1.4889  0.1058
   90MOL   H13918117   3.027   3.949   7.659 -1.6485 -1.2056  0.4177
   90MOL   H14018118   2.777   3.955   7.502 -0.0481  0.6980 -0.0105
   90MOL   H14118119   2.811   3.822   7.608 -0.1239  0.2339 -1.3152
   90MOL   C14218120   2.921   3.807   7.427 -0.0429 -0.4438 -0.0873
   90MOL   C14318121   2.818   3.725   7.359  0.4365 -0.4048 -0.2451
   90MOL   C14418122   2.807   3.592   7.364  0.5317  0.1830  0.4934
   90MOL   C14518123   2.687   3.512   7.323  0.4547 -0.5977 -0.2352
   90MOL   H14618124   2.968   3.866   7.349  1.0237 -2.3133 -0.8935
   90MOL   H14718125   2.984   3.737   7.482 -1.4388 -0.4207  1.6170
   90MOL   H14818126   2.739   3.791   7.326  1.3186  2.5623  3.2924
   90MOL   H14918127   2.881   3.534   7.416 -1.9946 -0.4904  3.4466
   90MOL   H15018128   2.615   3.571   7.267  1.2945  0.5788 -0.0856
   90MOL   H15118129   2.634   3.472   7.409  3.0136 -0.4616  1.4398
   90MOL   C15218130   2.729   3.392   7.245  0.2389  0.4244 -0.2363
   90MOL   C15318131   2.610   3.315   7.191  0.1055 -0.6083  0.6436
   90MOL   C15418132   2.585   3.191   7.227 -0.0750  0.6795  0.6883
   90MOL   C15518133   2.461   3.112   7.185  0.4723  0.4359  0.1829
   90MOL   H15618134   2.790   3.423   7.160  0.1987  1.0530 -0.0388
   90MOL   H15718135   2.778   3.327   7.317  0.8765  0.0756 -0.9804
   90MOL   H15818136   2.545   3.366   7.123  1.1715  1.7534  1.3582
   90MOL   H15918137   2.656   3.147   7.296  1.5908 -0.0763 -1.4698
   90MOL   H16018138   2.464   3.139   7.079  0.6297  1.7754  0.5146
   90MOL   H16118139   2.374   3.160   7.229 -1.3731 -1.5678 -1.2098
   90MOL   C16218140   2.481   2.961   7.210  0.3736 -0.1260  0.2274
   90MOL   C16318141   2.476   2.924   7.358  0.3001 -0.4945  0.4100
   90MOL   C16418142   2.386   2.833   7.406 -0.5685  0.1307  0.7319
   90MOL   C16518143   2.377   2.804   7.550 -0.0638 -0.2975  0.8142
   90MOL   H16618144   2.411   2.899   7.153  0.7369 -0.4790  0.1623
   90MOL   H16718145   2.578   2.939   7.166  0.2975 -0.4183  0.2028
   90MOL   H16818146   2.546   2.977   7.421 -0.4803  2.3391 -1.0154
   90MOL   H16918147   2.314   2.790   7.339  0.2432 -0.6085  0.3149
   90MOL   H17018148   2.285   2.853   7.583 -0.0804 -0.1385  0.5324
   90MOL   H17118149   2.464   2.849   7.598 -0.4196 -0.2318  1.4167
   90MOL   C17218150   2.363   2.658   7.593 -0.4359 -0.5151 -0.4273
   90MOL   C17318151   2.367   2.654   7.745  0.6567 -0.4012 -0.6511
   90MOL   C17418152   2.449   2.578   7.822  0.3566 -0.4759 -0.0383
   90MOL   C17518153   2.453   2.560   7.973 -0.5379 -0.1119 -0.2208
   90MOL   H17618154   2.267   2.612   7.567 -2.2876  0.1411  4.6722
   90MOL   H17718155   2.444   2.598   7.550 -0.2847  0.0157 -0.8786
   90MOL   H17818156   2.293   2.722   7.786 -0.0306 -0.6277 -1.5098
   90MOL   H17918157   2.523   2.522   7.767 -0.1311  0.4939 -1.7090
   90MOL   H18018158   2.440   2.458   0.030 -0.7778  0.5059  1.6148
   90MOL   H18118159   2.363   2.608   0.034 -0.3082 -0.8281  1.2681
   90MOL   C18218160   2.581   2.620   0.059 -0.2541 -0.9308 -0.4542
   90MOL   C18318161   2.591   2.600   0.210 -0.0122  0.3406  0.5728
   90MOL   C18418162   2.503   2.535   0.286  0.8772 -0.3063 -0.4570
   90MOL   C18518163   2.523   2.484   0.430  0.0272  0.4220  0.4579
   90MOL   H18618164   2.670   2.572   0.018  0.2632  0.0718 -0.5140
   90MOL   H18718165   2.599   2.727   0.050 -0.2982 -0.5679  3.1724
   90MOL   H18818166   2.688   2.625   0.252 -0.1672 -0.3695  1.3759
   90MOL   H18918167   2.402   2.511   0.254 -0.1345 -0.2899  2.5247
   90MOL   H19018168   2.612   2.529   0.473  0.3939  0.9234 -0.8206
   90MOL   H19118169   2.542   2.377   0.430 -1.3969  0.1422 -1.7425
   90MOL   C19218170   2.407   2.526   0.528  0.2606  0.0177  0.2275
   90MOL   C19318171   2.262   2.499   0.487  0.1836  0.3255 -0.7362
   90MOL   C19418172   2.170   2.593   0.458 -0.8501 -0.5709  0.0248
   90MOL   C19518173   2.031   2.556   0.426 -0.0364  0.5372  1.1591
   90MOL   H19618174   2.434   2.476   0.621  0.1900  1.4589  1.0391
   90MOL   H19718175   2.399   2.630   0.560  0.3157  0.4291 -1.0515
   90MOL   H19818176   2.237   2.396   0.466 -1.1031  0.8819 -2.0232
   90MOL   H19918177   2.188   2.699   0.468  0.7906 -0.9157  0.9519
   90MOL   H20018178   1.962   2.640   0.425  1.9891  2.2636  0.4078
   90MOL   H20118179   1.983   2.479   0.486  0.1223  0.4791  1.2109
   90MOL   H20218180   2.040   2.527   0.321  1.5345 -1.4436  1.8093
   91MOL     C118181   7.477   2.613   3.587  0.8565 -0.5830  0.2780
   91MOL     C218182   7.612   2.659   3.613 -0.6468  1.1385  0.1832
   91MOL     C318183   7.647   2.727   3.721 -0.1593  0.2535 -0.4136
   91MOL     C418184   7.786   2.766   3.755 -0.9179  0.1919 -0.4190
   91MOL     H518185   7.447   2.551   3.672 -0.0611  1.0848  1.2063
   91MOL     H618186   7.470   2.554   3.496  0.1623 -0.6379  0.3599
   91MOL     H718187   7.680   2.626   3.537 -0.4080 -2.8659  2.0410
   91MOL     H818188   7.571   2.745   3.797  2.1428  2.7656  1.3726
   91MOL     H918189   7.804   2.873   3.742 -1.4980  0.3501  0.0435
   91MOL    H1018190   7.853   2.717   3.685  1.9837  1.8058  1.1271
   91MOL    H1118191   7.407   2.696   3.572  2.2137  0.4648 -0.3414
   91MOL    C1218192   7.828   2.716   3.894  0.1041  0.3782  0.2410
   91MOL    C1318193   0.000   2.727   3.923 -0.3066 -0.2918  0.4552
   91MOL    C1418194   0.084   2.822   3.870 -0.7762  1.1845 -0.2321
   91MOL    C1518195   0.232   2.833   3.908 -0.5273 -0.2921 -0.4744
   91MOL    H1618196   7.790   2.772   3.980 -0.5192 -1.3928  1.1585
   91MOL    H1718197   7.794   2.614   3.909  0.6440  0.2517  0.6611
   91MOL    H1818198   0.039   2.658   3.996 -1.0639  0.5308  1.6436
   91MOL    H1918199   0.048   2.883   3.789  1.3631  0.2059 -1.9791
   91MOL    H2018200   0.248   2.757   3.985  1.1756 -1.2627 -1.7391
   91MOL    H2118201   0.265   2.926   3.956 -0.7676  0.6476 -2.0784
   91MOL    C2218202   0.319   2.786   3.790  0.0362  0.1125 -0.3533
   91MOL    C2318203   0.470   2.764   3.825 -0.1070  0.1985 -0.4546
   91MOL    C2418204   0.521   2.645   3.856 -0.6127  0.3318 -0.0885
   91MOL    C2518205   0.663   2.624   3.892  0.4179 -0.3174 -0.2520
   91MOL    H2618206   0.277   2.700   3.737  0.7309 -0.2407 -0.3343
   91MOL    H2718207   0.318   2.858   3.708 -2.4216  1.4813  0.8044
   91MOL    H2818208   0.525   2.856   3.813 -1.5689  0.9081 -1.9876
   91MOL    H2918209   0.461   2.555   3.856 -1.5451  0.9350  1.3624
   91MOL    H3018210   0.666   2.587   3.994  1.4040  0.3726 -0.0220
   91MOL    H3118211   0.717   2.719   3.889  1.3126 -0.8694 -2.4534
   91MOL    C3218212   0.722   2.512   3.804  0.6112 -0.5282 -0.3982
   91MOL    C3318213   0.867   2.497   3.830 -0.3036 -0.5691  0.1401
   91MOL    C3418214   0.919   2.406   3.919 -0.1401 -0.2644  0.9749
   91MOL    C3518215   1.065   2.392   3.962 -0.3174 -0.0883 -0.5674
   91MOL    H3618216   0.665   2.426   3.837 -1.7037  1.3238  0.5630
   91MOL    H3718217   0.694   2.523   3.699 -0.1403  0.9838 -0.0537
   91MOL    H3818218   0.936   2.563   3.780 -0.2720 -0.2988  0.5359
   91MOL    H3918219   0.842   2.344   3.964  0.8740 -1.4811  1.0715
   91MOL    H4018220   1.070   2.426   4.065 -0.5893  1.9258 -1.1978
   91MOL    H4118221   1.128   2.460   3.905  0.2303  1.5121  1.8764
   91MOL    C4218222   1.121   2.249   3.958 -0.1007  0.9106  0.1715
   91MOL    C4318223   1.273   2.248   3.995 -0.4960 -0.1123 -0.1626
   91MOL    C4418224   1.329   2.134   4.036 -0.5356  0.2242 -0.2438
   91MOL    C4518225   1.477   2.137   4.078  0.1500  0.0067  0.2609
   91MOL    H4618226   1.061   2.193   4.028  0.3623 -0.4816 -0.5320
   91MOL    H4718227   1.113   2.196   3.863  0.5247 -1.5598  1.4618
   91MOL    H4818228   1.325   2.342   3.992  2.3587 -1.6448 -0.4710
   91MOL    H4918229   1.279   2.039   4.046  1.0487 -0.7406 -1.1465
   91MOL    H5018230   1.501   2.241   4.100 -1.4389  0.0933  1.6268
   91MOL    H5118231   1.530   2.089   3.996  0.4394 -1.2835  1.1950
   91MOL    C5218232   1.509   2.043   4.199 -0.8350 -0.1754  0.0449
   91MOL    C5318233   1.440   2.090   4.326  0.0781  0.2403 -0.4847
   91MOL    C5418234   1.495   2.155   4.432  0.3231  0.2667  0.4357
   91MOL    C5518235   1.425   2.213   4.557  0.1927 -0.0274 -0.0781
   91MOL    H5618236   1.485   1.939   4.178 -1.7230 -0.1707  1.0062
   91MOL    H5718237   1.617   2.056   4.209 -0.9362  1.4219 -0.7876
   91MOL    H5818238   1.333   2.077   4.323  0.0634  0.3963 -0.6341
   91MOL    H5918239   1.602   2.172   4.435  0.2865  0.4489  0.6818
   91MOL    H6018240   1.322   2.244   4.542  0.4177  0.4226 -0.7003
   91MOL    H6118241   1.476   2.300   4.596 -1.2116 -0.1689  2.1531
   91MOL    C6218242   1.419   2.110   4.663  0.1838  0.3943 -1.2579
   91MOL    C6318243   1.346   2.145   4.786  0.1315  0.2412  0.1719
   91MOL    C6418244   1.387   2.106   4.912 -0.5048  0.1573 -0.5498
   91MOL    C6518245   1.315   2.125   5.041 -0.1726  0.4327 -0.4355
   91MOL    H6618246   1.365   2.023   4.626 -0.6651  1.8833 -3.5907
   91MOL    H6718247   1.520   2.073   4.680  0.2269  1.4686  1.1156
   91MOL    H6818248   1.257   2.206   4.773 -0.5286 -1.1989 -2.4184
   91MOL    H6918249   1.479   2.049   4.912 -0.3403  0.4170  0.2120
   91MOL    H7018250   1.211   2.155   5.034 -1.1710 -2.0389  2.3433
   91MOL    H7118251   1.359   2.211   5.091 -1.0571 -0.7394  2.4799
   91MOL    C7218252   1.322   1.999   5.135  0.2650  0.6602  0.5384
   91MOL    C7318253   1.453   1.971   5.205  0.2778  0.5088  0.2228
   91MOL    C7418254   1.519   1.854   5.210 -0.4988  0.9023 -0.3362
   91MOL    C7518255   1.661   1.846   5.270  0.9186 -0.3497  0.4033
   91MOL    H7618256   1.246   2.013   5.212  1.9827  0.9378  2.2411
   91MOL    H7718257   1.288   1.912   5.079  1.0739 -1.2428  2.9049
   91MOL    H7818258   1.496   2.057   5.255  1.2389  0.7323 -0.9609
   91MOL    H7918259   1.478   1.773   5.151  1.3074 -0.5007  0.3022
   91MOL    H8018260   1.631   1.825   5.373 -0.6180  1.4105  0.3555
   91MOL    H8118261   1.717   1.940   5.269 -0.1576  0.3401  1.7770
   91MOL    C8218262   1.730   1.716   5.223 -0.5375 -0.2300 -0.3536
   91MOL    C8318263   1.861   1.673   5.294  0.8038 -0.8056  0.6155
   91MOL    C8418264   1.977   1.682   5.229  0.0770 -0.2903  0.2966
   91MOL    C8518265   2.112   1.654   5.294 -0.7290 -0.1214  0.7659
   91MOL    H8618266   1.669   1.627   5.240 -1.2114  0.1599 -0.6948
   91MOL    H8718267   1.735   1.724   5.114 -0.4921  0.5257 -0.2970
   91MOL    H8818268   1.844   1.638   5.395 -1.6982  0.7189  0.7770
   91MOL    H8918269   1.978   1.724   5.129  2.0764 -0.4805  0.2248
   91MOL    H9018270   2.091   1.581   5.372  0.3583 -0.5006  0.7056
   91MOL    H9118271   2.159   1.749   5.319 -0.3052  0.0887 -0.8182
   91MOL    C9218272   2.216   1.580   5.208 -0.2109  0.1460  0.0462
   91MOL    C9318273   2.255   1.672   5.094  0.1722  0.5961 -0.2432
   91MOL    C9418274   2.375   1.720   5.080  0.1340  0.0295 -0.3816
   91MOL    C9518275   2.409   1.828   4.979 -0.5187  0.1251 -0.9282
   91MOL    H9618276   2.303   1.551   5.266 -0.1356 -0.2896 -0.2818
   91MOL    H9718277   2.174   1.487   5.169 -0.6317 -0.4975  1.9785
   91MOL    H9818278   2.176   1.695   5.023 -0.0317  0.6722  0.0095
   91MOL    H9918279   2.453   1.695   5.151 -0.0188  1.4981  0.3294
   91MOL   H10018280   2.433   1.921   5.031  0.7114 -1.7207  1.9382
   91MOL   H10118281   2.322   1.850   4.918 -1.0122 -2.1378 -1.0840
   91MOL   C10218282   2.514   1.777   4.883 -0.4312  0.0746  0.6029
   91MOL   C10318283   2.552   1.889   4.795 -0.5603  0.0141  0.0897
   91MOL   C10418284   2.528   1.892   4.666  0.5717 -0.0694 -0.1160
   91MOL   C10518285   2.555   2.001   4.557 -0.0919 -0.4983 -0.5421
   91MOL   H10618286   2.594   1.739   4.946  0.1311  0.5823  0.2042
   91MOL   H10718287   2.478   1.684   4.838 -0.1526  0.8327 -1.2270
   91MOL   H10818288   2.600   1.974   4.841  0.1015 -0.3349  0.0475
   91MOL   H10918289   2.469   1.810   4.626 -0.4082  0.0943  0.9706
   91MOL   H11018290   2.609   1.953   4.476 -0.0646  0.6344 -1.2107
   91MOL   H11118291   2.620   2.082   4.591 -1.7092  1.4361 -1.9371
   91MOL   C11218292   2.430   2.063   4.506 -0.1475 -0.2558  0.7793
   91MOL   C11318293   2.464   2.186   4.424 -0.1182 -0.1792 -0.1151
   91MOL   C11418294   2.429   2.203   4.298 -0.0986 -0.6731 -0.3463
   91MOL   C11518295   2.463   2.325   4.213  0.6857 -0.0736 -0.3677
   91MOL   H11618296   2.388   1.984   4.444  0.4517 -1.0188  1.3407
   91MOL   H11718297   2.368   2.097   4.589 -1.6003  0.5258 -0.5954
   91MOL   H11818298   2.528   2.259   4.472  0.4608 -0.8693  0.1616
   91MOL   H11918299   2.367   2.131   4.247  0.8918 -2.1659  0.5105
   91MOL   H12018300   2.506   2.405   4.274 -0.1242  1.5732 -1.8867
   91MOL   H12118301   2.374   2.377   4.179  1.1899 -0.1464 -1.8144
   91MOL   C12218302   2.553   2.292   4.099  0.1447  0.7332 -0.0570
   91MOL   C12318303   2.609   2.416   4.035 -0.1668 -0.4743 -0.3130
   91MOL   C12418304   2.576   2.460   3.916  0.3711  0.1255  0.5294
   91MOL   C12518305   2.631   2.589   3.866 -0.3807 -0.1631 -0.2376
   91MOL   H12618306   2.640   2.243   4.142  0.0477  0.3502 -0.2919
   91MOL   H12718307   2.511   2.221   4.028  2.5479  0.4494 -1.2616
   91MOL   H12818308   2.679   2.470   4.097  0.3885 -1.4728 -0.0568
   91MOL   H12918309   2.504   2.405   3.857 -0.0365  0.6986  0.4837
   91MOL   H13018310   2.703   2.633   3.934 -0.6181 -1.4966  0.8948
   91MOL   H13118311   2.552   2.664   3.862  0.0798  0.3667  0.5308
   91MOL   C13218312   2.697   2.575   3.732 -0.2616  1.2253 -0.1555
   91MOL   C13318313   2.815   2.478   3.740  0.0287  0.9818  0.6703
   91MOL   C13418314   2.936   2.500   3.685  0.1862  0.0536 -0.0262
   91MOL   C13518315   3.056   2.406   3.696 -0.2260 -0.6942  0.5071
   91MOL   H13618316   2.627   2.523   3.666 -0.1079  1.7768 -0.7598
   91MOL   H13718317   2.722   2.673   3.691 -2.1673  2.5975  1.8723
   91MOL   H13818318   2.802   2.387   3.798  1.2082  0.7265  0.5402
   91MOL   H13918319   2.953   2.590   3.628 -1.8348  1.1609  1.0715
   91MOL   H14018320   3.097   2.399   3.595  0.7103 -0.2245  0.8542
   91MOL   H14118321   3.027   2.306   3.729 -0.7767 -0.7560 -0.1624
   91MOL   C14218322   3.163   2.475   3.783  0.1776  0.9411  0.4427
   91MOL   C14318323   3.292   2.395   3.773  0.5176  0.2622  0.2317
   91MOL   C14418324   3.353   2.339   3.881 -0.9631 -0.7193 -0.6433
   91MOL   C14518325   3.490   2.263   3.883  0.0755  0.2822 -0.5156
   91MOL   H14618326   3.182   2.578   3.752  1.4754  0.9322  1.1543
   91MOL   H14718327   3.131   2.486   3.887 -0.2937  0.9537  0.2971
   91MOL   H14818328   3.332   2.379   3.674  2.1666 -2.1265  1.2342
   91MOL   H14918329   3.304   2.345   3.977 -0.3039 -1.2038 -0.2673
   91MOL   H15018330   3.471   2.170   3.938  1.3336  0.2316 -0.1375
   91MOL   H15118331   3.544   2.316   3.961 -0.4111 -1.6683  1.1921
   91MOL   C15218332   3.562   2.253   3.750  0.3183  0.1385 -0.0543
   91MOL   C15318333   3.712   2.219   3.774 -0.3164 -0.3167 -0.1421
   91MOL   C15418334   3.768   2.106   3.735  0.6003 -0.1086 -0.1947
   91MOL   C15518335   3.912   2.060   3.770 -0.1389 -0.2809 -0.2317
   91MOL   H15618336   3.517   2.173   3.691  1.0595 -0.4316  0.1494
   91MOL   H15718337   3.548   2.349   3.701 -0.7929 -0.0517 -0.1319
   91MOL   H15818338   3.762   2.281   3.847 -1.7807  0.4448  0.2367
   91MOL   H15918339   3.706   2.041   3.676  0.8651 -1.7951  1.3394
   91MOL   H16018340   3.970   2.131   3.829 -0.0295 -0.1562 -0.4905
   91MOL   H16118341   3.965   2.049   3.676  0.6302 -1.9039  0.3558
   91MOL   C16218342   3.914   1.935   3.849  0.1270 -0.5734 -0.2938
   91MOL   C16318343   4.058   1.883   3.860  0.4697 -0.4312  0.2467
   91MOL   C16418344   4.130   1.879   3.978 -0.2822  0.2759  0.3910
   91MOL   C16518345   4.277   1.845   3.977  0.1578 -0.6461 -0.6939
   91MOL   H16618346   3.870   1.942   3.949 -0.2115 -1.3354 -0.3879
   91MOL   H16718347   3.848   1.865   3.798  0.0607  0.2698 -1.3807
   91MOL   H16818348   4.107   1.859   3.767  1.6368  3.2081 -0.1584
   91MOL   H16918349   4.091   1.900   4.076  0.8490 -2.7633  1.5451
   91MOL   H17018350   4.326   1.928   4.028  0.9427 -0.5000 -1.6867
   91MOL   H17118351   4.313   1.855   3.875  1.4281 -0.5204 -0.2374
   91MOL   C17218352   4.315   1.713   4.042  0.5418 -0.2772 -0.5671
   91MOL   C17318353   4.469   1.692   4.049  0.4520  0.5180  1.0480
   91MOL   C17418354   4.562   1.777   4.010 -0.4786  0.3520  0.3328
   91MOL   C17518355   4.716   1.765   4.016  0.8590 -0.2658 -0.1892
   91MOL   H17618356   4.283   1.714   4.146 -0.6085 -1.6721 -0.8782
   91MOL   H17718357   4.267   1.624   4.001  0.4288 -1.7038  2.5036
   91MOL   H17818358   4.483   1.600   4.103  1.4036 -1.8142 -2.9049
   91MOL   H17918359   4.535   1.871   3.964 -1.3367  0.5272  1.1695
   91MOL   H18018360   4.751   1.675   4.067 -0.7189  0.0628  1.4880
   91MOL   H18118361   4.749   1.848   4.079  0.4143  0.8971 -1.4624
   91MOL   C18218362   4.778   1.760   3.879  0.1508 -0.0850 -0.3485
   91MOL   C18318363   4.926   1.800   3.886 -0.3088  0.1269  0.5430
   91MOL   C18418364   4.974   1.899   3.812  0.6006 -0.5945 -0.0052
   91MOL   C18518365   5.113   1.963   3.825  0.5988  0.1248  0.7297
   91MOL   H18618366   4.767   1.655   3.852 -2.1984 -0.2213  0.9299
   91MOL   H18718367   4.722   1.821   3.809 -0.5946 -1.2363 -0.7733
   91MOL   H18818368   4.995   1.750   3.952 -2.6799 -1.6965  1.7312
   91MOL   H18918369   4.905   1.954   3.750 -0.2418  0.2813  1.6660
   91MOL   H19018370   5.164   1.930   3.916 -2.0770  0.1655  2.2761
   91MOL   H19118371   5.097   2.070   3.838  0.7271  0.4292 -1.4260
   91MOL   C19218372   5.212   1.934   3.708 -0.3078 -0.8136 -0.4941
   91MOL   C19318373   5.165   2.010   3.580  0.3488  0.3339  0.0787
   91MOL   C19418374   5.112   1.940   3.477 -0.3102  0.9251  0.1968
   91MOL   C19518375   5.042   2.012   3.360 -0.3694 -0.4346 -1.1471
   91MOL   H19618376   5.309   1.977   3.735 -0.9978 -0.2986  1.2516
   91MOL   H19718377   5.241   1.830   3.696 -1.2567 -1.2837  1.0590
   91MOL   H19818378   5.162   2.118   3.583  2.0885  0.4482 -1.4782
   91MOL   H19918379   5.106   1.833   3.489  0.3239  1.0442  1.6108
   91MOL   H20018380   5.070   2.116   3.348  1.4516 -0.7528  0.0238
   91MOL   H20118381   4.934   2.002   3.373 -0.1844 -1.7407 -0.4982
   91MOL   H20218382   5.065   1.955   3.269 -0.6373 -1.3597 -0.6474
   92MOL     C118383   7.892   4.315   5.879 -0.4937 -0.1102  0.1388
   92MOL     C218384   0.007   4.390   5.790 -0.8657  0.3395 -0.3279
   92MOL     C318385   0.071   4.336   5.686 -0.5511 -0.2525 -0.1420
   92MOL     C418386   0.135   4.428   5.588 -0.6061  1.0974 -0.1078
   92MOL     H518387   7.905   4.207   5.869  0.5493  0.1811 -1.8583
   92MOL     H618388   7.787   4.331   5.854 -0.6498 -1.4200 -0.0717
   92MOL     H718389   7.976   4.497   5.791 -1.4039  0.3057 -1.0641
   92MOL     H818390   0.069   4.229   5.672  2.4880 -0.3416 -0.3434
   92MOL     H918391   0.140   4.531   5.623 -0.3301  0.9389  0.3199
   92MOL    H1018392   0.068   4.425   5.502 -0.7020 -0.2133 -0.0102
   92MOL    H1118393   7.906   4.348   5.982  1.4387  2.5159 -0.9116
   92MOL    C1218394   0.269   4.390   5.543  0.8715  0.1073  0.4340
   92MOL    C1318395   0.328   4.488   5.445  0.1266  0.4766 -0.2825
   92MOL    C1418396   0.371   4.468   5.317  0.0733  0.5507 -0.1871
   92MOL    C1518397   0.423   4.581   5.224 -1.0188 -0.0849 -0.8250
   92MOL    H1618398   0.331   4.393   5.632  1.8469 -0.9044 -0.2066
   92MOL    H1718399   0.266   4.295   5.491  0.2172  1.2776 -1.7477
   92MOL    H1818400   0.321   4.590   5.480 -1.8914 -0.3044  1.7823
   92MOL    H1918401   0.382   4.367   5.278 -0.1011  0.6002 -0.3660
   92MOL    H2018402   0.520   4.559   5.180 -0.0398  3.6289 -0.7290
   92MOL    H2118403   0.448   4.659   5.296  1.8235 -1.3156 -0.4193
   92MOL    C2218404   0.327   4.635   5.118 -0.1806 -0.1290 -0.3286
   92MOL    C2318405   0.387   4.765   5.066  1.1898  0.8169  0.2305
   92MOL    C2418406   0.429   4.787   4.942  0.3474  0.3426  0.7492
   92MOL    C2518407   0.476   4.927   4.899  0.4589  0.0724 -0.0044
   92MOL    H2618408   0.322   4.557   5.041 -0.8028 -2.0478  1.6171
   92MOL    H2718409   0.227   4.645   5.158 -0.6617 -0.3014 -1.4749
   92MOL    H2818410   0.393   4.848   5.135 -0.0769  0.2502  1.0493
   92MOL    H2918411   0.432   4.712   4.865 -1.6706  0.3738  0.6039
   92MOL    H3018412   0.576   4.954   4.934  0.9849 -0.5229 -1.0092
   92MOL    H3118413   0.415   5.007   4.941  2.3422  0.8553  1.3078
   92MOL    C3218414   0.494   4.936   4.744 -0.1452  0.0392  0.3099
   92MOL    C3318415   0.549   5.073   4.686  0.3811 -0.5560 -0.0233
   92MOL    C3418416   0.478   5.163   4.618 -0.0968  0.9933 -0.3328
   92MOL    C3518417   0.530   5.293   4.556  0.5505 -0.2820 -0.0330
   92MOL    H3618418   0.555   4.855   4.704 -1.2412 -1.0274  0.7527
   92MOL    H3718419   0.399   4.925   4.692 -0.0944  2.1824 -0.2988
   92MOL    H3818420   0.655   5.091   4.691  0.2154  0.4398  0.0365
   92MOL    H3918421   0.371   5.151   4.604  0.0187 -0.6260  0.1142
   92MOL    H4018422   0.639   5.291   4.559  0.6010  1.8793  0.5554
   92MOL    H4118423   0.494   5.373   4.620 -0.0970  0.5629 -1.4355
   92MOL    C4218424   0.470   5.313   4.416  0.4020  0.4476  0.7917
   92MOL    C4318425   0.524   5.436   4.354 -0.1674  0.1381 -0.1290
   92MOL    C4418426   0.546   5.462   4.226 -0.3230  0.1273  0.4359
   92MOL    C4518427   0.604   5.590   4.167 -0.6235 -0.1014 -0.1141
   92MOL    H4618428   0.501   5.231   4.351 -2.2256 -1.6766  2.1114
   92MOL    H4718429   0.362   5.322   4.429  0.2005 -1.7283  0.7896
   92MOL    H4818430   0.566   5.511   4.419 -1.3206  0.4749  0.2438
   92MOL    H4918431   0.536   5.382   4.155  0.7798 -3.4761  4.1054
   92MOL    H5018432   0.671   5.549   4.091  0.5474 -1.5397  1.6605
   92MOL    H5118433   0.677   5.637   4.233  0.0879 -0.3875 -0.6932
   92MOL    C5218434   0.504   5.691   4.109  0.4976 -0.0176 -0.5130
   92MOL    C5318435   0.576   5.780   4.006 -0.2345  0.2622 -0.2141
   92MOL    C5418436   0.610   5.908   4.029  0.5673  0.1800  0.7195
   92MOL    C5518437   0.654   5.992   3.904 -0.1979 -0.5481  0.4002
   92MOL    H5618438   0.418   5.638   4.067  0.5931 -1.8699  1.4913
   92MOL    H5718439   0.466   5.745   4.195 -1.1378 -0.2524 -1.0652
   92MOL    H5818440   0.569   5.732   3.909 -2.3957  2.0019 -0.9318
   92MOL    H5918441   0.601   5.957   4.125  0.6269  2.1954 -0.2709
   92MOL    H6018442   0.678   5.927   3.820  1.0107  0.6186 -0.1953
   92MOL    H6118443   0.747   6.045   3.926 -0.0413 -0.1203 -1.2182
   92MOL    C6218444   0.548   6.093   3.873  0.4699  0.4802 -0.8496
   92MOL    C6318445   0.533   6.196   3.984  0.1762  0.1969 -0.4862
   92MOL    C6418446   0.427   6.196   4.073 -0.6438 -0.1663  1.1076
   92MOL    C6518447   0.410   6.292   4.187  0.1070 -0.3428 -0.1425
   92MOL    H6618448   0.578   6.141   3.780  1.5628 -0.7925 -1.1520
   92MOL    H6718449   0.448   6.049   3.869 -0.3633  2.0138  2.0036
   92MOL    H6818450   0.616   6.265   3.993 -0.6812  1.1827  0.1234
   92MOL    H6918451   0.345   6.127   4.063  0.9542 -2.1444  1.2393
   92MOL    H7018452   0.340   6.367   4.150 -0.9354 -0.5396  1.3648
   92MOL    H7118453   0.503   6.344   4.208  0.5333 -0.8316 -0.8353
   92MOL    C7218454   0.353   6.225   4.316 -0.0348  0.1393  0.4808
   92MOL    C7318455   0.221   6.147   4.298 -0.8796  0.8438 -0.1715
   92MOL    C7418456   0.196   6.027   4.351  0.4528  0.2966  0.0929
   92MOL    C7518457   0.054   5.951   4.338 -0.3737 -0.2315 -0.3265
   92MOL    H7618458   0.423   6.153   4.361 -1.9356 -2.1929 -0.1949
   92MOL    H7718459   0.330   6.300   4.391 -1.1174 -0.5503  0.8609
   92MOL    H7818460   0.141   6.195   4.244  0.6519  1.3752 -1.9957
   92MOL    H7918461   0.265   5.980   4.419  0.7623 -1.6891 -1.5290
   92MOL    H8018462   0.057   5.891   4.429 -1.4601 -0.6770 -0.5799
   92MOL    H8118463   0.067   5.882   4.255  0.0859 -0.3195 -0.1831
   92MOL    C8218464   7.900   6.035   4.347 -0.1328 -0.8564  0.2356
   92MOL    C8318465   7.771   5.955   4.345 -0.1587 -0.2779 -0.0869
   92MOL    C8418466   7.766   5.833   4.291 -0.1033  0.0654  0.3183
   92MOL    C8518467   7.643   5.767   4.260  0.0971 -0.0985  0.0222
   92MOL    H8618468   7.897   6.104   4.431  0.4941  1.1225 -1.3014
   92MOL    H8718469   7.887   6.088   4.252  0.8520 -0.5416  0.2646
   92MOL    H8818470   7.680   6.010   4.359 -0.6137 -0.3149 -2.6945
   92MOL    H8918471   7.848   5.783   4.242 -1.1453 -1.7988  0.4190
   92MOL    H9018472   7.551   5.821   4.280 -0.1328 -0.2405 -0.6503
   92MOL    H9118473   7.630   5.683   4.328 -1.1741  0.1137  0.0476
   92MOL    C9218474   7.633   5.704   4.120 -0.3116 -0.2683  0.2908
   92MOL    C9318475   7.714   5.578   4.103 -0.6390  0.3629  0.1438
   92MOL    C9418476   7.670   5.470   4.044 -0.4737  0.1472  0.3633
   92MOL    C9518477   7.739   5.342   4.040  0.1184 -0.1211  0.0476
   92MOL    H9618478   7.534   5.669   4.093  0.0214  0.2529 -1.6276
   92MOL    H9718479   7.652   5.778   4.043 -0.2883 -1.3647 -0.7742
   92MOL    H9818480   7.811   5.591   4.148 -0.1211  2.8484 -1.5584
   92MOL    H9918481   7.575   5.468   3.993 -1.8359 -4.7850  2.7517
   92MOL   H10018482   7.835   5.342   4.092 -0.2475  1.7379  0.7897
   92MOL   H10118483   7.765   5.323   3.936 -0.9010  0.5742 -0.3408
   92MOL   C10218484   7.646   5.230   4.084  0.6231 -0.2258  0.1679
   92MOL   C10318485   7.647   5.200   4.233  0.6610  0.9330 -0.8577
   92MOL   C10418486   7.539   5.201   4.318  0.5331 -0.4691  0.3059
   92MOL   C10518487   7.545   5.163   4.465  0.2588  0.0121 -0.1918
   92MOL   H10618488   7.547   5.243   4.041 -0.3454  0.8190  2.6218
   92MOL   H10718489   7.684   5.138   4.039 -0.3080 -0.5594  0.0590
   92MOL   H10818490   7.745   5.191   4.277  0.3656  0.2388 -0.3380
   92MOL   H10918491   7.443   5.210   4.270  1.0838 -1.4118 -1.0171
   92MOL   H11018492   7.646   5.139   4.497  0.5972 -1.2475 -2.0962
   92MOL   H11118493   7.500   5.064   4.472 -0.8713  0.5850  0.7135
   92MOL   C11218494   7.468   5.262   4.548  0.0117 -0.3341 -0.3560
   92MOL   C11318495   7.535   5.397   4.537 -0.1428  0.4024 -0.6370
   92MOL   C11418496   7.565   5.463   4.653 -0.1213 -0.0749  0.2795
   92MOL   C11518497   7.621   5.607   4.662 -0.0338  0.1554 -0.1065
   92MOL   H11618498   7.370   5.274   4.501 -0.5807 -0.9188  0.7053
   92MOL   H11718499   7.437   5.233   4.648  0.2880 -0.7893 -0.4020
   92MOL   H11818500   7.547   5.449   4.443 -0.5975  3.3244  0.8734
   92MOL   H11918501   7.564   5.397   4.739 -1.9726 -1.2130 -0.5791
   92MOL   H12018502   7.623   5.655   4.563  0.9200  0.7304  0.1874
   92MOL   H12118503   7.727   5.605   4.688  0.2078  1.6593 -0.9002
   92MOL   C12218504   7.550   5.708   4.754  0.2928 -0.6342  0.2501
   92MOL   C12318505   7.641   5.825   4.752  0.2931 -0.0435  0.5519
   92MOL   C12418506   7.620   5.938   4.684 -0.4763 -0.1026  0.9440
   92MOL   C12518507   7.722   6.051   4.694 -0.0625 -0.3627  0.3909
   92MOL   H12618508   7.452   5.733   4.714 -0.6994 -0.9752  2.4255
   92MOL   H12718509   7.533   5.673   4.856 -0.1274 -0.9995  0.0572
   92MOL   H12818510   7.734   5.810   4.805  1.0962 -0.7585 -1.0307
   92MOL   H12918511   7.533   5.951   4.621  1.3383  0.6578 -1.4957
   92MOL   H13018512   7.774   6.058   4.598  0.2272 -0.2475  0.5566
   92MOL   H13118513   7.807   6.021   4.755  1.1149 -1.8651 -1.8795
   92MOL   C13218514   7.668   6.185   4.734  0.5463  1.1880  0.4174
   92MOL   C13318515   7.764   6.293   4.706  0.0769 -0.2893  0.6385
   92MOL   C13418516   7.783   6.339   4.582  0.3744  0.1737  0.2375
   92MOL   C13518517   7.877   6.446   4.537  0.8335  0.3411 -0.9922
   92MOL   H13618518   7.580   6.211   4.675  0.4801  0.7601  0.3264
   92MOL   H13718519   7.635   6.192   4.838 -1.2451  0.9354 -0.1211
   92MOL   H13818520   7.809   6.345   4.789  0.1339 -0.9708  1.0310
   92MOL   H13918521   7.730   6.288   4.503 -1.8261  1.3530  0.9054
   92MOL   H14018522   7.902   6.506   4.625 -0.9173 -0.0206 -0.2451
   92MOL   H14118523   7.819   6.507   4.468  1.1095  0.4364 -1.1443
   92MOL   C14218524   0.025   6.404   4.450 -0.0840 -0.3743  0.3024
   92MOL   C14318525   0.154   6.486   4.484 -0.3869  0.0643  0.1788
   92MOL   C14418526   0.212   6.572   4.402  0.2242  0.4755  0.6986
   92MOL   C14518527   0.339   6.652   4.436 -0.7612 -0.3573 -0.2995
   92MOL   H14618528   0.056   6.305   4.483  1.0389  0.2680  1.2048
   92MOL   H14718529   0.002   6.407   4.343  0.1206  1.0876  0.2909
   92MOL   H14818530   0.205   6.471   4.578  0.9815  0.1798 -0.5243
   92MOL   H14918531   0.169   6.591   4.305  0.3775  2.0942  0.9272
   92MOL   H15018532   0.373   6.628   4.536  1.4992 -0.7745 -1.1193
   92MOL   H15118533   0.325   6.759   4.429  1.5535 -0.0788 -1.4256
   92MOL   C15218534   0.454   6.611   4.345 -0.1311 -0.2042  0.4308
   92MOL   C15318535   0.574   6.688   4.392 -0.7831  0.3922  0.0928
   92MOL   C15418536   0.684   6.621   4.439 -0.1011 -0.1014 -0.1919
   92MOL   C15518537   0.807   6.678   4.510 -0.6680 -0.4542 -0.0111
   92MOL   H15618538   0.482   6.505   4.348  1.0395  0.0979  0.4354
   92MOL   H15718539   0.433   6.648   4.245  2.2718 -0.2132 -0.1030
   92MOL   H15818540   0.582   6.795   4.382  0.8685  0.3280  0.6845
   92MOL   H15918541   0.677   6.513   4.444  1.8318 -0.3013 -1.2430
   92MOL   H16018542   0.799   6.787   4.508  0.1483 -0.3269  2.0262
   92MOL   H16118543   0.903   6.662   4.460  2.4768 -0.0824  5.4835
   92MOL   C16218544   0.809   6.625   4.652 -0.2319  0.8497 -0.2734
   92MOL   C16318545   0.890   6.695   4.756 -0.0061  0.0246  0.3704
   92MOL   C16418546   0.855   6.746   4.878 -0.0336  0.8742  0.1625
   92MOL   C16518547   0.950   6.825   4.964 -0.7550  0.3375  0.5211
   92MOL   H16618548   0.706   6.617   4.687 -0.5765  2.4558 -0.8771
   92MOL   H16718549   0.846   6.523   4.649  0.1677  0.8689  2.3998
   92MOL   H16818550   0.989   6.716   4.718 -0.2939  1.6912  0.4985
   92MOL   H16918551   0.755   6.732   4.917  0.5823 -1.3638  1.0236
   92MOL   H17018552   0.901   6.917   4.995  2.0948  1.6175  1.2900
   92MOL   H17118553   1.031   6.854   4.897 -2.2222 -0.5963 -1.7574
   92MOL   C17218554   0.998   6.738   5.080  0.2748 -0.1346 -1.0638
   92MOL   C17318555   1.111   6.802   5.162  0.0733 -0.0557  0.6790
   92MOL   C17418556   1.240   6.768   5.152  1.1910 -0.1256 -0.0423
   92MOL   C17518557   1.346   6.837   5.222  0.5568 -0.1202 -0.0684
   92MOL   H17618558   0.920   6.728   5.156  0.9563  0.1048 -0.3165
   92MOL   H17718559   1.039   6.643   5.046  1.5035 -0.3878  0.9872
   92MOL   H17818560   1.097   6.877   5.238  2.2421  0.7862  0.2821
   92MOL   H17918561   1.267   6.697   5.075  3.3157  0.5334  0.0714
   92MOL   H18018562   1.317   6.936   5.257  0.6829  0.1844 -0.8018
   92MOL   H18118563   1.429   6.851   5.153  1.8696  2.3424  1.9081
   92MOL   C18218564   1.388   6.747   5.344 -0.1542 -0.0390 -0.6022
   92MOL   C18318565   1.500   6.813   5.422  0.8510  0.4031 -0.1686
   92MOL   C18418566   1.480   6.886   5.531 -0.7311  0.0033 -1.0583
   92MOL   C18518567   1.588   6.962   5.596 -0.1718  0.1003  0.1267
   92MOL   H18618568   1.298   6.735   5.405  1.1584 -0.2690  1.3413
   92MOL   H18718569   1.413   6.648   5.305  1.7680  0.1603  0.0663
   92MOL   H18818570   1.593   6.798   5.369  1.1671 -1.6797  0.8992
   92MOL   H18918571   1.379   6.892   5.569 -0.3584  1.0047 -0.2083
   92MOL   H19018572   1.627   7.040   5.531  0.3473 -0.6125 -0.4196
   92MOL   H19118573   1.678   6.905   5.621 -0.1575  0.7283  1.5299
   92MOL   C19218574   1.536   7.022   5.723  0.0029 -0.2248 -0.2433
   92MOL   C19318575   1.655   7.049   5.819  0.6985  0.4631  0.2530
   92MOL   C19418576   1.693   6.984   5.928  0.1327  0.8321  0.3408
   92MOL   C19518577   1.816   7.020   6.012 -0.2140 -0.1584  0.3953
   92MOL   H19618578   1.485   7.116   5.705  0.8330  0.4602  0.9450
   92MOL   H19718579   1.472   6.951   5.776 -0.7056  0.3107 -0.3766
   92MOL   H19818580   1.703   7.144   5.797  0.0016  0.7191 -0.2101
   92MOL   H19918581   1.635   6.895   5.951 -1.5796  1.0200 -2.9839
   92MOL   H20018582   1.814   6.996   6.118  0.7843  1.9592  0.9117
   92MOL   H20118583   1.845   7.123   5.993  1.2115 -0.3747  1.3435
   92MOL   H20218584   1.898   6.966   5.964 -1.1353 -0.8298 -0.4362
   93MOL     C118585   1.932   0.520   4.079 -0.2439  0.3347  0.2723
   93MOL     C218586   2.024   0.465   3.974 -0.1726 -0.6582  0.2038
   93MOL     C318587   2.092   0.544   3.886  0.2860  0.0666 -0.1239
   93MOL     C418588   2.166   0.487   3.766  0.3471 -0.2047 -0.5650
   93MOL     H518589   1.897   0.620   4.050 -1.4391 -0.1802 -0.0875
   93MOL     H618590   1.984   0.533   4.174  0.3212  1.1779 -0.1372
   93MOL     H718591   2.028   0.358   3.966  0.3802 -0.6897  0.8089
   93MOL     H818592   2.087   0.651   3.906  0.5130  0.0203  0.1812
   93MOL     H918593   2.101   0.481   3.679 -2.4376  0.5066  1.3753
   93MOL    H1018594   2.185   0.380   3.776 -1.9987 -0.4770  1.7059
   93MOL    H1118595   1.853   0.450   4.106 -0.8638  1.0980  0.4445
   93MOL    C1218596   2.300   0.563   3.738  0.2019 -0.4486 -0.0247
   93MOL    C1318597   2.283   0.710   3.690  0.2494  0.4363  0.7582
   93MOL    C1418598   2.175   0.777   3.664  0.1420 -0.0688  0.0397
   93MOL    C1518599   2.176   0.921   3.623  0.7702  0.6222 -0.3088
   93MOL    H1618600   2.364   0.576   3.826  1.4273 -0.8194 -0.8458
   93MOL    H1718601   2.361   0.509   3.665 -0.4760  1.1897 -1.8341
   93MOL    H1818602   2.377   0.763   3.686  0.9241 -0.8267 -0.6158
   93MOL    H1918603   2.078   0.730   3.653  0.0228 -0.2742  1.8456
   93MOL    H2018604   2.280   0.946   3.602  0.6991  1.7073  0.5620
   93MOL    H2118605   2.136   0.990   3.697  0.5649 -0.6114  0.7523
   93MOL    C2218606   2.078   0.954   3.506 -0.3204 -0.0519  0.0214
   93MOL    C2318607   2.084   1.098   3.463 -0.0691  0.6770  0.1073
   93MOL    C2418608   1.989   1.186   3.488 -0.0431 -0.2093  0.1112
   93MOL    C2518609   2.000   1.336   3.454  0.6642  0.6940 -0.3113
   93MOL    H2618610   2.089   0.892   3.418  1.0967  0.5990 -0.2794
   93MOL    H2718611   1.977   0.937   3.542 -0.9712 -1.8796 -2.5883
   93MOL    H2818612   2.168   1.130   3.404  0.0145  1.1683  0.4951
   93MOL    H2918613   1.907   1.158   3.552  0.3158  0.0486  0.6945
   93MOL    H3018614   1.904   1.370   3.416  0.8244  2.6245  0.9910
   93MOL    H3118615   2.070   1.349   3.371  2.1582  2.0974  1.1429
   93MOL    C3218616   2.045   1.412   3.585  0.1550 -0.2140 -0.0671
   93MOL    C3318617   2.106   1.546   3.553 -0.8808 -1.3261 -0.1665
   93MOL    C3418618   2.230   1.589   3.587 -0.2119 -0.4331  0.4985
   93MOL    C3518619   2.289   1.724   3.555 -0.0344  0.3288  0.2110
   93MOL    H3618620   1.956   1.431   3.645  0.7794  3.1215 -0.0982
   93MOL    H3718621   2.114   1.352   3.644  1.1327 -1.3420 -2.3028
   93MOL    H3818622   2.038   1.604   3.492 -2.1013 -1.1163  1.3684
   93MOL    H3918623   2.295   1.516   3.633  0.3787 -0.2397 -0.0181
   93MOL    H4018624   2.375   1.708   3.491 -0.9992 -1.6398 -0.6285
   93MOL    H4118625   2.330   1.771   3.644 -0.7063 -3.5843  2.6997
   93MOL    C4218626   2.195   1.830   3.495  0.0217  0.2537  0.3371
   93MOL    C4318627   2.255   1.963   3.457 -0.7084  0.7551  0.0898
   93MOL    C4418628   2.184   2.073   3.462 -0.2289 -0.3906  0.0593
   93MOL    C4518629   2.238   2.209   3.424  0.5371  0.3091  0.4127
   93MOL    H4618630   2.148   1.783   3.409  1.5914 -1.9807  0.6478
   93MOL    H4718631   2.116   1.848   3.568 -3.1418 -0.7582 -2.7661
   93MOL    H4818632   2.351   1.960   3.408 -0.3750 -1.6565  0.8129
   93MOL    H4918633   2.081   2.067   3.495  0.0654 -1.1290  0.8820
   93MOL    H5018634   2.183   2.238   3.334  2.8412  0.0462 -1.1327
   93MOL    H5118635   2.342   2.205   3.394  0.2255 -0.3136 -0.6237
   93MOL    C5218636   2.226   2.307   3.549  0.4223  0.2191 -0.5235
   93MOL    C5318637   2.248   2.451   3.506 -0.1397  0.3113  0.1386
   93MOL    C5418638   2.350   2.523   3.555 -0.1945 -0.0940 -0.4186
   93MOL    C5518639   2.389   2.662   3.519 -0.5056  0.1187  0.4052
   93MOL    H5618640   2.125   2.306   3.588  0.6773 -0.0439  0.1390
   93MOL    H5718641   2.294   2.275   3.628 -0.6536 -1.1347 -0.1304
   93MOL    H5818642   2.187   2.497   3.430  0.3249  0.5167 -0.1095
   93MOL    H5918643   2.407   2.473   3.632 -2.8041  0.5346  2.0124
   93MOL    H6018644   2.399   2.719   3.611 -0.1805  0.1652  0.3423
   93MOL    H6118645   2.308   2.707   3.462  0.6009  1.0434 -0.4704
   93MOL    C6218646   2.508   2.678   3.416 -0.0705  0.0471  0.5056
   93MOL    C6318647   2.586   2.806   3.431  0.1026 -0.2671  0.6831
   93MOL    C6418648   2.527   2.922   3.434  0.7027 -0.0767  0.4152
   93MOL    C6518649   2.597   3.062   3.436  0.0010 -0.0369  0.0693
   93MOL    H6618650   2.577   2.602   3.453 -0.7827 -1.3004 -0.8419
   93MOL    H6718651   2.496   2.655   3.310 -0.7280 -2.1764  1.0304
   93MOL    H6818652   2.694   2.803   3.436  0.1977  0.5061 -0.5379
   93MOL    H6918653   2.421   2.941   3.424  1.1065  2.5414  0.5774
   93MOL    H7018654   2.662   3.064   3.348  1.5650  1.5366  1.2253
   93MOL    H7118655   2.660   3.065   3.525  0.0694  0.8983 -0.0063
   93MOL    C7218656   2.502   3.179   3.429  0.4037 -0.7718 -0.1292
   93MOL    C7318657   2.569   3.307   3.442  0.1311 -0.0367  0.2049
   93MOL    C7418658   2.525   3.413   3.509  0.3262 -0.2381 -0.2134
   93MOL    C7518659   2.605   3.543   3.518 -0.3156 -0.2773  0.1993
   93MOL    H7618660   2.460   3.167   3.329 -0.4890 -1.5952  0.3331
   93MOL    H7718661   2.421   3.175   3.502 -0.2483  0.3194 -0.7812
   93MOL    H7818662   2.650   3.312   3.370  0.2137 -0.1146  0.2938
   93MOL    H7918663   2.447   3.394   3.581 -0.4044 -0.5517 -1.0809
   93MOL    H8018664   2.547   3.616   3.461 -0.8156 -1.5705 -1.0083
   93MOL    H8118665   2.688   3.522   3.450  0.5124 -1.6581  1.6075
   93MOL    C8218666   2.655   3.577   3.655 -0.2724 -0.4506  0.5866
   93MOL    C8318667   2.720   3.709   3.669  0.2142  0.8308 -0.2879
   93MOL    C8418668   2.729   3.805   3.570  0.7140  0.4945 -0.2066
   93MOL    C8518669   2.785   3.943   3.581  0.1285 -0.4334  0.0363
   93MOL    H8618670   2.568   3.586   3.721 -1.6692 -0.7125 -1.1912
   93MOL    H8718671   2.725   3.499   3.685 -0.3185 -0.8033 -0.2171
   93MOL    H8818672   2.763   3.735   3.765  0.6073  1.7452 -0.7091
   93MOL    H8918673   2.691   3.788   3.470  0.7191  0.4780 -0.2059
   93MOL    H9018674   2.819   3.961   3.683 -2.6866 -0.1650  0.9596
   93MOL    H9118675   2.701   4.011   3.570  0.1611  0.0214  2.3685
   93MOL    C9218676   2.892   3.980   3.475  0.0702 -0.1900  0.4037
   93MOL    C9318677   2.943   4.122   3.490  0.2433 -0.2200  0.1893
   93MOL    C9418678   2.970   4.205   3.383 -0.2117 -0.4299  0.2909
   93MOL    C9518679   3.023   4.350   3.401  0.6918  0.3858 -0.4451
   93MOL    H9618680   2.972   3.907   3.469  1.8148  1.8584 -2.1630
   93MOL    H9718681   2.852   3.959   3.375  1.0319 -1.6444  0.3150
   93MOL    H9818682   2.953   4.152   3.593 -0.1734  2.5687 -0.5607
   93MOL    H9918683   2.958   4.170   3.282 -2.0485  0.9652 -0.0093
   93MOL   H10018684   3.009   4.385   3.504 -0.3773  0.0367 -0.4605
   93MOL   H10118685   2.964   4.416   3.337 -0.3385  0.6611  0.7516
   93MOL   C10218686   3.172   4.363   3.361  0.8403  0.2594 -0.1105
   93MOL   C10318687   3.261   4.287   3.460  0.1302 -0.0249 -0.1132
   93MOL   C10418688   3.360   4.349   3.528  0.5519  0.3671 -0.4322
   93MOL   C10518689   3.454   4.277   3.617  0.3667  0.0576  0.9619
   93MOL   H10618690   3.183   4.321   3.261  2.0624 -2.4732  1.1103
   93MOL   H10718691   3.203   4.467   3.350  0.7978  0.4998  1.8244
   93MOL   H10818692   3.244   4.181   3.474  0.6922 -0.4517 -2.5186
   93MOL   H10918693   3.379   4.455   3.514  0.2410  0.5733  0.6937
   93MOL   H11018694   3.550   4.274   3.566 -0.4076  0.3455 -0.5345
   93MOL   H11118695   3.426   4.173   3.638  1.0386 -0.9263 -2.7279
   93MOL   C11218696   3.476   4.344   3.754 -0.0249  0.4258 -0.1456
   93MOL   C11318697   3.590   4.278   3.821 -0.4271  0.1214 -0.3305
   93MOL   C11418698   3.668   4.344   3.906  0.3703  0.3888  0.4016
   93MOL   C11518699   3.788   4.286   3.964 -0.5204  0.4034 -0.4486
   93MOL   H11618700   3.491   4.450   3.739  0.2922  0.2413 -1.1556
   93MOL   H11718701   3.390   4.322   3.818  0.4255 -0.4117  0.1775
   93MOL   H11818702   3.604   4.173   3.801  3.1457  0.5268 -0.3381
   93MOL   H11918703   3.644   4.448   3.923  1.7907  1.0599 -1.4532
   93MOL   H12018704   3.871   4.356   3.976 -1.3318  1.3178 -0.1778
   93MOL   H12118705   3.821   4.203   3.901 -1.1873 -0.1331 -0.1026
   93MOL   C12218706   3.761   4.236   4.105  0.0226  0.6616 -0.4211
   93MOL   C12318707   3.744   4.346   4.212 -0.0612 -0.8037  0.2113
   93MOL   C12418708   3.629   4.378   4.281 -0.5477  0.1347 -0.3407
   93MOL   C12518709   3.616   4.471   4.400  0.4931  0.2725  0.4092
   93MOL   H12618710   3.672   4.174   4.100 -0.1975  0.8882  0.6030
   93MOL   H12718711   3.848   4.179   4.137 -1.0717  0.0277  1.4783
   93MOL   H12818712   3.835   4.396   4.240  0.1434  0.6896 -2.9471
   93MOL   H12918713   3.539   4.326   4.250  2.7496 -4.0488 -3.5005
   93MOL   H13018714   3.581   4.413   4.485  1.5876  3.1341  2.9237
   93MOL   H13118715   3.535   4.541   4.377  0.8458 -0.1605 -2.3634
   93MOL   C13218716   3.741   4.566   4.425 -0.1512 -0.0771  0.7390
   93MOL   C13318717   3.814   4.637   4.315  0.0291 -0.1755 -0.6548
   93MOL   C13418718   3.941   4.620   4.270 -0.1809  0.4703 -0.4470
   93MOL   C13518719   4.010   4.699   4.165  0.3633 -0.3017 -0.2092
   93MOL   H13618720   3.696   4.645   4.485  0.0918  1.4499 -1.0442
   93MOL   H13718721   3.820   4.519   4.483 -0.7761 -0.6466  1.1307
   93MOL   H13818722   3.754   4.715   4.269 -2.9652 -2.1477 -0.2427
   93MOL   H13918723   3.995   4.536   4.310 -3.9439 -2.1599 -0.6148
   93MOL   H14018724   4.097   4.741   4.216 -0.2881 -0.3917  1.0017
   93MOL   H14118725   3.942   4.770   4.118 -0.9989 -1.0259  0.6144
   93MOL   C14218726   4.069   4.613   4.057 -0.1811  0.5717 -0.7575
   93MOL   C14318727   4.130   4.692   3.942 -0.7972  0.1517  0.2640
   93MOL   C14418728   4.247   4.668   3.885  0.4971 -0.1673  0.1747
   93MOL   C14518729   4.296   4.737   3.761 -0.0822  0.1647  0.2401
   93MOL   H14618730   4.140   4.546   4.103  0.2683  1.0765 -0.7144
   93MOL   H14718731   3.993   4.547   4.014 -1.2724  1.2383  0.1267
   93MOL   H14818732   4.059   4.765   3.908 -1.7443 -1.0430 -0.3525
   93MOL   H14918733   4.311   4.588   3.921  0.8980  1.0752  2.3591
   93MOL   H15018734   4.214   4.788   3.709  0.2828 -0.4626 -0.9816
   93MOL   H15118735   4.319   4.663   3.684 -0.1757  0.3809  0.0019
   93MOL   C15218736   4.416   4.826   3.771 -0.3378  0.2194  0.0589
   93MOL   C15318737   4.391   4.929   3.876 -0.3631 -0.1325 -0.1768
   93MOL   C15418738   4.457   4.946   3.995  0.3017 -0.7031  0.0433
   93MOL   C15518739   4.410   5.038   4.107 -0.1167 -0.3346  0.9585
   93MOL   H15618740   4.507   4.769   3.792 -0.6515 -1.1370 -2.0764
   93MOL   H15718741   4.419   4.877   3.675 -2.2708  1.0615  0.4426
   93MOL   H15818742   4.292   4.972   3.862 -0.8298 -1.2335 -0.2880
   93MOL   H15918743   4.551   4.895   4.009  0.9637  0.2787 -0.7500
   93MOL   H16018744   4.345   5.115   4.065 -0.4816 -0.3233  1.5350
   93MOL   H16118745   4.492   5.092   4.155  1.9417 -1.1389 -1.5876
   93MOL   C16218746   4.328   4.958   4.212 -0.1143  0.0724  0.2040
   93MOL   C16318747   4.248   5.055   4.298  0.1416  0.1552 -0.2499
   93MOL   C16418748   4.258   5.077   4.431  0.0493  0.4021  0.4125
   93MOL   C16518749   4.184   5.182   4.499  0.0323  0.4250 -0.0651
   93MOL   H16618750   4.269   4.879   4.166  0.4237 -0.4906  0.4715
   93MOL   H16718751   4.387   4.905   4.287  1.2402 -0.0218 -0.9114
   93MOL   H16818752   4.178   5.120   4.247  0.6796  0.9501  0.0162
   93MOL   H16918753   4.332   5.012   4.476 -0.7580 -0.0189  1.1498
   93MOL   H17018754   4.124   5.231   4.422 -0.1787  0.7601  0.3073
   93MOL   H17118755   4.253   5.251   4.548  0.5399 -1.3778  1.8379
   93MOL   C17218756   4.088   5.130   4.607 -0.1803 -0.3216 -0.3540
   93MOL   C17318757   3.962   5.064   4.546  0.2274 -0.3849 -0.1142
   93MOL   C17418758   3.830   5.087   4.583  0.4924  0.0877 -0.6529
   93MOL   C17518759   3.714   4.987   4.553  0.4499 -0.9239 -0.0569
   93MOL   H17618760   4.137   5.076   4.687  1.0626 -1.1306 -1.6389
   93MOL   H17718761   4.051   5.214   4.665  0.0219 -2.1590  2.4903
   93MOL   H17818762   3.988   4.983   4.480  2.6382  1.4961 -1.5630
   93MOL   H17918763   3.816   5.170   4.651 -1.6224 -0.4063 -0.4508
   93MOL   H18018764   3.747   4.937   4.462 -0.9093  0.2676 -1.2361
   93MOL   H18118765   3.626   5.034   4.508  0.4343 -0.5088  0.4087
   93MOL   C18218766   3.676   4.901   4.685 -0.1000 -0.1451  0.0431
   93MOL   C18318767   3.634   4.984   4.801 -1.0894  0.6363 -0.1190
   93MOL   C18418768   3.518   4.966   4.870 -0.0041  0.0745 -0.3673
   93MOL   C18518769   3.495   5.049   4.999 -0.0245  0.0715 -0.3065
   93MOL   H18618770   3.603   4.824   4.661  0.8691 -0.7880 -0.8947
   93MOL   H18718771   3.764   4.840   4.705 -0.4685 -0.4889  0.6140
   93MOL   H18818772   3.708   5.054   4.834  0.8588 -1.0074 -0.8914
   93MOL   H18918773   3.446   4.890   4.843 -0.4047  0.0661  0.6961
   93MOL   H19018774   3.409   5.115   4.988  1.2216  1.4462 -2.1554
   93MOL   H19118775   3.579   5.117   5.015  1.1054 -1.5641  0.8510
   93MOL   C19218776   3.481   4.954   5.117 -1.0844 -0.2491  0.4318
   93MOL   C19318777   3.613   4.924   5.179 -0.4427  0.3365 -0.7279
   93MOL   C19418778   3.666   4.801   5.188 -0.0747  0.0775 -0.5569
   93MOL   C19518779   3.802   4.788   5.249 -0.0305  0.0951  0.2502
   93MOL   H19618780   3.424   5.003   5.196  2.2510  0.0755  2.7221
   93MOL   H19718781   3.421   4.864   5.101 -1.0074 -0.2515  0.1538
   93MOL   H19818782   3.652   5.019   5.212 -2.4840  0.6727  0.7843
   93MOL   H19918783   3.614   4.716   5.144  0.0857  0.9972 -2.5740
   93MOL   H20018784   3.823   4.868   5.320 -1.7540 -0.4726  1.4257
   93MOL   H20118785   3.880   4.780   5.173 -2.3393 -0.1373 -2.1677
   93MOL   H20218786   3.796   4.698   5.311  0.4314 -0.0801  0.0448
   94MOL     C118787   5.395   6.421   6.628 -0.8443 -0.1249  0.9772
   94MOL     C218788   5.483   6.316   6.694 -0.5253  1.2360  0.1126
   94MOL     C318789   5.551   6.218   6.635  0.8083  0.6838  0.1589
   94MOL     C418790   5.640   6.122   6.708  0.0094  0.1335 -0.1402
   94MOL     H518791   5.294   6.406   6.665 -0.6620 -0.7798  1.2150
   94MOL     H618792   5.389   6.408   6.520  0.3603  2.0925  0.6090
   94MOL     H718793   5.488   6.314   6.802 -1.7640  0.2046  0.1514
   94MOL     H818794   5.551   6.219   6.527 -0.9001 -0.5214  0.1251
   94MOL     H918795   5.632   6.119   6.817 -1.3948  0.2542 -0.2240
   94MOL    H1018796   5.737   6.171   6.697 -0.7615  1.5441 -0.8374
   94MOL    H1118797   5.424   6.521   6.661 -0.2760 -0.8434  2.6864
   94MOL    C1218798   5.634   5.986   6.639 -0.0576 -0.1634 -0.4967
   94MOL    C1318799   5.747   5.902   6.692  0.3757 -0.7423  0.0952
   94MOL    C1418800   5.746   5.815   6.796 -0.3083  0.5335  0.1770
   94MOL    C1518801   5.876   5.741   6.829 -0.5329  0.2734 -0.5206
   94MOL    H1618802   5.538   5.941   6.662  0.5047 -0.7816  0.6627
   94MOL    H1718803   5.647   5.986   6.530  3.5949 -1.4339 -0.1451
   94MOL    H1818804   5.837   5.916   6.634  0.5349  3.2771  1.1463
   94MOL    H1918805   5.650   5.805   6.845 -0.3579  3.1304  0.6701
   94MOL    H2018806   5.955   5.770   6.760  0.1496  0.1253  0.1985
   94MOL    H2118807   5.861   5.635   6.810 -0.6974  0.1879  0.0761
   94MOL    C2218808   5.939   5.777   6.970 -0.1575 -0.3559  0.6096
   94MOL    C2318809   5.842   5.741   7.084  0.1037  0.8684 -0.4061
   94MOL    C2418810   5.801   5.813   7.190  0.3853 -0.3983  0.7399
   94MOL    C2518811   5.693   5.768   7.289 -0.0976 -0.2785 -0.3582
   94MOL    H2618812   6.031   5.721   6.981  0.1152  0.0992  0.6331
   94MOL    H2718813   5.972   5.881   6.969  0.6246 -0.5872  2.1503
   94MOL    H2818814   5.806   5.639   7.077 -1.1654  1.4354 -3.3287
   94MOL    H2918815   5.832   5.915   7.202  0.5841 -0.4980  1.0782
   94MOL    H3018816   5.742   5.724   7.376  0.5583 -2.2572 -1.6962
   94MOL    H3118817   5.634   5.700   7.227 -1.0636  0.9982 -0.8511
   94MOL    C3218818   5.619   5.895   7.337 -0.2560 -0.5927  0.0063
   94MOL    C3318819   5.506   5.861   7.431  0.1793 -0.9445  0.4271
   94MOL    C3418820   5.478   5.926   7.544  0.3931  0.2899  0.2453
   94MOL    C3518821   5.353   5.896   7.632 -0.6041  0.0581  0.4499
   94MOL    H3618822   5.682   5.965   7.391  1.2557 -0.9688 -1.2288
   94MOL    H3718823   5.569   5.946   7.255  1.8115  1.7491  0.1616
   94MOL    H3818824   5.441   5.779   7.405 -1.1864  0.4247 -0.5641
   94MOL    H3918825   5.534   6.015   7.567 -0.8198  0.7258  1.5603
   94MOL    H4018826   5.324   5.791   7.633  0.2199 -0.1954 -1.0128
   94MOL    H4118827   5.264   5.958   7.622 -0.1785  0.3057 -2.0801
   94MOL    C4218828   5.380   5.906   7.777 -0.1466  0.2024  0.6820
   94MOL    C4318829   5.255   5.888   7.855  0.1786 -0.5043  0.1617
   94MOL    C4418830   5.225   5.964   7.963 -0.1088 -0.1148  0.1658
   94MOL    C4518831   5.091   5.962   0.052  0.1983  0.0390 -0.3732
   94MOL    H4618832   5.436   5.813   7.791  1.5867  1.1612  0.2055
   94MOL    H4718833   5.433   5.996   7.808 -0.0710  0.5287 -0.3909
   94MOL    H4818834   5.184   5.816   7.818  0.4303 -0.4013 -0.5273
   94MOL    H4918835   5.298   6.039   0.013  0.6921 -1.0089  0.5060
   94MOL    H5018836   5.104   5.917   0.150 -4.1814 -2.7324 -0.9208
   94MOL    H5118837   5.030   5.893   7.969  0.6109  0.3189 -1.1255
   94MOL    C5218838   5.019   6.093   0.053  0.3632  0.2912 -1.0405
   94MOL    C5318839   4.882   6.089   0.118 -0.8523  0.2044 -0.6412
   94MOL    C5418840   4.850   6.160   0.225 -0.4288 -0.5035 -0.9676
   94MOL    C5518841   4.713   6.154   0.291 -0.2854  0.3960 -0.0913
   94MOL    H5618842   5.086   6.170   0.090 -0.6539  1.1665 -0.9944
   94MOL    H5718843   4.994   6.123   7.928 -0.8882  3.3468  0.1071
   94MOL    H5818844   4.806   6.025   0.077  0.3033 -1.6378  0.0282
   94MOL    H5918845   4.926   6.226   0.263  0.0728 -0.6708 -1.6928
   94MOL    H6018846   4.654   6.076   0.242  1.8218 -1.3427  0.0538
   94MOL    H6118847   4.662   6.250   0.285 -0.9828 -0.0311 -1.3921
   94MOL    C6218848   4.723   6.108   0.438  1.1716  0.0159  0.0413
   94MOL    C6318849   4.598   6.052   0.493 -0.5162  0.1729 -0.5124
   94MOL    C6418850   4.603   5.951   0.581 -0.3941  0.2114 -0.4254
   94MOL    C6518851   4.479   5.887   0.636 -0.2965  0.1794 -0.4327
   94MOL    H6618852   4.803   6.034   0.445  1.0205 -0.2262 -0.7339
   94MOL    H6718853   4.741   6.201   0.492 -1.7769 -0.2661  1.6171
   94MOL    H6818854   4.506   6.094   0.455 -0.2836 -0.1874 -1.4927
   94MOL    H6918855   4.700   5.915   0.611  0.2447  2.1424 -0.0742
   94MOL    H7018856   4.485   5.779   0.622  0.5404  0.4606 -2.4291
   94MOL    H7118857   4.387   5.912   0.584 -0.2519  0.3611 -0.4247
   94MOL    C7218858   4.452   5.916   0.781 -0.1207 -0.0672 -0.0151
   94MOL    C7318859   4.332   5.852   0.840  0.9933 -0.1605 -0.7103
   94MOL    C7418860   4.331   5.792   0.963  0.2798  0.0628  0.1542
   94MOL    C7518861   4.200   5.756   1.036  0.4017  0.2215 -0.2427
   94MOL    H7618862   4.541   5.893   0.840  0.8918 -0.5278 -1.6804
   94MOL    H7718863   4.433   6.023   0.791 -0.4981  0.2187 -3.1297
   94MOL    H7818864   4.235   5.871   0.798 -0.3335 -1.1549  1.8121
   94MOL    H7918865   4.424   5.789   1.017  0.9384  0.5553 -0.9295
   94MOL    H8018866   4.209   5.649   1.054 -0.5647  0.6840  3.5132
   94MOL    H8118867   4.114   5.767   0.971  0.4856 -1.5823 -0.6993
   94MOL    C8218868   4.163   5.821   1.170  0.7277  0.1969 -0.7471
   94MOL    C8318869   4.042   5.758   1.238 -0.4485 -0.1051  0.2387
   94MOL    C8418870   4.049   5.667   1.329  0.5686 -1.0668  0.1388
   94MOL    C8518871   3.931   5.592   1.388  0.6954 -0.6836 -0.4556
   94MOL    H8618872   4.247   5.795   1.233 -0.1305  1.4181  0.9573
   94MOL    H8718873   4.165   5.930   1.162  3.4113  0.3575  1.7129
   94MOL    H8818874   3.942   5.775   1.200  0.9560  2.2210 -2.6088
   94MOL    H8918875   4.143   5.632   1.370  1.5158  0.4072 -0.7436
   94MOL    H9018876   3.918   5.490   1.352 -0.4079 -1.4433  1.9793
   94MOL    H9118877   3.844   5.639   1.344  1.2306  0.0020 -0.8005
   94MOL    C9218878   3.926   5.586   1.541 -0.8060 -0.3329  0.0442
   94MOL    C9318879   3.800   5.542   1.598 -0.3756  0.4477  0.2911
   94MOL    C9418880   3.692   5.613   1.631 -0.6095 -0.2099  0.3611
   94MOL    C9518881   3.555   5.558   1.660 -0.6332 -0.1841 -0.3909
   94MOL    H9618882   4.011   5.530   1.578  0.5441  0.9943 -0.9758
   94MOL    H9718883   3.944   5.684   1.585  0.0133 -0.6495  0.4103
   94MOL    H9818884   3.781   5.435   1.604 -1.1712  0.6065  0.7319
   94MOL    H9918885   3.700   5.721   1.633  0.4867 -0.3027  1.8470
   94MOL   H10018886   3.554   5.451   1.635 -0.7945  0.2348 -2.2804
   94MOL   H10118887   3.482   5.604   1.593  1.0388  0.0945 -2.0618
   94MOL   C10218888   3.514   5.593   1.807  0.2084  0.5405  0.6315
   94MOL   C10318889   3.377   5.550   1.845 -0.3341  0.7361  0.1336
   94MOL   C10418890   3.297   5.627   1.922 -0.1457 -0.6157  0.3684
   94MOL   C10518891   3.158   5.581   1.956 -0.8529  0.1997  0.5516
   94MOL   H10618892   3.591   5.549   1.869 -1.9345 -4.1378  0.1611
   94MOL   H10718893   3.529   5.698   1.831  2.1887 -0.0231  1.9149
   94MOL   H10818894   3.344   5.452   1.816 -1.3414  1.2659 -0.5104
   94MOL   H10918895   3.328   5.724   1.956 -0.8677 -0.4355  0.5073
   94MOL   H11018896   3.147   5.557   2.062  0.6506 -1.0728  0.4444
   94MOL   H11118897   3.127   5.483   1.919  2.8132 -1.6743  2.1208
   94MOL   C11218898   3.042   5.685   1.928 -0.0658  0.4455 -0.0060
   94MOL   C11318899   3.025   5.768   2.049 -0.3075 -0.2877  1.6295
   94MOL   C11418900   2.918   5.770   2.126 -0.3589 -0.1469  0.0721
   94MOL   C11518901   2.922   5.841   2.263 -0.5892  0.0517 -0.1069
   94MOL   H11618902   3.066   5.738   1.836 -0.4169 -1.2528 -1.0896
   94MOL   H11718903   2.943   5.640   1.918  0.1957  0.1131 -1.2441
   94MOL   H11818904   3.112   5.819   2.087 -0.6810  1.7128 -0.1090
   94MOL   H11918905   2.820   5.738   2.096 -1.3840  1.6871  1.3921
   94MOL   H12018906   2.868   5.935   2.245 -1.1146 -0.4102 -0.9986
   94MOL   H12118907   3.027   5.859   2.285 -0.4302 -1.3747  0.3060
   94MOL   C12218908   2.859   5.750   2.371 -0.5391 -0.7632 -0.5114
   94MOL   C12318909   2.952   5.636   2.405 -0.1475 -0.3157 -0.3276
   94MOL   C12418910   2.924   5.509   2.380  0.1236  0.5029 -0.7972
   94MOL   C12518911   3.014   5.387   2.406  0.2584 -0.0471  0.0244
   94MOL   H12618912   2.832   5.803   2.463  1.1273 -0.4967 -0.1587
   94MOL   H12718913   2.768   5.710   2.326 -1.1936  0.9171 -0.7224
   94MOL   H12818914   3.036   5.678   2.458 -1.0947 -1.4432  2.1479
   94MOL   H12918915   2.830   5.498   2.327 -0.4037 -1.3385  0.4734
   94MOL   H13018916   2.957   5.311   2.460  0.8638 -0.0329  0.6972
   94MOL   H13118917   3.091   5.413   2.478 -0.0352  1.3863 -0.1557
   94MOL   C13218918   3.070   5.347   2.267 -0.5678 -0.0074 -0.6354
   94MOL   C13318919   3.139   5.217   2.257 -0.1269 -0.2582 -0.2618
   94MOL   C13418920   3.095   5.114   2.182  0.3310 -0.4540 -0.0797
   94MOL   C13518921   3.159   4.971   2.175  0.0143 -0.2262 -0.5431
   94MOL   H13618922   2.990   5.345   2.193 -0.4380  1.2319 -0.8258
   94MOL   H13718923   3.147   5.416   2.234  0.6240 -1.1295 -0.2185
   94MOL   H13818924   3.219   5.212   2.328 -0.3774  0.9711  0.1138
   94MOL   H13918925   3.010   5.136   2.120  0.0630  0.6064  0.6469
   94MOL   H14018926   3.179   4.942   2.072  1.6053 -0.3991 -0.2039
   94MOL   H14118927   3.078   4.904   2.205  0.6357 -0.6795  0.1527
   94MOL   C14218928   3.289   4.959   2.255  0.0047 -0.3430  0.4720
   94MOL   C14318929   3.358   4.830   2.245  0.6859 -0.0897 -0.3505
   94MOL   C14418930   3.362   4.747   2.353 -0.4397 -0.5186  0.4451
   94MOL   C14518931   3.417   4.600   2.343 -0.5638 -0.7541 -0.5259
   94MOL   H14618932   3.354   5.038   2.218  0.6873 -1.6111 -1.1191
   94MOL   H14718933   3.261   4.977   2.359 -2.2083  0.6141 -0.2597
   94MOL   H14818934   3.404   4.803   2.151  1.4756  2.9261 -0.8588
   94MOL   H14918935   3.324   4.785   2.447  0.9446 -0.3208  0.9323
   94MOL   H15018936   3.400   4.557   2.244 -2.3693  0.1802 -0.6523
   94MOL   H15118937   3.352   4.530   2.396  0.5317 -0.9249  0.6141
   94MOL   C15218938   3.560   4.592   2.393 -0.1889 -0.8549 -0.3133
   94MOL   C15318939   3.577   4.590   2.542  0.5638  0.1205  0.0354
   94MOL   C15418940   3.629   4.691   2.617 -0.0302 -0.2792 -0.0231
   94MOL   C15518941   3.661   4.690   2.769 -0.4562 -0.1486  0.1872
   94MOL   H15618942   3.604   4.495   2.370  1.7619  0.2390 -1.3935
   94MOL   H15718943   3.621   4.676   2.358 -0.9711 -0.2418 -0.1990
   94MOL   H15818944   3.552   4.498   2.592 -2.5684 -0.0831 -1.7849
   94MOL   H15918945   3.665   4.783   2.574  2.3223  0.1678  2.6633
   94MOL   H16018946   3.770   4.689   2.776 -0.4870  1.1295  1.1865
   94MOL   H16118947   3.615   4.604   2.817 -2.2157  0.6540 -0.0168
   94MOL   C16218948   3.605   4.812   2.844 -0.0183 -0.5331  0.2438
   94MOL   C16318949   3.626   4.811   2.995  0.0795 -0.4978  0.3836
   94MOL   C16418950   3.533   4.782   3.080 -0.1930  0.0882  0.4355
   94MOL   C16518951   3.555   4.779   3.230 -0.9661 -0.7192 -0.7129
   94MOL   H16618952   3.649   4.902   2.799  0.5110 -1.1060 -0.3991
   94MOL   H16718953   3.500   4.824   2.820 -0.7474 -1.6642  2.7800
   94MOL   H16818954   3.723   4.835   3.036  0.5271  0.3955 -1.1548
   94MOL   H16918955   3.434   4.756   3.045 -0.1925 -0.3877  0.7970
   94MOL   H17018956   3.509   4.868   3.272  0.0414 -0.4856 -0.1097
   94MOL   H17118957   3.662   4.774   3.247 -0.9656  0.7624 -0.2153
   94MOL   C17218958   3.487   4.659   3.297 -0.7498 -0.0058 -0.3876
   94MOL   C17318959   3.538   4.525   3.244  0.7779 -0.2862 -0.2265
   94MOL   C17418960   3.630   4.445   3.301  1.3402  0.1240  0.0077
   94MOL   C17518961   3.677   4.305   3.267  0.6925  0.4414  0.9298
   94MOL   H17618962   3.497   4.661   3.405 -1.4560  1.9019 -0.3370
   94MOL   H17718963   3.383   4.685   3.278 -0.1914  1.4708 -1.5320
   94MOL   H17818964   3.481   4.492   3.159  0.4222  1.0769 -0.5394
   94MOL   H17918965   3.671   4.489   3.391  1.6961 -0.4477  0.1241
   94MOL   H18018966   3.648   4.242   3.351 -0.3620 -1.1129 -0.5720
   94MOL   H18118967   3.783   4.304   3.294  0.5134 -0.9345  1.6674
   94MOL   C18218968   3.642   4.239   3.130 -0.4847  0.3085  0.0834
   94MOL   C18318969   3.728   4.116   3.083 -0.0601 -0.6666 -0.2347
   94MOL   C18418970   3.677   4.015   3.017  0.3004  0.1152  0.0334
   94MOL   C18518971   3.758   3.899   2.952 -0.2776  0.0109  0.5710
   94MOL   H18618972   3.536   4.215   3.136 -0.5630  0.5140 -0.4204
   94MOL   H18718973   3.655   4.308   3.047 -1.9963  0.8045  0.2410
   94MOL   H18818974   3.836   4.120   3.093 -0.2180 -1.1881  2.0044
   94MOL   H18918975   3.571   4.008   3.001  0.3141 -0.3084  0.1386
   94MOL   H19018976   3.864   3.899   2.976 -0.2341  0.8254  0.3898
   94MOL   H19118977   3.764   3.916   2.845  1.2192  0.5736  0.7320
   94MOL   C19218978   3.690   3.756   2.960 -0.2839  0.6175 -0.0113
   94MOL   C19318979   3.556   3.753   2.897 -0.2668 -0.0554 -0.0228
   94MOL   C19418980   3.526   3.696   2.779  0.2033  0.5091  0.7628
   94MOL   C19518981   3.387   3.668   2.721 -0.7599  0.2452 -0.1991
   94MOL   H19618982   3.759   3.681   2.925 -0.3163  0.0736  1.0572
   94MOL   H19718983   3.685   3.715   3.061  0.8215 -2.6640 -1.2620
   94MOL   H19818984   3.473   3.779   2.962 -0.2837 -0.5725  0.1638
   94MOL   H19918985   3.607   3.658   2.719  1.0207  0.6060  1.7904
   94MOL   H20018986   3.367   3.722   2.628  0.5180  1.7147  0.3370
   94MOL   H20118987   3.310   3.703   2.789 -0.7446 -1.0731  0.4986
   94MOL   H20218988   3.391   3.560   2.717  1.2098  0.2966 -0.2291
   95MOL     C118989   4.871   4.340   5.871 -0.7642  0.0032 -0.2064
   95MOL     C218990   4.830   4.214   5.797  0.3938 -0.3999  0.2329
   95MOL     C318991   4.917   4.135   5.734  0.0891  0.3344 -0.3486
   95MOL     C418992   4.878   3.998   5.683  0.8463  0.3916 -0.6387
   95MOL     H518993   4.815   4.421   5.825 -1.5636  0.8220  2.1766
   95MOL     H618994   4.979   4.345   5.859 -0.9762  1.4043 -1.6096
   95MOL     H718995   4.725   4.192   5.798 -0.3742  3.0056  1.7052
   95MOL     H818996   5.023   4.156   5.732 -0.2571  2.1130 -0.6464
   95MOL     H918997   4.789   3.949   5.723  0.9259  0.8057  0.0494
   95MOL    H1018998   4.955   3.928   5.715  1.2702  1.8066  1.4970
   95MOL    H1118999   4.850   4.322   5.976  1.0866  2.3923  0.6114
   95MOL    C1219000   4.866   3.993   5.531  0.1557 -0.0354 -0.1421
   95MOL    C1319001   4.797   3.869   5.482  0.5332 -0.3954 -0.2586
   95MOL    C1419002   4.856   3.767   5.413  0.3599 -0.1047 -0.3365
   95MOL    C1519003   4.786   3.653   5.349 -0.1163 -0.0853  0.1502
   95MOL    H1619004   4.806   4.075   5.492  1.1039  1.3872  1.3604
   95MOL    H1719005   4.961   3.988   5.479 -0.8620  1.7770 -2.2305
   95MOL    H1819006   4.689   3.869   5.486  0.4904  0.2532 -1.0715
   95MOL    H1919007   4.960   3.774   5.387 -0.2276 -0.9302 -3.0858
   95MOL    H2019008   4.855   3.610   5.277 -1.7308 -1.5622 -0.5720
   95MOL    H2119009   4.700   3.699   5.299 -1.2615 -2.7498 -0.4422
   95MOL    C2219010   4.743   3.540   5.451 -0.5663 -0.1413 -0.3705
   95MOL    C2319011   4.718   3.410   5.375  0.7620  0.1567 -0.2643
   95MOL    C2419012   4.610   3.333   5.366 -0.4630  0.1050 -0.7828
   95MOL    C2519013   4.600   3.197   5.299  0.3878 -0.1297  0.0702
   95MOL    H2619014   4.823   3.528   5.525 -0.5188 -1.6956 -0.6659
   95MOL    H2719015   4.655   3.564   5.510 -0.0058  0.2032  0.3381
   95MOL    H2819016   4.808   3.371   5.330  2.2902  1.6578  1.4009
   95MOL    H2919017   4.524   3.364   5.424  0.2055 -0.7997  0.6986
   95MOL    H3019018   4.702   3.161   5.287  0.5271  0.6473 -1.2694
   95MOL    H3119019   4.553   3.210   5.201 -0.4550  1.0784  0.6255
   95MOL    C3219020   4.518   3.097   5.387  0.2211 -0.2153  0.2126
   95MOL    C3319021   4.462   2.983   5.308 -0.1465 -0.4392  0.1895
   95MOL    C3419022   4.505   2.857   5.324 -0.2666  0.3701  0.6570
   95MOL    C3519023   4.465   2.725   5.262 -0.8980  0.5615 -0.3875
   95MOL    H3619024   4.594   3.058   5.455  0.4675  1.7216  1.0682
   95MOL    H3719025   4.441   3.147   5.445 -0.3932 -2.4442  1.3754
   95MOL    H3819026   4.379   3.008   5.245  0.0674 -1.0911 -0.3529
   95MOL    H3919027   4.587   2.852   5.394 -0.3879 -1.9309  0.6604
   95MOL    H4019028   4.464   2.656   5.346  0.6980  0.7610 -0.1859
   95MOL    H4119029   4.536   2.705   5.181  0.6800 -1.6214  1.4574
   95MOL    C4219030   4.330   2.731   5.190  0.0627  0.8640 -0.6064
   95MOL    C4319031   4.202   2.718   5.281  0.4808 -0.3823 -0.3667
   95MOL    C4419032   4.103   2.632   5.249  0.1972  0.1207 -0.0331
   95MOL    C4519033   3.973   2.612   5.326 -0.5113  0.5025 -0.6056
   95MOL    H4619034   4.329   2.825   5.135  0.0518  2.4249  1.9604
   95MOL    H4719035   4.325   2.653   5.114 -0.5167 -0.3528  0.6674
   95MOL    H4819036   4.193   2.791   5.360  1.5716 -0.3438 -0.2715
   95MOL    H4919037   4.115   2.573   5.159  2.6867  1.6142 -0.7105
   95MOL    H5019038   3.899   2.685   5.291  1.0335  2.6799  0.5240
   95MOL    H5119039   3.994   2.653   5.425  0.3719  1.1750 -1.0602
   95MOL    C5219040   3.919   2.473   5.366  0.2146 -0.3948  0.2506
   95MOL    C5319041   3.794   2.471   5.453  0.1707  0.2604  0.0734
   95MOL    C5419042   3.696   2.379   5.433  0.5583  0.2357 -0.2872
   95MOL    C5519043   3.565   2.384   5.514 -0.1588 -0.0817  0.7500
   95MOL    H5619044   3.909   2.412   5.276 -1.8710  2.4631 -1.5343
   95MOL    H5719045   3.979   2.426   5.443  1.7449 -1.0257 -1.2845
   95MOL    H5819046   3.791   2.546   5.531 -0.9543  1.6346 -1.2604
   95MOL    H5919047   3.698   2.303   5.356  0.4989  0.4220 -0.4734
   95MOL    H6019048   3.564   2.475   5.573  2.9255  1.2616 -1.0799
   95MOL    H6119049   3.570   2.301   5.585 -1.3205 -1.9891 -1.3098
   95MOL    C6219050   3.446   2.364   5.424  0.6924  0.5801 -0.1147
   95MOL    C6319051   3.310   2.395   5.491 -0.1800  0.2035  0.1105
   95MOL    C6419052   3.203   2.311   5.495  0.7846 -0.2127  0.0497
   95MOL    C6519053   3.069   2.337   5.554  0.6126  0.5983 -0.5011
   95MOL    H6619054   3.452   2.424   5.334  3.1806  1.7097  0.7579
   95MOL    H6719055   3.443   2.263   5.382  1.4894 -0.1975  1.6213
   95MOL    H6819056   3.301   2.496   5.529  2.6685  1.2427 -1.7534
   95MOL    H6919057   3.211   2.209   5.458  1.7530 -0.2291  0.2827
   95MOL    H7019058   3.063   2.437   5.596 -1.4225  0.8866 -1.3971
   95MOL    H7119059   3.046   2.272   5.638  0.4481  0.2613 -0.8016
   95MOL    C7219060   2.952   2.321   5.453 -0.0777 -0.2340 -0.3259
   95MOL    C7319061   2.825   2.382   5.508 -0.2295 -0.1457 -0.2120
   95MOL    C7419062   2.707   2.325   5.487  0.6887 -0.2647  0.1412
   95MOL    C7519063   2.574   2.382   5.534 -0.1949  0.2368 -0.5773
   95MOL    H7619064   2.970   2.375   5.360 -4.2298  0.7312 -0.6574
   95MOL    H7719065   2.929   2.218   5.426  2.4417 -0.6381 -1.0773
   95MOL    H7819066   2.833   2.477   5.558 -2.5835 -0.0867  0.0732
   95MOL    H7919067   2.701   2.235   5.429 -1.4323 -0.8070  1.1644
   95MOL    H8019068   2.597   2.444   5.620 -0.6801 -1.0827  0.5218
   95MOL    H8119069   2.512   2.300   5.571 -1.3763  1.7526  0.8731
   95MOL    C8219070   2.493   2.456   5.432 -0.9839 -0.7247  0.6124
   95MOL    C8319071   2.388   2.533   5.500  1.5103 -0.6160 -0.0137
   95MOL    C8419072   2.258   2.540   5.468  0.2716 -0.4717 -0.8036
   95MOL    C8519073   2.161   2.620   5.548  0.7764  1.4123 -0.0834
   95MOL    H8619074   2.564   2.522   5.383 -1.1541 -1.4064 -0.5547
   95MOL    H8719075   2.446   2.395   5.355  1.3555 -1.7860  0.0014
   95MOL    H8819076   2.418   2.592   5.585  1.5803  0.0243 -0.4832
   95MOL    H8919077   2.228   2.485   5.379 -1.3124 -1.6093  0.4063
   95MOL    H9019078   2.163   2.711   5.488 -2.3826  1.4211 -0.2607
   95MOL    H9119079   2.195   2.643   5.649 -0.3129  0.6635  0.4631
   95MOL    C9219080   2.024   2.554   5.555  0.0458 -0.5236  0.6373
   95MOL    C9319081   1.926   2.623   5.645 -0.5341  0.4021 -0.1302
   95MOL    C9419082   1.863   2.562   5.751  0.3295  0.3287  0.0187
   95MOL    C9519083   1.761   2.642   5.831 -0.1613  0.3378  0.1026
   95MOL    H9619084   1.988   2.547   5.453 -0.9623  1.7508  0.8123
   95MOL    H9719085   2.023   2.450   5.590  0.3569 -0.9146 -0.4947
   95MOL    H9819086   1.918   2.727   5.619  0.3018  0.2587 -1.0088
   95MOL    H9919087   1.889   2.460   5.774  1.3661  0.0552 -2.2291
   95MOL   H10019088   1.660   2.606   5.810  0.1322 -1.4694  1.5626
   95MOL   H10119089   1.765   2.750   5.818 -2.6230  0.2841 -1.4312
   95MOL   C10219090   1.780   2.635   5.979 -0.2964  0.4032 -0.0068
   95MOL   C10319091   1.914   2.696   6.021  0.2668 -0.1909 -0.1270
   95MOL   C10419092   1.937   2.794   6.109  0.6561 -0.2229  0.5610
   95MOL   C10519093   2.068   2.842   6.151 -0.4114 -0.1025  0.1376
   95MOL   H10619094   1.690   2.673   6.027 -0.9381  0.4755 -1.2503
   95MOL   H10719095   1.780   2.527   5.994  0.5189  0.1349 -1.8228
   95MOL   H10819096   1.999   2.645   5.979  0.0249 -0.2930 -0.4889
   95MOL   H10919097   1.853   2.835   6.164  1.5699  2.5777 -0.0646
   95MOL   H11019098   2.135   2.852   6.066  0.6179 -1.3023  0.7904
   95MOL   H11119099   2.122   2.777   6.220  1.3179  0.5575 -0.5632
   95MOL   C11219100   2.061   2.986   6.207 -0.0597 -0.0731  0.2570
   95MOL   C11319101   1.973   3.007   6.330  0.3106  0.0869 -0.4581
   95MOL   C11419102   1.881   3.105   6.336  0.1383 -0.3566 -0.0398
   95MOL   C11519103   1.805   3.145   6.458 -0.2656 -0.3585  0.5172
   95MOL   H11619104   2.157   3.027   6.238 -0.2012  0.0212  0.5846
   95MOL   H11719105   2.019   3.055   6.134 -1.2512 -0.9780  0.0705
   95MOL   H11819106   2.001   2.941   6.411 -1.3306  1.2472  1.0768
   95MOL   H11919107   1.845   3.157   6.249 -1.7448 -2.1329 -0.3564
   95MOL   H12019108   1.828   3.250   6.479 -0.1196 -0.2676 -0.0968
   95MOL   H12119109   1.827   3.085   6.546  1.2316 -0.2008  0.2651
   95MOL   C12219110   1.657   3.128   6.442 -0.1052 -0.1950 -0.6720
   95MOL   C12319111   1.619   2.983   6.424  0.4465 -0.3987  0.1130
   95MOL   C12419112   1.581   2.931   6.306 -0.8940 -0.9311 -0.3661
   95MOL   C12519113   1.548   2.782   6.279 -0.3323 -0.1668  0.1107
   95MOL   H12619114   1.610   3.155   6.536 -0.5615 -1.1928 -0.6097
   95MOL   H12719115   1.612   3.192   6.365 -0.1319  1.0424  0.3587
   95MOL   H12819116   1.634   2.908   6.501 -1.3834 -0.3980  0.4933
   95MOL   H12919117   1.577   3.006   6.228 -0.2710 -0.6819 -0.1629
   95MOL   H13019118   1.513   2.753   6.379  0.2217 -0.0335  0.3459
   95MOL   H13119119   1.640   2.728   6.253  0.4761  1.5159 -0.6113
   95MOL   C13219120   1.445   2.770   6.174 -0.1312  0.2038  0.2984
   95MOL   C13319121   1.423   2.623   6.144  0.5064  0.0529 -0.3477
   95MOL   C13419122   1.302   2.561   6.141 -0.5532 -0.3186  0.5517
   95MOL   C13519123   1.286   2.412   6.119 -0.3492  0.1147  1.0086
   95MOL   H13619124   1.348   2.812   6.201 -1.3831 -1.7837 -0.9511
   95MOL   H13719125   1.483   2.813   6.082 -1.4236  3.6166  1.2843
   95MOL   H13819126   1.510   2.565   6.121  0.6084 -0.4230  1.1943
   95MOL   H13919127   1.211   2.619   6.151 -0.5003  0.2993 -2.0353
   95MOL   H14019128   1.381   2.372   6.084 -1.6549 -2.3376  0.1155
   95MOL   H14119129   1.212   2.404   6.040  0.4931 -3.1290  0.4620
   95MOL   C14219130   1.242   2.339   6.247 -0.2937 -0.1395 -0.8205
   95MOL   C14319131   1.243   2.191   6.235  0.1082  0.3881  0.5409
   95MOL   C14419132   1.148   2.110   6.268 -0.0286 -0.0221 -0.8164
   95MOL   C14519133   1.177   1.960   6.276  0.2827 -0.9779 -0.1669
   95MOL   H14619134   1.317   2.360   6.324  0.6963 -1.7644 -1.3217
   95MOL   H14719135   1.146   2.379   6.279  0.0308 -0.9097  1.2131
   95MOL   H14819136   1.347   2.165   6.219 -0.3674 -0.0789 -1.9172
   95MOL   H14919137   1.048   2.146   6.290 -0.2835 -1.3073  0.1507
   95MOL   H15019138   1.116   1.917   6.355 -0.6834 -1.1865 -1.0119
   95MOL   H15119139   1.281   1.950   6.307  0.5219 -0.2757 -0.7127
   95MOL   C15219140   1.142   1.875   6.158  0.3877 -0.0384  0.9009
   95MOL   C15319141   1.175   1.726   6.155  0.0487 -0.2844 -0.2236
   95MOL   C15419142   1.281   1.679   6.099 -0.4661  0.4933 -0.3889
   95MOL   C15519143   1.328   1.531   6.096  0.1060  0.3245  0.0845
   95MOL   H15619144   1.043   1.886   6.115  1.0552 -0.9149 -0.9148
   95MOL   H15719145   1.207   1.923   6.084 -0.2607  1.4874  1.2977
   95MOL   H15819146   1.107   1.657   6.203  1.6511 -2.0064 -0.3920
   95MOL   H15919147   1.356   1.748   6.063  0.7975 -0.0839  1.0988
   95MOL   H16019148   1.249   1.461   6.126  0.6156  0.0468  0.7966
   95MOL   H16119149   1.410   1.512   6.165 -0.5517 -2.8655  0.0744
   95MOL   C16219150   1.371   1.495   5.948  0.0552  0.6280 -0.0975
   95MOL   C16319151   1.413   1.351   5.928 -0.1644 -0.5878 -0.0129
   95MOL   C16419152   1.392   1.251   6.011  0.4408 -0.3163 -0.1543
   95MOL   C16519153   1.427   1.106   5.978 -0.7860 -0.3897 -0.4428
   95MOL   H16619154   1.303   1.521   5.867  2.3715  0.0133 -2.3471
   95MOL   H16719155   1.457   1.561   5.931  1.6216 -1.0460  1.0872
   95MOL   H16819156   1.461   1.339   5.832  0.3547  1.6661 -0.0638
   95MOL   H16919157   1.345   1.263   6.107  1.3487 -0.2073  0.2835
   95MOL   H17019158   1.437   1.106   5.870 -0.4373  0.3220 -0.4057
   95MOL   H17119159   1.343   1.040   6.003 -0.6294 -0.7842 -0.9347
   95MOL   C17219160   1.543   1.051   6.067 -0.1346 -0.1593 -0.5165
   95MOL   C17319161   1.678   1.116   6.053  0.4195  0.2411 -0.0215
   95MOL   C17419162   1.794   1.047   6.030 -0.1577 -0.1021 -0.1041
   95MOL   C17519163   1.925   1.130   6.021 -0.0750 -0.1488  0.6304
   95MOL   H17619164   1.521   1.039   6.172  2.2546  0.2660  0.0740
   95MOL   H17719165   1.549   0.947   6.033 -1.3826  0.1165 -1.6084
   95MOL   H17819166   1.676   1.224   6.064 -1.9189  0.1109  1.1953
   95MOL   H17919167   1.783   0.939   6.036  0.0023 -0.0957  0.3842
   95MOL   H18019168   1.895   1.220   5.967 -2.2874 -0.2509  1.6520
   95MOL   H18119169   1.996   1.077   5.957  1.5614 -0.5849  2.7608
   95MOL   C18219170   1.990   1.141   6.159  0.3613  0.0438 -0.0393
   95MOL   C18319171   2.130   1.201   6.149  0.4296  0.1033  0.7587
   95MOL   C18419172   2.236   1.125   6.140 -0.1732  0.0081  0.2520
   95MOL   C18519173   2.380   1.161   6.124 -0.6091  0.0609 -0.3148
   95MOL   H18619174   1.928   1.212   6.213 -1.3500 -1.3799 -0.1008
   95MOL   H18719175   2.000   1.050   6.217 -1.7474  0.2205  0.6361
   95MOL   H18819176   2.134   1.308   6.154 -0.7021  0.1131  1.6000
   95MOL   H18919177   2.213   1.020   6.131  0.0030  0.0647 -1.0551
   95MOL   H19019178   2.441   1.103   6.193  1.1570  0.9347 -1.1038
   95MOL   H19119179   2.398   1.265   6.154 -0.0036 -0.9097  2.8866
   95MOL   C19219180   2.429   1.159   5.976  0.3475 -0.6894 -0.0862
   95MOL   C19319181   2.574   1.144   5.984  0.6788  0.0585 -0.2682
   95MOL   C19419182   2.642   1.036   5.930 -0.2971 -0.1882 -0.5130
   95MOL   C19519183   2.791   1.001   5.950  0.2705 -0.6534  0.5099
   95MOL   H19619184   2.382   1.075   5.926 -2.2272  0.0103  1.1097
   95MOL   H19719185   2.404   1.247   5.916 -1.2967 -1.6705 -0.8663
   95MOL   H19819186   2.626   1.220   6.041 -0.2750 -0.1000  0.8388
   95MOL   H19919187   2.591   0.960   5.872 -0.2939 -1.7809  1.5283
   95MOL   H20019188   2.822   0.930   5.872  1.4017  0.2560  0.1172
   95MOL   H20119189   2.811   0.947   6.043  0.1645  2.1084  2.1753
   95MOL   H20219190   2.856   1.086   5.933  2.5123 -2.5063 -0.5843
   96MOL     C119191   0.304   3.135   5.591  0.1989  0.4811 -0.1817
   96MOL     C219192   0.187   3.045   5.624 -0.1331  0.1825  0.5523
   96MOL     C319193   0.146   2.940   5.548  1.0919  0.4522  0.5680
   96MOL     C419194   0.024   2.851   5.594  0.3834 -0.0051  0.0468
   96MOL     H519195   0.273   3.233   5.556 -0.9538  0.3217  0.3949
   96MOL     H619196   0.367   3.089   5.514 -1.0276 -0.8842 -0.3902
   96MOL     H719197   0.130   3.072   5.712  1.1925 -2.5111  2.2915
   96MOL     H819198   0.193   2.901   5.459  0.4415  0.6561  0.1368
   96MOL     H919199   0.035   2.824   5.699 -0.3787 -2.7604 -0.5358
   96MOL    H1019200   0.039   2.757   5.541  1.1148  0.5693 -0.7694
   96MOL    H1119201   0.367   3.148   5.679 -1.2279 -0.0055  0.9208
   96MOL    C1219202   7.871   2.909   5.546 -0.2224  0.9422 -0.0626
   96MOL    C1319203   7.804   3.012   5.635 -0.1686  0.5591  0.1290
   96MOL    C1419204   7.680   3.000   5.688 -0.0895 -0.4439  1.1634
   96MOL    C1519205   7.613   3.092   5.780  0.4574  0.0707  0.4943
   96MOL    H1619206   7.891   2.959   5.452  2.4242 -0.9707 -0.5767
   96MOL    H1719207   7.790   2.838   5.531 -0.9499  1.8648 -0.5109
   96MOL    H1819208   7.858   3.102   5.657 -1.6577  1.2352  1.1041
   96MOL    H1919209   7.615   2.918   5.663 -2.7621  1.5245  1.4097
   96MOL    H2019210   7.671   3.181   5.806  3.0291 -1.0073 -1.3436
   96MOL    H2119211   7.612   3.044   5.877  0.0807  0.6103  0.7608
   96MOL    C2219212   7.475   3.130   5.735 -0.1101  0.6203 -0.0287
   96MOL    C2319213   7.403   3.214   5.839  0.2543 -0.0101  0.7990
   96MOL    C2419214   7.304   3.159   5.919 -0.3737 -0.2463 -0.4926
   96MOL    C2519215   7.230   3.244   6.017  0.2210 -0.3377 -0.2188
   96MOL    H2619216   7.481   3.190   5.644  1.5208  2.8639  1.5076
   96MOL    H2719217   7.413   3.041   5.724  1.3775 -0.2908 -1.1851
   96MOL    H2819218   7.423   3.320   5.841 -4.7944  1.0708  0.9665
   96MOL    H2919219   7.294   3.052   5.923  0.5748 -0.3167  0.2573
   96MOL    H3019220   7.130   3.203   6.012  0.1533 -0.3657  1.2526
   96MOL    H3119221   7.228   3.345   5.974  0.0656 -0.4019 -0.3630
   96MOL    C3219222   7.287   3.245   6.163 -0.5486 -0.3570 -0.3669
   96MOL    C3319223   7.199   3.312   6.267  0.0569 -0.5434  0.6454
   96MOL    C3419224   7.214   3.441   6.309  0.3825 -0.3847 -0.1269
   96MOL    C3519225   7.132   3.525   6.398 -0.6064  0.2725 -0.5233
   96MOL    H3619226   7.301   3.145   6.205  0.0152  0.1266  0.6288
   96MOL    H3719227   7.388   3.283   6.149 -0.5600 -0.2374 -0.1265
   96MOL    H3819228   7.113   3.256   6.300  0.1246 -1.5146 -0.7896
   96MOL    H3919229   7.299   3.497   6.272  0.4292 -0.2126  0.2380
   96MOL    H4019230   7.033   3.483   6.414 -0.6258  0.4193 -0.2607
   96MOL    H4119231   7.107   3.618   6.347  0.3501 -0.2109 -1.8988
   96MOL    C4219232   7.195   3.556   6.531  0.4311 -0.0765  0.4865
   96MOL    C4319233   7.092   3.625   6.616  0.0990  0.4429  0.4337
   96MOL    C4419234   7.064   3.592   6.747 -0.0938 -0.0867 -0.2900
   96MOL    C4519235   6.959   3.666   6.822 -0.5682  0.0297  0.4000
   96MOL    H4619236   7.223   3.459   6.572  0.3499 -0.0392  0.6295
   96MOL    H4719237   7.289   3.610   6.532 -0.6581  2.1843 -4.1850
   96MOL    H4819238   7.046   3.711   6.570 -0.1306  0.4686  0.7098
   96MOL    H4919239   7.114   3.512   6.800 -1.7871 -0.1236  1.3120
   96MOL    H5019240   6.908   3.738   6.757 -2.0909  1.3090  2.9058
   96MOL    H5119241   6.999   3.724   6.906  0.5774  1.3233 -1.0097
   96MOL    C5219242   6.855   3.573   6.884  0.1860 -0.2891  0.5716
   96MOL    C5319243   6.757   3.655   6.973 -0.6907 -0.0208 -0.7647
   96MOL    C5419244   6.741   3.634   7.108  0.1582  0.1954 -0.2260
   96MOL    C5519245   6.633   3.694   7.204  0.3954  0.3111 -0.4002
   96MOL    H5619246   6.818   3.521   6.796 -0.9961 -0.8733  1.4009
   96MOL    H5719247   6.904   3.502   6.952 -2.6609 -2.5704  0.3199
   96MOL    H5819248   6.696   3.726   6.919  0.0569  1.1477 -0.1141
   96MOL    H5919249   6.801   3.561   7.160 -2.2681 -1.8760 -0.2065
   96MOL    H6019250   6.669   3.709   7.305 -1.6015 -0.4512  0.4545
   96MOL    H6119251   6.546   3.628   7.213 -0.0817  1.1760  1.3988
   96MOL    C6219252   6.580   3.834   7.158 -0.0029  0.0798 -0.2455
   96MOL    C6319253   6.542   3.919   7.276  0.0201 -0.3423 -0.0645
   96MOL    C6419254   6.632   3.992   7.344  0.3817 -0.8434 -0.0231
   96MOL    C6519255   6.601   4.081   7.464  0.2001 -0.4631 -0.1443
   96MOL    H6619256   6.661   3.874   7.096  1.2490 -2.6272 -0.4370
   96MOL    H6719257   6.492   3.832   7.094  0.7955  1.5465 -1.4233
   96MOL    H6819258   6.440   3.937   7.308 -0.4115  1.2136 -2.2418
   96MOL    H6919259   6.737   3.986   7.320  0.8336  0.4918  1.5399
   96MOL    H7019260   6.593   4.029   7.559 -0.5566 -0.1213 -0.0193
   96MOL    H7119261   6.504   4.125   7.443 -0.0955 -1.1954 -0.3171
   96MOL    C7219262   6.702   4.190   7.479 -0.1663  0.4757 -0.4030
   96MOL    C7319263   6.666   4.279   7.597 -0.1078 -0.2160 -0.3900
   96MOL    C7419264   6.727   4.270   7.715  0.1206 -0.0238  0.0700
   96MOL    C7519265   6.699   4.345   7.848 -0.1402  0.2897  0.6019
   96MOL    H7619266   6.804   4.152   7.490 -0.5964 -0.3745  0.8525
   96MOL    H7719267   6.703   4.245   7.385 -1.2405  1.3859  0.1043
   96MOL    H7819268   6.577   4.337   7.581 -0.1260  0.7683  2.8578
   96MOL    H7919269   6.819   4.213   7.716 -0.5486 -1.1207 -0.0640
   96MOL    H8019270   6.705   4.267   7.924  3.5131 -0.0632  0.0532
   96MOL    H8119271   6.595   4.379   7.848 -0.0583  0.5500 -0.3890
   96MOL    C8219272   6.809   4.449   7.882  0.3684  0.8249 -1.3487
   96MOL    C8319273   6.801   4.466   0.053  0.3853 -0.5155 -0.2558
   96MOL    C8419274   6.884   4.395   0.136 -0.1778 -0.3646 -0.6481
   96MOL    C8519275   6.889   4.407   0.293  0.1347  0.2063 -0.9262
   96MOL    H8619276   6.904   4.407   7.850  0.8243 -2.4984  3.7425
   96MOL    H8719277   6.792   4.545   7.832 -0.8676  0.2851 -1.9908
   96MOL    H8819278   6.724   4.539   0.073  2.0891  0.8240  1.5426
   96MOL    H8919279   6.954   4.322   0.097  0.3886  0.3087 -0.8911
   96MOL    H9019280   6.851   4.320   0.346 -0.1353  1.0399  0.2750
   96MOL    H9119281   6.820   4.487   0.321  0.9809 -0.1956  2.4137
   96MOL    C9219282   7.031   4.436   0.335  0.3664  0.3000  0.4828
   96MOL    C9319283   7.056   4.386   0.479  0.0883  0.3031  0.1802
   96MOL    C9419284   7.132   4.452   0.571  0.9344  0.3906 -0.0260
   96MOL    C9519285   7.178   4.400   0.706 -0.6229 -0.0365  0.7672
   96MOL    H9619286   7.109   4.393   0.272 -1.1381 -0.6174 -0.7995
   96MOL    H9719287   7.053   4.542   0.325  0.1954  0.2534 -0.4212
   96MOL    H9819288   7.008   4.291   0.502  2.0754 -0.3063  2.0645
   96MOL    H9919289   7.182   4.539   0.532  1.4844 -0.0392 -0.2947
   96MOL   H10019290   7.285   4.420   0.705 -0.1880 -2.1878  1.1273
   96MOL   H10119291   7.159   4.292   0.710  0.2148 -0.1747  0.9057
   96MOL   C10219292   7.103   4.472   0.825  0.0639 -0.3905 -0.4232
   96MOL   C10319293   7.159   4.410   0.958 -0.1806  0.0384  0.1887
   96MOL   C10419294   7.257   4.464   1.030 -0.2905  0.4664  0.4136
   96MOL   C10519295   7.311   4.411   1.166  0.4015 -0.1380  0.2126
   96MOL   H10619296   7.129   4.578   0.822  2.1600 -0.8052  1.5747
   96MOL   H10719297   6.994   4.471   0.819  0.1309  0.7193 -2.0360
   96MOL   H10819298   7.123   4.313   0.987 -0.2178 -0.1348 -0.4227
   96MOL   H10919299   7.303   4.556   0.997 -0.9725 -0.8279 -4.4094
   96MOL   H11019300   7.408   4.362   1.156  0.1290 -0.8305  0.8913
   96MOL   H11119301   7.250   4.328   1.202 -1.9691  1.8564  0.9139
   96MOL   C11219302   7.320   4.514   1.278 -0.4589 -0.0148  0.1806
   96MOL   C11319303   7.344   4.442   1.416 -0.1097  0.1432 -0.0436
   96MOL   C11419304   7.249   4.414   1.508 -0.3384 -0.4214 -0.4173
   96MOL   C11519305   7.285   4.330   1.621  0.2331  0.1182 -0.8751
   96MOL   H11619306   7.391   4.596   1.266  0.7649 -0.9219  1.0712
   96MOL   H11719307   7.223   4.564   1.279 -0.6633 -0.3672  3.1250
   96MOL   H11819308   7.447   4.411   1.424  0.8327  2.6407 -1.8046
   96MOL   H11919309   7.149   4.424   1.470 -0.5125 -0.7558 -0.0540
   96MOL   H12019310   7.285   4.387   1.714  3.6422 -1.6706  0.3562
   96MOL   H12119311   7.388   4.293   1.629 -0.2893 -1.0333  0.7477
   96MOL   C12219312   7.193   4.209   1.636  0.0892  0.6880 -0.0612
   96MOL   C12319313   7.206   4.142   1.769  0.0202  0.8406 -0.5021
   96MOL   C12419314   7.211   4.008   1.795  0.2744  0.1959  0.6193
   96MOL   C12519315   7.214   3.958   1.935 -0.4180  0.3130  0.4241
   96MOL   H12619316   7.092   4.249   1.622 -1.4900 -2.9350  0.4379
   96MOL   H12719317   7.205   4.144   1.550 -3.7029  1.3851 -1.2407
   96MOL   H12819318   7.187   4.207   1.853  0.0641 -1.6697  1.5051
   96MOL   H12919319   7.209   3.935   1.716 -2.1523  1.4740 -0.5182
   96MOL   H13019320   7.125   3.996   1.985 -1.1317  0.4617 -0.9471
   96MOL   H13119321   7.295   4.010   1.987 -0.8795  0.4779  0.9887
   96MOL   C13219322   7.222   3.801   1.946 -0.2286 -0.1174 -0.5878
   96MOL   C13319323   7.092   3.733   1.895  1.1244 -0.3460 -0.5684
   96MOL   C13419324   7.073   3.669   1.780  0.3043 -0.1519  0.8332
   96MOL   C13519325   6.937   3.619   1.722  1.2914  0.4666  0.1927
   96MOL   H13619326   7.317   3.769   1.903  0.3479 -0.6339  1.0149
   96MOL   H13719327   7.229   3.776   2.052 -0.4784  0.8613 -0.3384
   96MOL   H13819328   7.003   3.757   1.950  2.3091  3.2086 -0.1082
   96MOL   H13919329   7.158   3.669   1.713 -0.1930  0.9675  0.1692
   96MOL   H14019330   6.894   3.695   1.656  0.9313 -0.5195 -0.7166
   96MOL   H14119331   6.867   3.620   1.805  0.6866  4.3980 -0.2421
   96MOL   C14219332   6.949   3.483   1.650 -0.1428 -0.3926 -0.4332
   96MOL   C14319333   6.806   3.455   1.597 -0.2741  0.2078 -0.6765
   96MOL   C14419334   6.779   3.426   1.472 -0.1884 -0.4590  0.0521
   96MOL   C14519335   6.636   3.398   1.424  0.0103  0.3028 -0.3822
   96MOL   H14619336   7.014   3.507   1.566 -0.3508  0.8700 -0.2420
   96MOL   H14719337   6.990   3.399   1.705  0.7852 -0.4222 -1.1488
   96MOL   H14819338   6.730   3.441   1.673 -1.1029  1.0194 -1.3586
   96MOL   H14919339   6.856   3.434   1.397  0.4116  2.0841  0.9200
   96MOL   H15019340   6.593   3.497   1.408 -3.2982 -0.4849  2.8951
   96MOL   H15119341   6.567   3.352   1.495 -0.5225  2.4694  0.5290
   96MOL   C15219342   6.641   3.315   1.298  0.5307 -0.2918  0.5233
   96MOL   C15319343   6.505   3.297   1.235 -0.4760 -0.3640 -0.1394
   96MOL   C15419344   6.452   3.179   1.198 -0.1388  0.2300 -0.3174
   96MOL   C15519345   6.315   3.157   1.141 -0.3953  0.1221 -0.1135
   96MOL   H15619346   6.694   3.381   1.230  2.3141  0.5585  2.6997
   96MOL   H15719347   6.698   3.222   1.306  0.0318 -0.8502 -1.9511
   96MOL   H15819348   6.450   3.388   1.216 -1.7955 -1.5942 -2.4488
   96MOL   H15919349   6.515   3.092   1.211  3.0183  2.5946  0.6540
   96MOL   H16019350   6.328   3.138   1.035 -2.7125  0.3220 -0.4644
   96MOL   H16119351   6.249   3.244   1.146  0.5055  0.7485  1.3746
   96MOL   C16219352   6.243   3.042   1.202 -0.5121  0.4089 -0.5365
   96MOL   C16319353   6.123   2.986   1.123  0.3675 -0.0199  0.4304
   96MOL   C16419354   6.087   3.022   0.997 -0.6121  0.5566  0.1006
   96MOL   C16519355   5.965   2.978   0.924 -0.3698 -0.4357 -0.5103
   96MOL   H16619356   6.310   2.958   1.220  0.4395  1.7063  2.2453
   96MOL   H16719357   6.213   3.070   1.303  2.0429 -3.3446  1.4078
   96MOL   H16819358   6.062   2.906   1.162  2.0872 -1.8380 -0.4860
   96MOL   H16919359   6.134   3.099   0.938 -0.5644  1.0951  0.8303
   96MOL   H17019360   5.907   3.069   0.909  0.6796  0.5289  1.0796
   96MOL   H17119361   5.903   2.910   0.983 -1.1892  0.3261 -0.4767
   96MOL   C17219362   5.993   2.904   0.790  0.1263  0.2787  0.4887
   96MOL   C17319363   5.893   2.923   0.679 -0.1709 -0.8418  0.2921
   96MOL   C17419364   5.930   2.956   0.557 -0.2165 -0.0999 -0.2676
   96MOL   C17519365   5.845   2.979   0.433  0.0477 -0.3872  0.1544
   96MOL   H17619366   6.089   2.937   0.751  1.5113 -2.7309  1.1516
   96MOL   H17719367   6.011   2.798   0.810  1.6115  0.4302 -0.0237
   96MOL   H17819368   5.790   2.902   0.703 -1.0753  3.0528  0.0237
   96MOL   H17919369   6.032   2.979   0.530  1.4254 -0.5607  4.9340
   96MOL   H18019370   5.863   3.078   0.390 -1.9741 -0.1406 -0.1623
   96MOL   H18119371   5.741   3.003   0.458 -0.1433 -0.7961 -0.2449
   96MOL   C18219372   5.875   2.871   0.322 -0.0971  0.0660 -0.4268
   96MOL   C18319373   5.803   2.895   0.189  0.3499  0.1836  0.2634
   96MOL   C18419374   5.856   2.852   0.071 -0.2685  0.0070  0.4636
   96MOL   C18519375   5.781   2.851   7.919 -0.2759  0.0523  0.1037
   96MOL   H18619376   5.984   2.880   0.314  0.2727 -2.0009  1.7889
   96MOL   H18719377   5.853   2.767   0.344  3.2811 -0.5676  0.3387
   96MOL   H18819378   5.707   2.941   0.204  0.9149  1.4416  0.1594
   96MOL   H18919379   5.946   2.793   0.064  0.1487  0.3163  2.8198
   96MOL   H19019380   5.742   2.948   7.887 -0.6238 -1.0282 -2.8447
   96MOL   H19119381   5.692   2.792   7.942 -0.4984  1.0735  2.0508
   96MOL   C19219382   5.862   2.791   7.794 -0.3068  0.0267 -0.6674
   96MOL   C19319383   5.769   2.781   7.683 -0.4888  0.7935  0.9445
   96MOL   C19419384   5.776   2.845   7.569  1.0371 -0.6200 -0.8268
   96MOL   C19519385   5.672   2.844   7.464  0.1816 -0.2404  0.4565
   96MOL   H19619386   5.944   2.858   7.774  0.0499 -0.5335 -1.1018
   96MOL   H19719387   5.909   2.694   7.810  2.6728  1.7195  1.1036
   96MOL   H19819388   5.687   2.713   7.695  0.5309 -0.3798  1.4427
   96MOL   H19919389   5.853   2.920   7.556  0.1198  0.5354  0.2461
   96MOL   H20019390   5.615   2.937   7.464  0.8987  0.2078  0.9804
   96MOL   H20119391   5.601   2.763   7.479 -1.4660  0.8307 -1.1828
   96MOL   H20219392   5.716   2.830   7.365 -1.0212  0.8327 -0.2532
   97MOL     C119393   7.428   1.573   7.025 -0.6118  0.5062 -0.1619
   97MOL     C219394   7.549   1.557   7.107 -0.0841  0.7951 -0.3754
   97MOL     C319395   7.641   1.648   7.123  0.1167  0.0661 -0.1571
   97MOL     C419396   7.778   1.635   7.196 -0.2138  0.1836 -0.4404
   97MOL     H519397   7.438   1.669   6.975 -3.0710  0.2664 -1.1644
   97MOL     H619398   7.331   1.562   7.074 -0.0700  1.0901  1.0699
   97MOL     H719399   7.570   1.462   7.154 -1.1223  0.1411 -1.2070
   97MOL     H819400   7.635   1.747   7.082 -2.2249 -0.1805 -0.4541
   97MOL     H919401   7.854   1.655   7.120 -0.7701 -2.0467 -1.5956
   97MOL    H1019402   7.798   1.533   7.227 -0.7253 -0.2481 -1.5226
   97MOL    H1119403   7.428   1.504   6.941  0.8985  0.3743 -0.0659
   97MOL    C1219404   7.783   1.741   7.311 -0.0704 -0.5584  0.1081
   97MOL    C1319405   7.668   1.735   7.413  0.2727 -0.7878  0.1156
   97MOL    C1419406   7.685   1.740   7.548 -0.6791  0.0491  0.0290
   97MOL    C1519407   7.571   1.749   7.644 -0.0887  0.0237  0.1317
   97MOL    H1619408   7.881   1.748   7.358  1.3523  1.2679 -2.9751
   97MOL    H1719409   7.781   1.834   7.254  1.4852 -1.0740 -0.7996
   97MOL    H1819410   7.568   1.740   7.372  0.4911 -1.1043 -0.4678
   97MOL    H1919411   7.783   1.744   7.595 -0.4721 -2.4595 -0.1319
   97MOL    H2019412   7.583   1.658   7.703 -0.7791 -0.3659 -0.3135
   97MOL    H2119413   7.474   1.749   7.594  0.7721  1.9764 -1.6191
   97MOL    C2219414   7.577   1.874   7.736  0.4672 -0.0493 -0.0021
   97MOL    C2319415   7.494   1.878   7.862  0.2643  0.6271 -0.0467
   97MOL    C2419416   7.434   1.769   7.913  0.0971  0.1295  0.5253
   97MOL    C2519417   7.352   1.760   0.064  0.0458  0.1187 -0.1731
   97MOL    H2619418   7.682   1.882   7.764  1.0625  1.5953 -2.5864
   97MOL    H2719419   7.566   1.968   7.682  0.2642  0.1617  0.4099
   97MOL    H2819420   7.487   1.970   7.919  2.2011 -0.0159  1.2505
   97MOL    H2919421   7.444   1.674   7.862  2.5299  0.2657  0.6845
   97MOL    H3019422   7.252   1.772   0.023  1.3724  2.6317 -2.8048
   97MOL    H3119423   7.369   1.850   0.124  2.7637 -0.7365  0.3932
   97MOL    C3219424   7.379   1.641   0.151 -0.2083 -0.2367  0.3588
   97MOL    C3319425   7.313   1.655   0.284  0.3073  0.0091 -0.2074
   97MOL    C3419426   7.216   1.573   0.320  0.4203 -0.2713 -0.3128
   97MOL    C3519427   7.137   1.577   0.450  0.2078 -0.1738  0.0911
   97MOL    H3619428   7.355   1.551   0.095 -0.2382  1.2189 -2.0039
   97MOL    H3719429   7.485   1.630   0.175 -0.0293  0.3175 -0.1618
   97MOL    H3819430   7.349   1.732   0.350 -2.6048  1.3478 -0.1283
   97MOL    H3919431   7.192   1.496   0.248 -0.1140 -0.9429  0.5804
   97MOL    H4019432   7.029   1.581   0.440  0.3854  0.8312 -1.6335
   97MOL    H4119433   7.159   1.669   0.505  1.0107  0.7024 -1.6437
   97MOL    C4219434   7.162   1.447   0.535  0.2465 -0.0398 -0.5203
   97MOL    C4319435   7.105   1.450   0.677 -0.6781  0.5763  0.0806
   97MOL    C4419436   7.035   1.348   0.734 -0.5490 -0.2450 -0.9705
   97MOL    C4519437   6.995   1.343   0.876 -0.0937  0.2377  0.0808
   97MOL    H4619438   7.142   1.353   0.482  0.5258 -0.9434  0.9695
   97MOL    H4719439   7.268   1.436   0.555  0.0032  0.5310  1.1126
   97MOL    H4819440   7.130   1.536   0.737  0.4246  0.5493 -0.3257
   97MOL    H4919441   7.026   1.253   0.684  0.2781 -0.9694  0.2273
   97MOL    H5019442   6.892   1.310   0.885  0.5010 -1.5280  0.5594
   97MOL    H5119443   7.000   1.447   0.911 -0.5214  0.3726 -0.2654
   97MOL    C5219444   7.092   1.247   0.962  0.0557  0.6130  0.7963
   97MOL    C5319445   7.017   1.210   1.085 -0.1864  0.1338  0.4351
   97MOL    C5419446   7.042   1.271   1.202 -0.0903 -0.0436 -0.0091
   97MOL    C5519447   6.967   1.241   1.337  0.3689 -0.2581 -0.4659
   97MOL    H5619448   7.124   1.162   0.902  0.1873  1.0066  0.3071
   97MOL    H5719449   7.184   1.300   0.987  0.5855  0.6558 -1.2152
   97MOL    H5819450   6.939   1.136   1.077 -1.0495  0.9879  0.8105
   97MOL    H5919451   7.126   1.338   1.208  0.2577 -0.4257 -0.5549
   97MOL    H6019452   7.042   1.236   1.415 -1.1584  2.1973  1.2360
   97MOL    H6119453   6.925   1.141   1.327  0.4047 -0.2142 -1.1093
   97MOL    C6219454   6.876   1.355   1.384  0.3955 -0.9032  0.6698
   97MOL    C6319455   6.807   1.330   1.514 -0.3209 -0.0261  0.4691
   97MOL    C6419456   6.817   1.404   1.626  1.3074  0.3423  0.5430
   97MOL    C6519457   6.743   1.362   1.756  0.1725  0.5027  0.4414
   97MOL    H6619458   6.938   1.444   1.390  0.4106 -0.9838  1.7327
   97MOL    H6719459   6.795   1.368   1.312  0.4036  0.7372  0.9468
   97MOL    H6819460   6.750   1.238   1.514 -0.5250  0.0913  1.9981
   97MOL    H6919461   6.864   1.500   1.629  0.6810  0.6429  0.8366
   97MOL    H7019462   6.721   1.255   1.750  2.7502  0.0468 -2.0316
   97MOL    H7119463   6.646   1.409   1.769 -0.3037 -0.0216 -1.1065
   97MOL    C7219464   6.831   1.398   1.879  0.3793 -0.0152 -0.2962
   97MOL    C7319465   6.775   1.350   2.010  0.4560  0.1547  0.2961
   97MOL    C7419466   6.783   1.415   2.123  0.5035 -0.3320 -0.1053
   97MOL    C7519467   6.751   1.361   2.260 -0.2624 -0.8270 -0.8799
   97MOL    H7619468   6.929   1.349   1.875  0.3674  0.1274 -3.4454
   97MOL    H7719469   6.848   1.506   1.880 -0.1657  0.0760  2.7599
   97MOL    H7819470   6.748   1.245   2.007 -1.7735  0.7521 -3.4261
   97MOL    H7919471   6.833   1.510   2.127 -0.3350  0.3171 -3.4527
   97MOL    H8019472   6.848   1.336   2.305  0.0538 -0.0939 -1.1485
   97MOL    H8119473   6.709   1.261   2.245  1.5484 -1.9059  0.9198
   97MOL    C8219474   6.651   1.432   2.350  0.1569 -0.4267 -0.1989
   97MOL    C8319475   6.717   1.532   2.438 -0.2187 -0.0483  0.1281
   97MOL    C8419476   6.710   1.539   2.570  0.4777 -0.2037  0.1721
   97MOL    C8519477   6.782   1.644   2.651 -0.3448  0.5063  0.1702
   97MOL    H8619478   6.581   1.486   2.287 -0.3443 -0.7894  0.0446
   97MOL    H8719479   6.590   1.363   2.408  0.8247  0.3167  1.4295
   97MOL    H8819480   6.773   1.610   2.388 -0.5675 -0.4334 -0.8850
   97MOL    H8919481   6.646   1.468   2.620  0.7873 -0.5628  0.0628
   97MOL    H9019482   6.717   1.731   2.659  0.3869  1.1595 -0.8980
   97MOL    H9119483   6.868   1.684   2.598  0.0556  0.7748  1.0131
   97MOL    C9219484   6.841   1.592   2.788  0.8107 -0.3773  0.4607
   97MOL    C9319485   6.894   1.697   2.873 -0.4304 -0.6719  0.5183
   97MOL    C9419486   6.837   1.749   2.987 -0.0945 -0.2513  0.5856
   97MOL    C9519487   6.893   1.857   3.069  0.2991 -0.5225 -0.2670
   97MOL    H9619488   6.759   1.536   2.833 -0.5368 -0.9398 -2.5491
   97MOL    H9719489   6.925   1.524   2.773  2.4921  1.8665 -0.6513
   97MOL    H9819490   6.985   1.740   2.834 -1.0350 -2.2626 -2.7677
   97MOL    H9919491   6.744   1.716   3.033  0.0683 -0.8067  0.5242
   97MOL   H10019492   6.994   1.884   3.037  0.2711 -0.4290 -0.2760
   97MOL   H10119493   6.891   1.825   3.173 -0.7405 -1.3450 -0.5323
   97MOL   C10219494   6.804   1.983   3.064  0.3286 -0.2768  0.4511
   97MOL   C10319495   6.717   2.010   2.932  0.3072 -0.5391  1.1875
   97MOL   C10419496   6.727   2.107   2.838 -0.2276  0.0631  0.2135
   97MOL   C10519497   6.628   2.119   2.729  0.1552  0.4346  0.8007
   97MOL   H10619498   6.729   1.988   3.143  1.0905  0.7061  1.1293
   97MOL   H10719499   6.865   2.071   3.083  0.4331 -0.6706  2.0614
   97MOL   H10819500   6.639   1.939   2.910 -2.0962  3.1308 -2.9205
   97MOL   H10919501   6.805   2.182   2.845 -0.1613  0.0534 -0.4353
   97MOL   H11019502   6.594   2.220   2.708 -0.9401  0.0552  0.7022
   97MOL   H11119503   6.533   2.066   2.741 -0.7905  1.6603 -1.0015
   97MOL   C11219504   6.685   2.064   2.599 -0.0830  0.2588 -0.9137
   97MOL   C11319505   6.585   2.041   2.488 -0.8369 -0.1507  0.4325
   97MOL   C11419506   6.573   1.924   2.415 -0.5467  0.7191  0.0863
   97MOL   C11519507   6.472   1.889   2.310  0.3311 -0.3010 -0.3259
   97MOL   H11619508   6.761   2.139   2.578  0.5842 -0.4654 -1.1330
   97MOL   H11719509   6.753   1.980   2.617  0.0843  0.5610 -0.0871
   97MOL   H11819510   6.506   2.115   2.483 -0.2255  0.4488 -0.3907
   97MOL   H11919511   6.645   1.847   2.441 -1.2081 -0.4474 -1.4292
   97MOL   H12019512   6.441   1.986   2.272  1.4628  0.4504  0.6279
   97MOL   H12119513   6.390   1.842   2.364  1.5507 -1.2330  0.7683
   97MOL   C12219514   6.523   1.815   2.183  0.6678  0.2139  0.0037
   97MOL   C12319515   6.399   1.772   2.101 -0.1074 -0.4479  0.1288
   97MOL   C12419516   6.372   1.645   2.064 -0.1467  0.2813 -0.0924
   97MOL   C12519517   6.256   1.619   1.967  0.2519 -0.1857 -0.2921
   97MOL   H12619518   6.586   1.881   2.125  0.5889  0.0057 -0.3213
   97MOL   H12719519   6.571   1.721   2.210  0.1611 -0.3924 -1.1887
   97MOL   H12819520   6.338   1.845   2.050 -0.4312 -0.3903  0.5930
   97MOL   H12919521   6.436   1.567   2.102 -0.7062 -0.8959 -1.5323
   97MOL   H13019522   6.201   1.713   1.956  0.6359 -0.0002 -0.6793
   97MOL   H13119523   6.196   1.555   2.031 -0.6868 -0.5873 -1.5641
   97MOL   C13219524   6.294   1.532   1.846  0.6937 -0.1553  0.8704
   97MOL   C13319525   6.170   1.527   1.751  0.3709  0.0222 -0.6314
   97MOL   C13419526   6.110   1.410   1.724  0.7276 -0.4924 -0.2303
   97MOL   C13519527   5.994   1.394   1.629  0.1217 -0.1703 -0.2629
   97MOL   H13619528   6.375   1.576   1.787 -0.7629  1.8673  0.3157
   97MOL   H13719529   6.320   1.432   1.880 -2.3536 -2.0906 -2.0950
   97MOL   H13819530   6.139   1.618   1.702 -1.4146 -0.1877  0.0814
   97MOL   H13919531   6.143   1.317   1.768  0.3118 -1.3127 -1.6132
   97MOL   H14019532   5.958   1.490   1.592  1.2077  1.0281  1.6955
   97MOL   H14119533   5.911   1.353   1.687 -2.2638  0.9702 -2.7489
   97MOL   C14219534   6.016   1.304   1.508  0.4194  0.4557  0.3591
   97MOL   C14319535   5.889   1.256   1.431 -0.5680 -0.1590 -0.1558
   97MOL   C14419536   5.892   1.245   1.298  0.4915 -0.5302  0.8850
   97MOL   C14519537   5.787   1.166   1.222  0.0566  0.6127  0.7973
   97MOL   H14619538   6.087   1.352   1.439 -0.9125  0.8970 -0.7233
   97MOL   H14719539   6.074   1.218   1.541  0.0499  0.1259  0.1380
   97MOL   H14819540   5.805   1.217   1.488  0.8783 -1.8477  0.8760
   97MOL   H14919541   5.973   1.283   1.237 -1.8040  1.3684 -1.0727
   97MOL   H15019542   5.701   1.133   1.280 -0.4921  0.1877 -0.2564
   97MOL   H15119543   5.829   1.068   1.205 -2.9833 -0.8548  1.3715
   97MOL   C15219544   5.739   1.237   1.096  0.4618 -0.0943  0.2380
   97MOL   C15319545   5.632   1.151   1.027 -1.0567  0.2458 -0.3975
   97MOL   C15419546   5.649   1.085   0.913 -0.3641  0.3421 -0.5002
   97MOL   C15519547   5.551   0.985   0.852 -0.7186 -0.7707 -0.2160
   97MOL   H15619548   5.692   1.334   1.109  1.8484  0.6437 -0.1583
   97MOL   H15719549   5.829   1.257   1.036  1.3823 -1.7164  1.0440
   97MOL   H15819550   5.541   1.133   1.082 -1.1668 -2.1411 -1.3129
   97MOL   H15919551   5.744   1.113   0.870  1.0177 -1.2118  1.4544
   97MOL   H16019552   5.559   0.990   0.744  1.3980 -1.2084 -0.0995
   97MOL   H16119553   5.449   1.019   0.870  0.5578  2.4358  1.4278
   97MOL   C16219554   5.565   0.845   0.903 -0.5091  0.8173  0.0419
   97MOL   C16319555   5.467   0.755   0.831  0.4586  0.0804  0.1318
   97MOL   C16419556   5.507   0.651   0.757  0.4511  0.2543  0.0134
   97MOL   C16519557   5.413   0.551   0.688 -0.1578  0.4221  0.3147
   97MOL   H16619558   5.658   0.791   0.887 -1.1357 -0.1428 -0.4547
   97MOL   H16719559   5.535   0.835   1.007  0.5283  2.2028  0.4764
   97MOL   H16819560   5.362   0.756   0.854  0.1675  1.4432 -1.1434
   97MOL   H16919561   5.613   0.642   0.741  0.0945 -0.7670 -1.9438
   97MOL   H17019562   5.416   0.601   0.591 -2.2514  3.6110  1.8295
   97MOL   H17119563   5.314   0.550   0.732 -0.5060 -1.4434 -0.4580
   97MOL   C17219564   5.472   0.406   0.679 -0.1348  0.2517 -0.5015
   97MOL   C17319565   5.526   0.369   0.545 -0.0874  0.0817 -0.1745
   97MOL   C17419566   5.456   0.319   0.444 -0.7246 -0.4028  0.0294
   97MOL   C17519567   5.516   0.299   0.302  0.4102  0.1060  0.3292
   97MOL   H17619568   5.551   0.380   0.748 -0.3562 -0.6594 -0.5794
   97MOL   H17719569   5.388   0.339   0.698  0.5916 -0.5999 -0.2426
   97MOL   H17819570   5.633   0.384   0.535 -0.0671 -0.4505 -0.7727
   97MOL   H17919571   5.350   0.312   0.460 -0.4856 -3.1236  0.5898
   97MOL   H18019572   5.624   0.309   0.305  0.4706 -0.6227  0.8703
   97MOL   H18119573   5.477   0.381   0.242  0.3324  0.0006  0.2341
   97MOL   C18219574   5.470   0.171   0.243  0.5801 -0.7597  0.8078
   97MOL   C18319575   5.493   0.037   0.311  0.2692 -0.2253 -0.2832
   97MOL   C18419576   5.598   7.938   0.277  0.4963 -0.1842 -0.5583
   97MOL   C18519577   5.628   7.799   0.329 -1.0844  0.2927 -0.3528
   97MOL   H18619578   5.363   0.179   0.227  0.5555  0.4999  1.5307
   97MOL   H18719579   5.523   0.154   0.149  0.3539  0.0837  0.5234
   97MOL   H18819580   5.418   0.000   0.380 -1.4713 -0.4847 -2.2468
   97MOL   H18919581   5.666   0.004   0.205 -1.5826  2.9490 -0.7696
   97MOL   H19019582   5.594   7.787   0.432  1.2232  0.0082  0.3972
   97MOL   H19119583   5.736   7.792   0.344 -1.2455 -3.0082 -0.3299
   97MOL   C19219584   5.594   7.681   0.237 -0.5171  0.0188 -0.1984
   97MOL   C19319585   5.638   7.543   0.293 -0.6051  0.8731 -0.4863
   97MOL   C19419586   5.738   7.460   0.254 -0.0655  0.1795  0.3182
   97MOL   C19519587   5.761   7.319   0.301  0.6038 -0.4901  0.1378
   97MOL   H19619588   5.488   7.678   0.211  0.1987  2.2196 -3.6657
   97MOL   H19719589   5.647   7.686   0.142 -1.2558  2.5390 -0.5171
   97MOL   H19819590   5.579   7.511   0.378 -1.1929  0.0974 -1.1898
   97MOL   H19919591   5.811   7.486   0.178 -0.5891  2.0538  0.4279
   97MOL   H20019592   5.862   7.315   0.342  1.0717  0.7729 -0.8712
   97MOL   H20119593   5.748   7.240   0.226  1.1385 -0.3037 -0.1562
   97MOL   H20219594   5.704   7.293   0.390  0.7222 -1.4537 -0.0584
   98MOL     C119595   3.214   3.117   2.210  0.3901  0.8487 -0.3323
   98MOL     C219596   3.093   3.175   2.141 -0.1683 -0.3163  0.2198
   98MOL     C319597   3.074   3.305   2.098  0.4300  0.2474 -0.9509
   98MOL     C419598   2.956   3.350   2.012  0.7591 -0.5873  1.0243
   98MOL     H519599   3.183   3.077   2.306  1.5094  1.3676  0.2558
   98MOL     H619600   3.284   3.197   2.233  0.1833  1.1482 -0.7522
   98MOL     H719601   3.023   3.098   2.111  0.4356 -1.6941  2.2674
   98MOL     H819602   3.147   3.381   2.123 -1.0699  1.7139 -0.9042
   98MOL     H919603   2.887   3.265   2.015 -1.4844  1.1600  0.5430
   98MOL    H1019604   2.989   3.351   1.908  0.1028  2.8591  0.8011
   98MOL    H1119605   3.248   3.036   2.146  1.0143 -0.4858  1.6381
   98MOL    C1219606   2.889   3.477   2.074  0.4897  0.7535 -0.2895
   98MOL    C1319607   2.766   3.541   1.999 -0.2060 -0.3173  0.1968
   98MOL    C1419608   2.639   3.537   2.037 -0.1595 -0.3158  0.2620
   98MOL    C1519609   2.527   3.599   1.962 -0.3765 -0.8042  0.1415
   98MOL    H1619610   2.852   3.441   2.170  0.2440  0.3817 -0.5235
   98MOL    H1719611   2.963   3.553   2.100  0.9453 -0.8816  3.5468
   98MOL    H1819612   2.785   3.576   1.898  1.1958 -0.7218  0.3112
   98MOL    H1919613   2.614   3.487   2.129  0.3042 -2.3672 -0.6923
   98MOL    H2019614   2.496   3.523   1.891  1.3107 -1.3574 -0.0214
   98MOL    H2119615   2.568   3.683   1.906  1.1734 -1.6270  0.0167
   98MOL    C2219616   2.416   3.637   2.061 -0.5219 -0.8012  0.0234
   98MOL    C2319617   2.339   3.527   2.136  0.5872 -0.0242 -0.7507
   98MOL    C2419618   2.274   3.563   2.243  0.4821  0.0722 -0.5188
   98MOL    C2519619   2.179   3.480   2.322  0.0209 -0.4192  0.2076
   98MOL    H2619620   2.453   3.711   2.132 -3.9057 -0.7517  1.8473
   98MOL    H2719621   2.347   3.689   1.994  1.0152 -1.4063 -2.0859
   98MOL    H2819622   2.344   3.428   2.092 -0.4465  0.0859 -1.1277
   98MOL    H2919623   2.279   3.665   2.278  0.9263  0.4982 -1.8053
   98MOL    H3019624   2.173   3.383   2.273  0.1400 -0.6015  0.5529
   98MOL    H3119625   2.081   3.527   2.315  0.9859  1.6208 -0.1425
   98MOL    C3219626   2.227   3.457   2.463 -0.5512 -0.9005 -0.0088
   98MOL    C3319627   2.166   3.335   2.532 -0.1762  0.6104 -0.2427
   98MOL    C3419628   2.217   3.208   2.553 -0.2899 -0.7612 -0.1595
   98MOL    C3519629   2.141   3.087   2.614  0.3849 -0.1894 -0.3236
   98MOL    H3619630   2.334   3.438   2.468 -0.1468  0.3708 -2.6503
   98MOL    H3719631   2.220   3.552   2.517 -0.6246 -0.7046 -0.3616
   98MOL    H3819632   2.070   3.356   2.578 -0.8798 -2.4340 -0.2346
   98MOL    H3919633   2.311   3.187   2.504  0.0663 -0.9507  0.6092
   98MOL    H4019634   2.141   3.003   2.545 -0.4605 -0.9793  0.6226
   98MOL    H4119635   2.036   3.112   2.635 -0.0830 -0.8903 -1.7581
   98MOL    C4219636   2.206   3.032   2.739 -0.4802 -0.0203 -0.0783
   98MOL    C4319637   2.352   2.997   2.720  0.5388  0.0532  0.0535
   98MOL    C4419638   2.395   2.878   2.756 -0.4751 -0.4959  0.3604
   98MOL    C4519639   2.546   2.839   2.736  0.4945 -0.0088 -0.8057
   98MOL    H4619640   2.184   3.098   2.823 -0.7229 -1.4655  1.0143
   98MOL    H4719641   2.162   2.938   2.771 -0.9991  0.3291  0.2384
   98MOL    H4819642   2.411   3.077   2.681  0.6671  0.5985  1.3238
   98MOL    H4919643   2.325   2.799   2.781  1.1625 -3.1212 -2.8390
   98MOL    H5019644   2.599   2.871   2.825  0.5017 -0.9099 -0.4763
   98MOL    H5119645   2.579   2.891   2.646  2.3358 -3.0604 -1.9913
   98MOL    C5219646   2.556   2.688   2.715  0.9300  0.2019  0.5640
   98MOL    C5319647   2.701   2.648   2.710  0.3595  0.5837 -0.2778
   98MOL    C5419648   2.755   2.561   2.797  0.4363 -0.4414  0.0540
   98MOL    C5519649   2.874   2.471   2.776 -0.0330  0.6270  0.0829
   98MOL    H5619650   2.498   2.631   2.788 -0.0338 -1.4250 -1.4220
   98MOL    H5719651   2.515   2.666   2.616  2.1846 -0.8459  0.2613
   98MOL    H5819652   2.753   2.670   2.618 -1.0073  0.4428 -1.0935
   98MOL    H5919653   2.698   2.528   2.883 -0.9659  2.4980  0.3055
   98MOL    H6019654   2.965   2.522   2.806  0.0724  0.5625 -0.1283
   98MOL    H6119655   2.869   2.449   2.670 -1.5840 -0.3910  0.3493
   98MOL    C6219656   2.855   2.352   2.861 -0.1496 -0.1508 -0.0666
   98MOL    C6319657   2.943   2.232   2.832  0.4514 -1.1548  0.2260
   98MOL    C6419658   3.044   2.228   2.746 -0.4654  0.3379  0.3700
   98MOL    C6519659   3.145   2.120   2.741  0.3559  0.2761 -0.3833
   98MOL    H6619660   2.883   2.378   2.963 -0.6129  0.8826 -0.2002
   98MOL    H6719661   2.753   2.314   2.863  0.1804 -1.0149  0.8986
   98MOL    H6819662   2.927   2.139   2.884  2.0989 -1.8398 -0.4315
   98MOL    H6919663   3.062   2.306   2.673  0.2160 -0.8131 -0.7279
   98MOL    H7019664   3.142   2.066   2.647 -0.5758 -1.5318  0.6563
   98MOL    H7119665   3.114   2.047   2.816 -0.6561  0.4589 -0.6159
   98MOL    C7219666   3.287   2.172   2.739 -0.1021 -0.7096 -0.7636
   98MOL    C7319667   3.316   2.257   2.856  0.9610 -0.7857 -0.2669
   98MOL    C7419668   3.299   2.387   2.862 -0.0500 -0.9448 -0.1509
   98MOL    C7519669   3.339   2.477   2.974  0.5831 -0.1865 -0.3550
   98MOL    H7619670   3.359   2.090   2.744 -0.8597 -1.2934  0.7121
   98MOL    H7719671   3.314   2.233   2.653  0.6487  1.7626  1.1307
   98MOL    H7819672   3.340   2.217   2.953 -1.2870  1.0443  1.1007
   98MOL    H7919673   3.267   2.434   2.770  0.9625  3.0147  1.3990
   98MOL    H8019674   3.391   2.560   2.927 -1.7824 -0.5809 -3.8951
   98MOL    H8119675   3.416   2.434   3.037  0.0044 -2.0268 -0.8702
   98MOL    C8219676   3.210   2.515   3.049  1.0085 -0.3716  0.9125
   98MOL    C8319677   3.230   2.608   3.164 -0.6772  0.8212  0.4109
   98MOL    C8419678   3.235   2.560   3.289  0.1965 -0.0132 -0.1000
   98MOL    C8519679   3.266   2.639   3.411  0.0954  0.0275 -0.7438
   98MOL    H8619680   3.123   2.552   2.996  1.0797  0.7705  1.5841
   98MOL    H8719681   3.198   2.416   3.094  1.1350 -0.1400  1.4639
   98MOL    H8819682   3.244   2.713   3.144 -1.5170  0.8534 -0.0250
   98MOL    H8919683   3.230   2.453   3.296  2.2994 -0.1120  0.3198
   98MOL    H9019684   3.193   2.606   3.485  0.7157 -0.3865 -0.3141
   98MOL    H9119685   3.251   2.744   3.388  0.9937  0.0112 -1.4411
   98MOL    C9219686   3.415   2.611   3.468  0.4000 -0.3304 -0.3986
   98MOL    C9319687   3.439   2.697   3.583 -0.3692 -0.0887 -0.0924
   98MOL    C9419688   3.495   2.661   3.702 -0.3319  0.1659  0.8385
   98MOL    C9519689   3.515   2.746   3.820 -0.5159  0.0790  0.0634
   98MOL    H9619690   3.430   2.504   3.488  0.4257 -0.5791 -1.7186
   98MOL    H9719691   3.476   2.641   3.383  1.4077 -0.9240  0.0993
   98MOL    H9819692   3.414   2.800   3.561 -0.9049 -0.7805 -2.9112
   98MOL    H9919693   3.527   2.558   3.696  1.0412  0.6630 -0.7845
   98MOL   H10019694   3.479   2.849   3.817 -0.0813  0.2599  0.7858
   98MOL   H10119695   3.624   2.743   3.827 -0.4125  2.2144 -0.2416
   98MOL   C10219696   3.459   2.689   3.954 -0.2719 -0.2284 -0.1602
   98MOL   C10319697   3.501   2.748   4.089 -0.2558 -0.2435 -0.3092
   98MOL   C10419698   3.431   2.768   4.202  0.3717  0.1756  0.2500
   98MOL   C10519699   3.488   2.844   4.325  0.3340  0.0518  0.3379
   98MOL   H10619700   3.350   2.696   3.959 -0.2641 -0.3682  0.2449
   98MOL   H10719701   3.481   2.583   3.960 -0.5650 -0.4615 -2.7903
   98MOL   H10819702   3.606   2.772   4.094  0.1985 -2.3496  1.5554
   98MOL   H10919703   3.325   2.750   4.203  0.3975  0.0230  0.2290
   98MOL   H11019704   3.429   2.934   4.343  0.0249  0.0915 -0.8321
   98MOL   H11119705   3.591   2.869   4.301  0.6180 -1.3260  0.0907
   98MOL   C11219706   3.490   2.761   4.455 -0.5407 -0.0483  0.0438
   98MOL   C11319707   3.358   2.743   4.525 -1.0240  0.5063  0.0656
   98MOL   C11419708   3.335   2.775   4.652  0.2582  0.2747 -0.7143
   98MOL   C11519709   3.199   2.764   4.713  0.1953  0.7666  0.4722
   98MOL   H11619710   3.534   2.664   4.432  1.0212  0.7182 -0.3352
   98MOL   H11719711   3.567   2.787   4.528 -0.5508  0.9326 -0.2883
   98MOL   H11819712   3.270   2.713   4.471 -0.1584 -1.4851 -0.2745
   98MOL   H11919713   3.409   2.811   4.722 -0.0263 -1.8638  0.7525
   98MOL   H12019714   3.202   2.695   4.798 -1.1336  1.0665  0.7593
   98MOL   H12119715   3.119   2.721   4.653 -2.0097  1.2219  3.0158
   98MOL   C12219716   3.164   2.905   4.761  0.0200 -0.2158  0.4172
   98MOL   C12319717   3.018   2.921   4.803 -0.6915 -0.7769 -0.8246
   98MOL   C12419718   2.939   3.028   4.773 -0.0395 -0.4828  0.0561
   98MOL   C12519719   2.797   3.051   4.816  0.2640 -0.0743 -0.1243
   98MOL   H12619720   3.227   2.923   4.848 -0.4089  0.0667  0.6704
   98MOL   H12719721   3.186   2.980   4.685  0.0233 -2.2399 -1.6482
   98MOL   H12819722   2.982   2.837   4.862  0.3838  0.5368  1.7531
   98MOL   H12919723   2.982   3.108   4.715 -0.7670 -0.8482 -1.0128
   98MOL   H13019724   2.790   3.121   4.900  1.4241 -1.8530  1.4907
   98MOL   H13119725   2.765   2.954   4.854 -0.6862 -0.0531 -0.8421
   98MOL   C13219726   2.700   3.077   4.702 -0.1844  0.1262 -0.4050
   98MOL   C13319727   2.560   3.113   4.746 -0.2123 -0.1093 -0.1953
   98MOL   C13419728   2.460   3.021   4.745 -0.2327 -0.3977 -0.1991
   98MOL   C13519729   2.313   3.039   4.789  0.3619  0.6286  0.4296
   98MOL   H13619730   2.737   3.167   4.654 -0.6436  0.2724 -0.4917
   98MOL   H13719731   2.691   2.998   4.627 -3.0503 -1.9510  2.0079
   98MOL   H13819732   2.542   3.209   4.792  1.4026 -0.9546  2.3091
   98MOL   H13919733   2.493   2.926   4.707 -0.5660 -1.2011  1.4521
   98MOL   H14019734   2.316   3.130   4.849 -0.8836  0.4758  0.7460
   98MOL   H14119735   2.299   2.957   4.860  0.2160 -0.4454 -0.8222
   98MOL   C14219736   2.210   3.017   4.671 -0.0000 -0.2615  0.5533
   98MOL   C14319737   2.067   3.048   4.714 -0.0939 -0.0330 -0.2052
   98MOL   C14419738   1.979   2.955   4.758  0.6126 -0.0623 -0.0625
   98MOL   C14519739   1.842   2.989   4.802 -0.1640  0.0948  0.2772
   98MOL   H14619740   2.246   3.089   4.598  0.2209  0.8109  1.7022
   98MOL   H14719741   2.226   2.924   4.618 -1.7812  0.2094 -0.8503
   98MOL   H14819742   2.035   3.151   4.710 -1.3783 -0.4375 -0.6687
   98MOL   H14919743   2.015   2.853   4.755  2.4187  0.5406  0.6201
   98MOL   H15019744   1.845   3.095   4.827 -2.0635  1.1199 -3.4002
   98MOL   H15119745   1.813   2.931   4.890 -0.6650 -2.9873 -1.8133
   98MOL   C15219746   1.737   2.959   4.696  0.3379 -0.7339  0.0501
   98MOL   C15319747   1.750   3.050   4.574 -0.2094  0.3768 -0.8304
   98MOL   C15419748   1.777   2.997   4.454  0.6280 -0.5028  0.8555
   98MOL   C15519749   1.787   3.074   4.324  0.0908  0.6484  0.5739
   98MOL   H15619750   1.741   2.857   4.658 -1.4962 -0.4463 -0.9958
   98MOL   H15719751   1.636   2.968   4.737  0.7935  1.2032  0.8110
   98MOL   H15819752   1.705   3.148   4.571 -1.2283 -0.0200  0.8515
   98MOL   H15919753   1.809   2.894   4.452  1.5339 -0.2652  2.4745
   98MOL   H16019754   1.846   3.035   4.241  0.2453  1.3733  0.3315
   98MOL   H16119755   1.824   3.175   4.344  0.5934  0.5632  0.0919
   98MOL   C16219756   1.647   3.080   4.258  0.1479  0.7177 -0.3562
   98MOL   C16319757   1.629   3.173   4.145 -0.1181  0.2890  0.5247
   98MOL   C16419758   1.728   3.250   4.089  0.1519  0.6899  0.3156
   98MOL   C16519759   1.716   3.334   3.958  0.2668 -0.4234  0.0847
   98MOL   H16619760   1.615   2.979   4.230  0.1404 -0.8595  4.7541
   98MOL   H16719761   1.589   3.096   4.349  2.2580 -1.5327  1.4465
   98MOL   H16819762   1.527   3.172   4.110 -0.3580 -0.7812  1.2484
   98MOL   H16919763   1.824   3.250   4.139  0.9997  0.4085 -1.2732
   98MOL   H17019764   1.610   3.327   3.932 -0.0585 -2.9261  1.8604
   98MOL   H17119765   1.764   3.281   3.877 -1.5282 -1.1222 -0.5497
   98MOL   C17219766   1.766   3.479   3.978  0.9917  0.5727 -0.0832
   98MOL   C17319767   1.741   3.566   3.859  0.1081 -0.7959 -0.4305
   98MOL   C17419768   1.806   3.566   3.746 -0.2319  0.2578 -0.2098
   98MOL   C17519769   1.776   3.673   3.641  0.0721  0.3209  0.2913
   98MOL   H17619770   1.716   3.524   4.064 -3.1037  0.6469 -2.3689
   98MOL   H17719771   1.872   3.485   4.004  1.0413 -0.2723 -0.0872
   98MOL   H17819772   1.664   3.640   3.867  0.2141 -0.8006  0.7968
   98MOL   H17919773   1.895   3.508   3.730  0.0917  0.6327  0.2369
   98MOL   H18019774   1.745   3.767   3.686 -1.1685 -0.3914  0.9645
   98MOL   H18119775   1.696   3.637   3.576  0.1355 -0.4499  0.6349
   98MOL   C18219776   1.902   3.697   3.552  0.0588  0.1440  0.3756
   98MOL   C18319777   2.030   3.718   3.630  0.3859 -0.6555  0.6816
   98MOL   C18419778   2.145   3.648   3.608 -0.2351 -0.4565  0.3062
   98MOL   C18519779   2.259   3.652   3.708  0.9573  0.1390 -0.3324
   98MOL   H18619780   1.917   3.620   3.477 -2.2927  0.1581 -0.1567
   98MOL   H18719781   1.899   3.771   3.472 -2.6732 -2.4719 -2.0891
   98MOL   H18819782   2.027   3.778   3.719 -1.8177 -1.8087  1.4316
   98MOL   H18919783   2.164   3.578   3.528 -0.6051 -0.7696  0.4944
   98MOL   H19019784   2.236   3.708   3.799  0.2225 -0.7602  0.0383
   98MOL   H19119785   2.355   3.675   3.662  1.4453 -0.0849  0.5834
   98MOL   C19219786   2.264   3.518   3.780 -0.2655 -0.2710  0.3441
   98MOL   C19319787   2.380   3.504   3.878  0.8134  0.3214  0.1239
   98MOL   C19419788   2.378   3.568   3.996  0.2886  0.6058  0.0890
   98MOL   C19519789   2.489   3.569   4.097  0.5082  0.0548 -0.1934
   98MOL   H19619790   2.173   3.499   3.836 -0.1870 -2.6396 -0.2821
   98MOL   H19719791   2.278   3.430   3.717 -0.4185  0.2198 -0.3807
   98MOL   H19819792   2.461   3.442   3.843  1.4620  1.1204  0.1818
   98MOL   H19919793   2.285   3.616   4.024 -0.8947 -1.3598 -0.3419
   98MOL   H20019794   2.553   3.484   4.075 -1.9513 -2.5181  2.1933
   98MOL   H20119795   2.449   3.541   4.194 -0.3933 -1.6673 -1.0432
   98MOL   H20219796   2.540   3.665   4.096  1.3464 -0.3842  0.3596
   99MOL     C119797   1.138   6.964   5.591  0.4346 -0.1139  0.2301
   99MOL     C219798   0.995   7.004   5.617  0.3880 -0.2353  0.5512
   99MOL     C319799   0.921   6.999   5.729 -0.1911 -0.1412 -0.3453
   99MOL     C419800   0.773   7.047   5.728 -0.3191 -0.5098  0.0597
   99MOL     H519801   1.166   7.000   5.491 -0.9464  1.5921  0.4161
   99MOL     H619802   1.140   6.856   5.590  1.0842 -0.1059  0.3997
   99MOL     H719803   0.948   7.037   5.526  0.3016 -1.2512  0.2259
   99MOL     H819804   0.960   6.968   5.824  0.9525  0.6878 -0.5300
   99MOL     H919805   0.700   6.972   5.698 -0.3521 -0.2333 -0.5546
   99MOL    H1019806   0.766   7.120   5.647 -2.4749 -0.8155 -0.0661
   99MOL    H1119807   1.195   6.999   5.677 -1.1438  2.2501  0.3646
   99MOL    C1219808   0.719   7.101   5.859  0.2572  0.4477 -0.0266
   99MOL    C1319809   0.677   6.989   5.946 -0.1752 -0.0944 -0.8639
   99MOL    C1419810   0.596   7.014   6.051  0.6166 -0.5109 -0.5411
   99MOL    C1519811   0.541   6.906   6.144  0.6722  0.0988  0.6042
   99MOL    H1619812   0.777   7.176   5.911 -0.0672  0.1620  0.7525
   99MOL    H1719813   0.627   7.153   5.833 -0.1449 -1.0300 -1.7012
   99MOL    H1819814   0.707   6.889   5.920  1.0223  0.4845 -1.7604
   99MOL    H1919815   0.557   7.115   6.052 -1.7087 -1.3833 -0.3168
   99MOL    H2019816   0.590   6.813   6.120  0.2407  0.1295 -0.3962
   99MOL    H2119817   0.434   6.907   6.124 -0.1247 -0.4970  4.4000
   99MOL    C2219818   0.577   6.939   6.290  0.5134  0.5762 -0.8638
   99MOL    C2319819   0.502   6.845   6.374 -0.1134 -0.9564  0.6590
   99MOL    C2419820   0.558   6.749   6.444 -0.4066 -0.1539 -0.5574
   99MOL    C2519821   0.492   6.647   6.540 -0.5914  0.2982 -0.3645
   99MOL    H2619822   0.683   6.932   6.311 -0.1506 -1.1446  2.1111
   99MOL    H2719823   0.547   7.040   6.318 -0.9964 -0.0758 -0.0634
   99MOL    H2819824   0.395   6.859   6.378 -0.3997 -3.1191  1.5291
   99MOL    H2919825   0.663   6.728   6.435  0.0434  1.6115  0.3417
   99MOL    H3019826   0.388   6.679   6.539 -0.7222 -0.0659  1.3792
   99MOL    H3119827   0.521   6.665   6.643 -0.2390  1.6018 -0.6817
   99MOL    C3219828   0.514   6.503   6.495  0.1607  0.1984 -0.4219
   99MOL    C3319829   0.428   6.411   6.570 -0.4093 -0.2696  0.2244
   99MOL    C3419830   0.369   6.297   6.528  0.6630 -0.1002 -0.2706
   99MOL    C3519831   0.295   6.218   6.633 -0.7876 -0.1989  0.2922
   99MOL    H3619832   0.500   6.493   6.387 -0.0748  2.0767 -0.5736
   99MOL    H3719833   0.615   6.472   6.520 -0.7679 -2.1188  0.6869
   99MOL    H3819834   0.419   6.442   6.673  2.4835 -1.8470  1.0163
   99MOL    H3919835   0.362   6.264   6.425  2.5882  1.8744 -1.0807
   99MOL    H4019836   0.300   6.274   6.727 -0.4954  1.7576 -0.8741
   99MOL    H4119837   0.351   6.127   6.655 -1.0176 -0.1903  0.9288
   99MOL    C4219838   0.161   6.180   6.574 -0.3987  0.3107  0.3485
   99MOL    C4319839   0.062   6.139   6.684 -0.7493  0.4465 -0.1334
   99MOL    C4419840   7.920   6.197   6.709 -0.2185 -0.8088  0.0052
   99MOL    C4519841   7.818   6.155   6.814  0.0295  0.9586  0.4598
   99MOL    H4619842   0.110   6.256   6.514  0.2975  0.1489 -0.4687
   99MOL    H4719843   0.163   6.095   6.506  3.6390  1.2220 -0.8158
   99MOL    H4819844   0.083   6.047   6.736  0.1906  1.1664  0.7684
   99MOL    H4919845   7.913   6.290   6.653  0.0570  0.4046  1.9447
   99MOL    H5019846   7.727   6.120   6.766  0.8854  0.3588 -0.7536
   99MOL    H5119847   7.803   6.240   6.880  1.2306  2.9498 -1.7396
   99MOL    C5219848   7.858   6.035   6.911  0.3422 -0.0549  0.4594
   99MOL    C5319849   7.758   5.998   7.022 -0.3783 -0.8026 -0.1778
   99MOL    C5419850   7.784   6.019   7.151 -0.0409 -0.4620  0.6833
   99MOL    C5519851   7.687   6.004   7.264  0.4998  0.2176 -0.4553
   99MOL    H5619852   7.873   5.951   6.844 -0.4135  0.5087 -0.4255
   99MOL    H5719853   7.950   6.069   6.960  1.2458  0.2180 -1.3740
   99MOL    H5819854   7.661   5.969   6.985 -1.1578  1.8369 -0.2779
   99MOL    H5919855   7.886   6.050   7.171 -0.0171 -0.7820  1.0628
   99MOL    H6019856   7.688   5.903   7.302 -0.8615  0.0369 -0.8730
   99MOL    H6119857   7.583   6.014   7.233  0.5796  1.6665 -0.2984
   99MOL    C6219858   7.706   6.105   7.381 -0.1898  0.8001  0.4910
   99MOL    C6319859   7.822   6.056   7.472  0.3012  0.7146 -0.0767
   99MOL    C6419860   7.799   6.023   7.598 -0.2193 -0.5708  0.2536
   99MOL    C6519861   7.908   5.967   7.692  0.1714 -0.0025  0.0158
   99MOL    H6619862   7.740   6.199   7.338 -1.0140  0.6697 -0.4559
   99MOL    H6719863   7.611   6.121   7.432 -0.7560 -0.2693 -0.2204
   99MOL    H6819864   7.921   6.055   7.430  0.0655  1.2318 -0.6477
   99MOL    H6919865   7.698   6.029   7.635  0.1508  0.9019  1.0624
   99MOL    H7019866   0.022   5.949   7.634  0.4286  1.4869 -0.0638
   99MOL    H7119867   7.868   5.875   7.734  0.6883 -0.8519 -1.3344
   99MOL    C7219868   7.935   6.067   7.809  0.6311 -0.6231 -0.0547
   99MOL    C7319869   0.014   5.997   7.928  0.0139 -0.2304 -0.3053
   99MOL    C7419870   0.143   5.999   7.965  0.2278 -0.1069 -0.2766
   99MOL    C7519871   0.194   5.919   0.101  0.0263 -0.6990  0.1322
   99MOL    H7619872   0.016   6.156   7.786 -0.8892  1.1966  2.8283
   99MOL    H7719873   7.841   6.113   7.839  0.1156 -2.2206  0.8538
   99MOL    H7819874   7.920   5.943   0.012  0.8579 -1.5574 -0.4846
   99MOL    H7919875   0.218   6.049   7.905 -0.1626 -1.7007 -2.1666
   99MOL    H8019876   0.288   5.873   0.071 -0.5628 -0.8969 -1.4952
   99MOL    H8119877   0.142   5.825   0.120 -0.1067  0.0494  3.8316
   99MOL    C8219878   0.217   6.006   0.223 -0.7615 -0.3378 -1.1569
   99MOL    C8319879   0.272   5.926   0.342 -0.0341  0.0935  0.2520
   99MOL    C8419880   0.389   5.956   0.400  0.5253 -0.0164 -0.3101
   99MOL    C8519881   0.430   5.897   0.531 -0.1601 -0.6719  0.5036
   99MOL    H8619882   0.296   6.077   0.200 -1.3451  1.0121  0.8390
   99MOL    H8719883   0.138   6.068   0.265 -1.3038  0.2889 -3.0565
   99MOL    H8819884   0.214   5.844   0.381  0.5282  0.6476  2.2986
   99MOL    H8919885   0.451   6.033   0.355  0.9400 -0.0469  0.2037
   99MOL    H9019886   0.525   5.845   0.518 -0.2078 -0.3675 -1.1374
   99MOL    H9119887   0.358   5.827   0.574 -0.3548  0.6931  2.4558
   99MOL    C9219888   0.450   6.004   0.644  0.4469  0.4699  0.1504
   99MOL    C9319889   0.503   5.934   0.770 -0.4341 -0.3234  0.2096
   99MOL    C9419890   0.627   5.945   0.818 -0.5216  0.2959  0.4791
   99MOL    C9519891   0.682   5.875   0.935 -0.6414 -0.3143  0.4900
   99MOL    H9619892   0.511   6.086   0.605  2.5486 -1.5123 -0.8584
   99MOL    H9719893   0.355   6.053   0.666 -0.6652 -0.9258 -1.4607
   99MOL    H9819894   0.429   5.872   0.817 -2.8085  1.7519 -0.6924
   99MOL    H9919895   0.696   5.998   0.754  0.0014 -0.5417  0.3403
   99MOL   H10019896   0.610   5.803   0.976  0.5886 -0.4904  2.3644
   99MOL   H10119897   0.700   5.944   1.017  0.1156  1.5822 -1.2450
   99MOL   C10219898   0.814   5.804   0.891 -0.8125 -0.3140 -0.2643
   99MOL   C10319899   0.856   5.705   0.998 -0.1077  0.1596 -0.6206
   99MOL   C10419900   0.975   5.721   1.065 -0.3774  0.1860 -0.0789
   99MOL   C10519901   1.024   5.644   1.185  0.2958 -0.6178 -0.5110
   99MOL   H10619902   0.821   5.756   0.794 -0.0748  0.8107 -0.7754
   99MOL   H10719903   0.892   5.878   0.875 -0.6846 -0.3690  0.1063
   99MOL   H10819904   0.777   5.639   1.031  0.0469  0.5059  0.4720
   99MOL   H10919905   1.040   5.798   1.025  1.2377 -1.9339 -1.6614
   99MOL   H11019906   0.962   5.558   1.209 -2.5331  2.0124  1.9869
   99MOL   H11119907   1.013   5.713   1.269  3.5111 -0.9539  0.2576
   99MOL   C11219908   1.165   5.585   1.175  0.3052  0.5767  0.1084
   99MOL   C11319909   1.214   5.515   1.302 -0.3049 -0.5398  0.3075
   99MOL   C11419910   1.333   5.552   1.352 -0.5387  0.1328 -0.6329
   99MOL   C11519911   1.388   5.484   1.477 -0.1553 -0.2293  0.4663
   99MOL   H11619912   1.165   5.519   1.088  1.8949  1.2570 -0.4272
   99MOL   H11719913   1.234   5.665   1.148  2.4281 -1.1252  0.2657
   99MOL   H11819914   1.155   5.437   1.348  0.2276 -0.6528  0.8064
   99MOL   H11919915   1.390   5.632   1.308  1.6062 -0.7327  0.4945
   99MOL   H12019916   1.480   5.426   1.470  0.4922  0.7913  0.3894
   99MOL   H12119917   1.312   5.409   1.499  0.9728 -1.6332 -0.2433
   99MOL   C12219918   1.382   5.579   1.602 -0.2424 -0.0037 -0.2762
   99MOL   C12319919   1.485   5.689   1.595 -0.3316  0.0655 -0.0253
   99MOL   C12419920   1.603   5.679   1.655  0.4566 -0.0507 -0.4387
   99MOL   C12519921   1.716   5.778   1.650  0.5242  0.5749  0.2745
   99MOL   H12619922   1.283   5.623   1.610  0.4373  1.4032  0.6085
   99MOL   H12719923   1.396   5.528   1.697  1.3794 -0.6725 -0.8565
   99MOL   H12819924   1.455   5.775   1.537 -0.5162 -0.8469 -1.3178
   99MOL   H12919925   1.631   5.588   1.707  0.3894  0.2274  0.0876
   99MOL   H13019926   1.723   5.798   1.757  1.6580 -0.8379  0.4731
   99MOL   H13119927   1.677   5.862   1.592 -1.2382  0.1685  0.8305
   99MOL   C13219928   1.841   5.709   1.605  0.0760 -0.3565 -0.2567
   99MOL   C13319929   1.842   5.688   1.456 -0.8820  0.0646  0.7472
   99MOL   C13419930   1.924   5.743   1.368 -0.4321 -0.5546 -0.0075
   99MOL   C13519931   1.917   5.707   1.222 -0.1678  0.1009 -0.2265
   99MOL   H13619932   1.935   5.751   1.639  0.4459  1.8266 -3.6791
   99MOL   H13719933   1.849   5.612   1.654 -1.8166  2.0104  5.1446
   99MOL   H13819934   1.769   5.620   1.416 -0.2929 -0.0734 -0.1113
   99MOL   H13919935   1.994   5.822   1.389 -0.6133 -0.6672  1.0461
   99MOL   H14019936   1.821   5.664   1.195  0.2157 -1.9846  1.5934
   99MOL   H14119937   1.985   5.622   1.216 -0.3817 -0.0582 -0.3853
   99MOL   C14219938   1.970   5.815   1.128  0.4283 -0.3486  0.3956
   99MOL   C14319939   1.869   5.912   1.071 -0.4126 -0.3753  0.1693
   99MOL   C14419940   1.865   6.042   1.100 -0.9986 -0.8628  0.3921
   99MOL   C14519941   1.771   6.138   1.034  0.1634 -0.9066 -0.2965
   99MOL   H14619942   2.058   5.869   1.163  1.3522 -0.2504 -2.0151
   99MOL   H14719943   2.015   5.773   1.039  2.2571 -1.3882  1.7846
   99MOL   H14819944   1.799   5.875   0.998  0.1320  0.2522 -0.6797
   99MOL   H14919945   1.937   6.083   1.170 -0.3939 -0.5763 -0.4002
   99MOL   H15019946   1.720   6.201   1.107 -1.7783 -3.4180  0.6011
   99MOL   H15119947   1.688   6.085   0.987  0.3091 -1.2260 -0.1935
   99MOL   C15219948   1.850   6.234   0.939 -0.7604  0.6191  0.1459
   99MOL   C15319949   1.787   6.370   0.924  0.7448 -0.3543 -0.0280
   99MOL   C15419950   1.778   6.449   0.813 -0.8824  0.4488  0.5928
   99MOL   C15519951   1.703   6.578   0.806  0.0561 -0.3743  0.4704
   99MOL   H15619952   1.945   6.264   0.982 -0.6249  0.6349 -0.1637
   99MOL   H15719953   1.875   6.184   0.846  0.2070 -2.2905  1.9050
   99MOL   H15819954   1.739   6.418   1.007  1.5479  2.2936 -1.0201
   99MOL   H15919955   1.814   6.417   0.716 -2.0983 -1.6213  0.7977
   99MOL   H16019956   1.754   6.642   0.878  2.0829 -1.4864  0.0558
   99MOL   H16119957   1.604   6.556   0.846  0.7130 -2.6123  0.9224
   99MOL   C16219958   1.691   6.642   0.668  0.2245 -0.0798  0.4009
   99MOL   C16319959   1.824   6.689   0.621 -0.1477 -0.5876  1.2086
   99MOL   C16419960   1.851   6.815   0.577 -0.6959  0.4557 -0.0923
   99MOL   C16519961   1.987   6.861   0.528  0.5101 -0.4276 -0.1580
   99MOL   H16619962   1.658   6.569   0.595  1.2973 -0.6605  0.4824
   99MOL   H16719963   1.610   6.714   0.667 -0.1683 -0.4944  1.5616
   99MOL   H16819964   1.899   6.612   0.628 -1.8380 -2.2074  1.9033
   99MOL   H16919965   1.776   6.892   0.572 -0.1649  1.0030  0.2435
   99MOL   H17019966   1.976   6.920   0.437  3.3808  0.5101  0.0771
   99MOL   H17119967   2.053   6.776   0.508  0.5814 -0.4912  0.3519
   99MOL   C17219968   2.056   6.962   0.630  0.0260  0.8322 -0.1422
   99MOL   C17319969   2.171   7.049   0.574  0.0347  1.0616  0.0158
   99MOL   C17419970   2.278   7.074   0.649 -0.4010 -0.6047 -0.5369
   99MOL   C17519971   2.392   7.164   0.623  0.7822 -0.5428  0.1995
   99MOL   H17619972   1.975   7.027   0.663 -0.4191  0.2261 -0.0337
   99MOL   H17719973   2.092   6.898   0.710  2.2172  1.9851 -0.1818
   99MOL   H17819974   2.158   7.101   0.480  1.0657  1.2196 -0.0502
   99MOL   H17919975   2.281   7.035   0.749 -0.8925 -1.5435 -0.8824
   99MOL   H18019976   2.407   7.211   0.720  0.7643 -3.2753  1.5518
   99MOL   H18119977   2.365   7.239   0.548  1.2298  0.8384  1.3785
   99MOL   C18219978   2.511   7.075   0.571  0.0876 -0.1322  0.2609
   99MOL   C18319979   2.601   7.177   0.508 -0.5037 -0.9464  0.2575
   99MOL   C18419980   2.734   7.199   0.533  0.7471 -0.2079  0.3099
   99MOL   C18519981   2.811   7.321   0.479  0.5881 -0.3384 -0.6316
   99MOL   H18619982   2.556   7.031   0.660  0.2600 -0.2250  0.1288
   99MOL   H18719983   2.480   6.997   0.501 -3.1161  0.1123  1.3546
   99MOL   H18819984   2.555   7.236   0.431 -0.6675 -1.4955 -0.0680
   99MOL   H18919985   2.783   7.140   0.609  0.2057 -1.6373 -0.4113
   99MOL   H19019986   2.870   7.364   0.559  0.3731 -2.0663  0.4811
   99MOL   H19119987   2.756   7.402   0.431  1.3672 -0.3846 -1.6293
   99MOL   C19219988   2.907   7.271   0.374 -0.0747 -0.9544 -0.5125
   99MOL   C19319989   2.970   7.385   0.291  0.3021 -0.0736 -0.6309
   99MOL   C19419990   2.986   7.386   0.157  0.0515  0.0069 -0.3041
   99MOL   C19519991   3.047   7.499   0.070 -0.0839  0.7373  0.3395
   99MOL   H19619992   2.981   7.207   0.421  1.2795  1.6487  1.0072
   99MOL   H19719993   2.860   7.199   0.307  0.7203 -1.8937 -0.0695
   99MOL   H19819994   2.992   7.475   0.348 -0.5489  1.5668 -2.8099
   99MOL   H19919995   2.959   7.296   0.104  0.4856  1.1568 -2.5376
   99MOL   H20019996   2.984   7.555   0.001  0.2051  3.3839  2.1650
   99MOL   H20119997   3.132   7.459   0.013 -0.9375 -1.3765  0.4904
   99MOL   H20219998   3.092   7.580   0.127 -0.3984  1.4039 -0.3463
  100MOL     C119999   0.097   2.599   3.503  0.4175 -0.3654 -0.1757
  100MOL     C220000   0.136   2.455   3.555 -0.1601 -0.5242  0.0498
  100MOL     C320001   0.264   2.410   3.546 -0.7639 -0.0013 -0.0457
  100MOL     C420002   0.320   2.281   3.594  0.4023  0.5789 -0.3937
  100MOL     H520003   0.092   2.669   3.587 -1.1050 -0.1927 -0.3948
  100MOL     H620004   0.004   2.587   3.446  1.3092 -1.1496 -1.4914
  100MOL     H720005   0.068   2.391   3.610  4.9863 -4.4352  2.2478
  100MOL     H820006   0.331   2.465   3.481  1.6459 -2.2270  0.4433
  100MOL     H920007   0.258   2.245   3.676  1.3541 -1.2567 -0.4601
  100MOL    H1020008   0.415   2.305   3.641  0.0164  1.2161  0.0740
  100MOL    H1120009   0.177   2.628   3.435  0.1117 -1.1809 -0.8858
  100MOL    C1220010   0.350   2.187   3.469  0.3763 -0.0444 -0.2956
  100MOL    C1320011   0.349   2.041   3.514 -0.0945 -0.6366  0.5943
  100MOL    C1420012   0.433   1.951   3.469  0.1788  0.1835  0.2733
  100MOL    C1520013   0.425   1.812   3.525 -0.0550 -0.3123  0.2556
  100MOL    H1620014   0.266   2.200   3.401 -1.7629  0.3604  2.3589
  100MOL    H1720015   0.449   2.210   3.429  1.4242  1.8451  3.2294
  100MOL    H1820016   0.268   2.022   3.582 -1.5028  0.2117 -0.8103
  100MOL    H1920017   0.504   1.982   3.393 -1.6013  2.2231 -0.6351
  100MOL    H2020018   0.420   1.748   3.437  0.8003  0.3688 -0.2909
  100MOL    H2120019   0.338   1.794   3.588  1.0316 -2.4427  1.2064
  100MOL    C2220020   0.547   1.763   3.606  0.4957 -0.8321 -0.3016
  100MOL    C2320021   0.519   1.627   3.669 -0.1176 -0.5153 -0.2330
  100MOL    C2420022   0.583   1.515   3.633 -0.3552  0.7512  0.0170
  100MOL    C2520023   0.556   1.377   3.693  0.2541 -0.1031 -0.7824
  100MOL    H2620024   0.633   1.749   3.542  0.0441  0.8324 -1.2946
  100MOL    H2720025   0.581   1.833   3.682 -1.6334  0.1848 -0.2342
  100MOL    H2820026   0.444   1.629   3.746 -1.2309 -1.7431 -1.2453
  100MOL    H2920027   0.649   1.527   3.549 -2.8369  1.8245 -1.8691
  100MOL    H3020028   0.505   1.313   3.621 -1.3199 -0.5653  0.7069
  100MOL    H3120029   0.484   1.397   3.772  0.7219  0.6339 -0.5415
  100MOL    C3220030   0.684   1.317   3.742 -0.2962  0.7818  0.1535
  100MOL    C3320031   0.734   1.366   3.878  0.2576 -0.0688 -0.4214
  100MOL    C3420032   0.830   1.458   3.888  0.2026 -0.3548  0.6528
  100MOL    C3520033   0.900   1.500   4.018 -0.5494  0.0385 -0.8098
  100MOL    H3620034   0.670   1.209   3.744 -1.0642  0.8659 -0.4424
  100MOL    H3720035   0.756   1.335   3.663 -3.1910  3.7643 -1.9809
  100MOL    H3820036   0.692   1.319   3.966  0.4383 -1.0373 -0.8400
  100MOL    H3920037   0.864   1.505   3.796  1.8680 -3.0578 -0.1856
  100MOL    H4020038   1.004   1.500   3.987 -0.5642 -2.2174 -0.9254
  100MOL    H4120039   0.885   1.436   4.106  1.0806  1.5047  0.5665
  100MOL    C4220040   0.861   1.641   4.060 -0.8532  0.5293 -0.4081
  100MOL    C4320041   0.908   1.751   3.974  0.3771  0.7767  0.0690
  100MOL    C4420042   0.829   1.846   3.924 -0.3237 -0.7047  0.3796
  100MOL    C4520043   0.879   1.952   3.826  0.0947 -0.5527 -0.4955
  100MOL    H4620044   0.754   1.653   4.076 -1.1248 -2.6970  0.4607
  100MOL    H4720045   0.900   1.655   4.161  1.5852 -2.5373 -0.8453
  100MOL    H4820046   1.014   1.757   3.951  0.7716 -0.1897  1.5697
  100MOL    H4920047   0.723   1.837   3.939 -0.3331  1.3997  1.8301
  100MOL    H5020048   0.872   1.896   3.732  1.1416 -3.0167  0.8478
  100MOL    H5120049   0.983   1.976   3.850  0.0414 -0.9005  0.0880
  100MOL    C5220050   0.783   2.067   3.825 -0.4060  0.5497 -0.7574
  100MOL    C5320051   0.801   2.151   3.698 -0.4307 -1.1761 -0.9395
  100MOL    C5420052   0.765   2.120   3.578  0.2541 -0.1832 -0.5667
  100MOL    C5520053   0.807   2.203   3.454  0.4829  0.0454 -0.3396
  100MOL    H5620054   0.677   2.042   3.836  0.1081 -1.5844 -0.3263
  100MOL    H5720055   0.797   2.122   3.919  0.1178 -2.3858  0.9542
  100MOL    H5820056   0.870   2.234   3.704  0.0648 -1.5832 -1.0178
  100MOL    H5920057   0.716   2.026   3.557 -1.7215  0.6601  0.0625
  100MOL    H6020058   0.871   2.282   3.494 -0.6791  1.0384 -0.4351
  100MOL    H6120059   0.722   2.246   3.402 -0.5853 -3.2159 -1.3993
  100MOL    C6220060   0.897   2.112   3.377 -0.0422  0.3600  0.7816
  100MOL    C6320061   0.921   2.180   3.240  0.1811  0.1928  0.5510
  100MOL    C6420062   1.045   2.188   3.191 -0.0295 -0.0267 -0.3410
  100MOL    C6520063   1.081   2.240   3.055 -0.5319  0.2057 -0.9025
  100MOL    H6620064   0.991   2.086   3.425  0.2115  3.9953  2.4275
  100MOL    H6720065   0.840   2.021   3.358  0.8166 -0.0959  0.3483
  100MOL    H6820066   0.832   2.212   3.187 -0.1528  1.4000  1.8144
  100MOL    H6920067   1.124   2.151   3.254 -1.1175  0.9748  1.6496
  100MOL    H7020068   0.993   2.253   2.992 -0.7901 -1.3917 -0.8820
  100MOL    H7120069   1.147   2.178   2.994  0.4737 -0.8562  1.1933
  100MOL    C7220070   1.157   2.367   3.069 -0.6393 -0.1486  0.0014
  100MOL    C7320071   1.201   2.428   2.933 -0.3920  0.0537  0.5033
  100MOL    C7420072   1.322   2.474   2.905 -0.1705 -0.9907  0.0730
  100MOL    C7520073   1.373   2.519   2.774 -0.2953  0.3504 -0.0042
  100MOL    H7620074   1.091   2.442   3.113 -1.4097 -0.6210 -0.3363
  100MOL    H7720075   1.241   2.343   3.133 -1.1545 -3.0451 -0.3281
  100MOL    H7820076   1.125   2.436   2.857 -0.2532 -2.7908  0.0055
  100MOL    H7920077   1.386   2.470   2.991 -1.6011  0.0265  1.2087
  100MOL    H8020078   1.395   2.624   2.790  0.1686  0.1203  0.8900
  100MOL    H8120079   1.300   2.500   2.695  0.0097 -1.7511  0.1881
  100MOL    C8220080   1.500   2.449   2.735 -0.2312 -0.3784  0.2207
  100MOL    C8320081   1.508   2.300   2.748 -0.1726 -0.0984  0.4674
  100MOL    C8420082   1.610   2.223   2.708  0.4808 -0.2137  0.3315
  100MOL    C8520083   1.604   2.073   2.708  0.0487 -0.0634  0.1621
  100MOL    H8620084   1.512   2.474   2.630 -0.7316 -0.6586  0.0945
  100MOL    H8720085   1.591   2.481   2.786 -0.6861  0.2369  0.6465
  100MOL    H8820086   1.413   2.252   2.767 -0.0925 -0.4192  0.0569
  100MOL    H8920087   1.698   2.277   2.674  1.1590 -0.2311  2.0367
  100MOL    H9020088   1.634   2.057   2.605 -1.1402  2.6072 -0.6409
  100MOL    H9120089   1.509   2.029   2.737 -0.6431  1.1277 -0.3055
  100MOL    C9220090   1.711   2.005   2.795 -0.4671  0.4661  0.3879
  100MOL    C9320091   1.731   1.864   2.756 -0.2829  0.2453 -0.0576
  100MOL    C9420092   1.724   1.767   2.850  0.4736  0.4656 -0.0393
  100MOL    C9520093   1.735   1.618   2.825 -0.6426  0.2917 -0.2720
  100MOL    H9620094   1.806   2.059   2.792 -0.8868  1.1839 -0.3699
  100MOL    H9720095   1.672   2.013   2.897 -0.8350 -0.8954  0.3523
  100MOL    H9820096   1.758   1.846   2.653  0.4440 -1.1530  0.3809
  100MOL    H9920097   1.690   1.807   2.944  2.6498  0.5615  0.7150
  100MOL   H10020098   1.795   1.588   2.739 -0.8787 -0.2430 -0.2530
  100MOL   H10120099   1.637   1.577   2.802  0.1936 -2.8518  1.4386
  100MOL   C10220100   1.787   1.545   2.949  0.4504 -0.4317  0.0129
  100MOL   C10320101   1.782   1.400   2.941 -0.4841  0.7213 -0.4011
  100MOL   C10420102   1.772   1.329   3.049  0.0413  0.6017  0.2954
  100MOL   C10520103   1.773   1.181   3.056 -0.4987 -0.1588 -0.4561
  100MOL   H10620104   1.893   1.563   2.966  0.6479  1.0433 -2.5317
  100MOL   H10720105   1.729   1.589   3.030 -1.6018  1.1568 -2.2402
  100MOL   H10820106   1.792   1.355   2.843 -1.4862 -0.2843 -0.0505
  100MOL   H10920107   1.771   1.385   3.142  2.7709  1.6010 -0.2325
  100MOL   H11020108   1.770   1.140   2.955 -2.2578 -0.3141 -0.3707
  100MOL   H11120109   1.676   1.147   3.092 -0.5954 -0.0348 -0.5967
  100MOL   C11220110   1.897   1.130   3.132  0.1045 -0.3020  0.8695
  100MOL   C11320111   2.024   1.129   3.050 -0.6863  0.3204  0.0167
  100MOL   C11420112   2.114   1.029   3.029  0.1903 -0.0245  0.1851
  100MOL   C11520113   2.235   1.032   2.941  0.4759 -0.6402  0.0071
  100MOL   H11620114   1.913   1.191   3.221  0.2596  4.0041 -1.9309
  100MOL   H11720115   1.882   1.027   3.164  0.3886 -1.1278 -1.5583
  100MOL   H11820116   2.041   1.220   2.995  2.1771  0.3359  0.8445
  100MOL   H11920117   2.101   0.933   3.076  1.2394  0.1115  0.7538
  100MOL   H12020118   2.254   1.132   2.903  1.7015 -0.2896  1.4924
  100MOL   H12120119   2.222   0.967   2.854  0.0936 -0.4969 -0.0435
  100MOL   C12220120   2.359   1.010   3.032  0.1884 -0.1571 -0.1214
  100MOL   C12320121   2.486   1.017   2.958 -0.4600  0.3275  0.2308
  100MOL   C12420122   2.572   1.116   2.966 -0.3281  0.2737 -0.7598
  100MOL   C12520123   2.708   1.124   2.896 -0.7220  0.1610 -0.0328
  100MOL   H12620124   2.360   1.086   3.110  1.7753  0.4818 -0.7350
  100MOL   H12720125   2.357   0.908   3.072 -0.4162  0.1306  0.5923
  100MOL   H12820126   2.514   0.921   2.916  0.4874  0.1048  1.3716
  100MOL   H12920127   2.557   1.209   3.019 -0.4232 -0.3432  0.3137
  100MOL   H13020128   2.717   1.031   2.840  0.6052 -0.5135  1.2966
  100MOL   H13120129   2.775   1.118   2.982 -1.1591  2.4283  0.4898
  100MOL   C13220130   2.727   1.248   2.796 -0.7016  0.4700  0.5611
  100MOL   C13320131   2.863   1.240   2.738  0.6425  0.2989 -0.9886
  100MOL   C13420132   2.898   1.294   2.622 -0.4515 -0.1334  0.3966
  100MOL   C13520133   3.033   1.283   2.558 -0.3765 -0.7813 -0.5069
  100MOL   H13620134   2.658   1.231   2.713  2.6225 -1.5829 -1.9662
  100MOL   H13720135   2.714   1.349   2.834  1.3964  0.0411  2.5773
  100MOL   H13820136   2.946   1.182   2.774 -0.5408 -1.7761 -1.5483
  100MOL   H13920137   2.818   1.351   2.577 -0.6179 -0.4351  0.3088
  100MOL   H14020138   3.111   1.240   2.622 -0.7669 -1.6122 -0.5814
  100MOL   H14120139   3.051   1.389   2.539  0.7054 -0.7515  0.5880
  100MOL   C14220140   3.028   1.207   2.423  0.2540  0.3246  0.4935
  100MOL   C14320141   3.009   1.058   2.448 -0.2426  0.3474 -0.2473
  100MOL   C14420142   2.908   0.985   2.394  0.2818 -0.5932 -0.1140
  100MOL   C14520143   2.883   0.839   2.429 -0.3305  0.0138 -0.1952
  100MOL   H14620144   2.950   1.239   2.353  0.1488 -2.7612 -0.9083
  100MOL   H14720145   3.121   1.224   2.368  0.7028 -1.0387  0.8161
  100MOL   H14820146   3.076   1.004   2.513  0.9347  2.2325  0.1492
  100MOL   H14920147   2.828   1.030   2.338  0.7650  0.3138 -0.0921
  100MOL   H15020148   2.776   0.825   2.413 -0.5524  2.2828 -0.9400
  100MOL   H15120149   2.912   0.814   2.531  1.9716  3.2542  0.0358
  100MOL   C15220150   2.966   0.744   2.345 -0.3022 -0.0053 -0.0504
  100MOL   C15320151   2.890   0.616   2.313 -1.0820 -0.0991  0.7130
  100MOL   C15420152   2.918   0.490   2.360 -0.1747  0.3158  0.6222
  100MOL   C15520153   2.842   0.367   2.329 -0.1024  0.1975  0.5481
  100MOL   H15620154   2.990   0.791   2.249 -1.0661 -0.6993 -0.5925
  100MOL   H15720155   3.056   0.720   2.401 -0.1439  0.6211 -0.0304
  100MOL   H15820156   2.803   0.624   2.250  0.9817 -2.0511 -2.5317
  100MOL   H15920157   3.002   0.488   2.428  1.2990  1.8243 -1.0964
  100MOL   H16020158   2.919   0.290   2.324  0.0256  0.2990  0.9306
  100MOL   H16120159   2.793   0.370   2.232 -0.0138  3.9335  0.5360
  100MOL   C16220160   2.743   0.334   2.444 -0.4550 -0.7965 -0.4800
  100MOL   C16320161   2.657   0.218   2.407 -0.0038 -0.1984 -0.0315
  100MOL   C16420162   2.549   0.186   2.482  1.2066  0.1002 -0.4546
  100MOL   C16520163   2.450   0.073   2.444 -0.9610  0.0039 -0.0279
  100MOL   H16620164   2.796   0.296   2.531 -1.4777  0.2565  0.6237
  100MOL   H16720165   2.686   0.421   2.476  1.1431 -0.4341  1.5048
  100MOL   H16820166   2.669   0.155   2.320 -0.0116 -0.6455  0.2851
  100MOL   H16920167   2.541   0.238   2.576  0.4049 -0.5013 -0.1824
  100MOL   H17020168   2.462   0.052   2.338  2.0526 -1.3953  0.5068
  100MOL   H17120169   2.351   0.118   2.450 -1.1484 -0.3529 -0.4945
  100MOL   C17220170   2.464   7.930   2.537 -0.2815  0.7777 -0.9202
  100MOL   C17320171   2.361   7.828   2.496  0.2147 -0.6927  0.0675
  100MOL   C17420172   2.387   7.700   2.467 -0.3655  0.0986  0.5076
  100MOL   C17520173   2.275   7.599   2.449 -0.0322 -0.1400  0.1171
  100MOL   H17620174   2.564   7.887   2.536 -0.6133 -0.0588  0.3226
  100MOL   H17720175   2.433   7.958   2.637 -1.6356 -1.2093 -0.7468
  100MOL   H17820176   2.264   7.873   2.509  0.0256 -1.4207  1.2740
  100MOL   H17920177   2.486   7.663   2.449 -0.4118 -0.4502  1.3278
  100MOL   H18020178   2.193   7.603   2.520  1.5420  0.5552  1.9346
  100MOL   H18120179   2.323   7.503   2.467  1.5990  0.2197 -2.0877
  100MOL   C18220180   2.220   7.594   2.298  0.0861 -0.1555  0.4522
  100MOL   C18320181   2.115   7.483   2.280 -0.5348  0.3246  0.2448
  100MOL   C18420182   2.122   7.380   2.190 -0.3446 -0.0123 -0.1943
  100MOL   C18520183   2.014   7.271   2.182  0.8493 -0.8827 -0.5818
  100MOL   H18620184   2.178   7.687   2.259 -1.4351 -1.0038  0.0304
  100MOL   H18720185   2.307   7.578   2.235  1.1616  1.8214  1.3883
  100MOL   H18820186   2.024   7.486   2.339 -0.6687  1.1528 -0.0055
  100MOL   H18920187   2.206   7.363   2.124 -2.0474 -3.3798 -1.6072
  100MOL   H19020188   1.932   7.283   2.253 -1.0691 -0.8686 -2.7397
  100MOL   H19120189   2.060   7.179   2.218  0.0213 -1.8089 -1.8429
  100MOL   C19220190   1.952   7.267   2.039 -1.0144 -0.6643  0.6553
  100MOL   C19320191   2.063   7.223   1.939  0.7264 -0.1319  0.6025
  100MOL   C19420192   2.096   7.285   1.823 -0.1562 -0.4203 -0.2224
  100MOL   C19520193   2.207   7.232   1.733 -0.4360  0.0204 -0.0106
  100MOL   H19620194   1.879   7.187   2.029 -1.3921 -0.2918  0.4047
  100MOL   H19720195   1.907   7.363   2.014 -1.8806 -1.0588  0.7106
  100MOL   H19820196   2.125   7.137   1.958  1.5640 -0.0186 -1.4676
  100MOL   H19920197   2.051   7.381   1.802  1.3790 -0.4674 -4.2589
  100MOL   H20020198   2.202   7.281   1.636 -1.3985 -0.2313 -0.0912
  100MOL   H20120199   2.190   7.125   1.724  0.1270 -0.3869  3.0250
  100MOL   H20220200   2.302   7.249   1.785 -0.4097  0.4134 -0.1824
  101MOL     C120201   4.694   1.694   4.874 -0.3233 -0.1443  0.2470
  101MOL     C220202   4.821   1.635   4.933  0.0945 -0.8792 -0.0329
  101MOL     C320203   4.869   1.515   4.905 -0.2326 -0.0021  0.4792
  101MOL     C420204   4.994   1.454   4.967  0.7170  0.2461  0.2440
  101MOL     H520205   4.707   1.794   4.833 -1.1575 -0.2725 -0.3553
  101MOL     H620206   4.616   1.701   4.950  0.4956  1.0950  0.9928
  101MOL     H720207   4.871   1.704   4.999  1.4472  0.0718 -2.0236
  101MOL     H820208   4.812   1.449   4.841 -0.1024 -0.6334  1.0118
  101MOL     H920209   4.963   1.379   5.040 -0.6339 -0.5348 -1.1069
  101MOL    H1020210   5.053   1.535   5.009  0.7670  0.0568  0.5439
  101MOL    H1120211   4.658   1.634   4.791 -1.0820  0.8451 -0.1490
  101MOL    C1220212   5.078   1.386   4.855  0.3457  0.4800 -0.1979
  101MOL    C1320213   5.188   1.302   4.922 -0.3539 -0.4095 -0.2947
  101MOL    C1420214   5.310   1.331   4.883 -0.3117  0.4389  0.0932
  101MOL    C1520215   5.437   1.255   4.913  0.0408  0.5747 -0.2043
  101MOL    H1620216   5.002   1.329   4.802  1.4103  0.5404 -1.8174
  101MOL    H1720217   5.111   1.462   4.783  1.9243 -1.2969 -1.4066
  101MOL    H1820218   5.159   1.219   4.985  0.2373 -0.9507 -0.7288
  101MOL    H1920219   5.323   1.411   4.812  1.0490 -2.4830 -3.1113
  101MOL    H2020220   5.477   1.211   4.822 -3.9461  0.2793 -1.9247
  101MOL    H2120221   5.421   1.168   4.977 -0.7244  0.2792 -0.7850
  101MOL    C2220222   5.549   1.342   4.978 -0.0102  0.2962  0.0799
  101MOL    C2320223   5.598   1.448   4.873  0.4086  0.5003  0.1905
  101MOL    C2420224   5.729   1.453   4.847 -0.0595  0.2365  0.3819
  101MOL    C2520225   5.770   1.539   4.730 -0.2423  0.1799 -0.1302
  101MOL    H2620226   5.518   1.385   5.073 -0.8473 -1.5938  0.6883
  101MOL    H2720227   5.635   1.277   4.997  0.1536  0.5697  0.2858
  101MOL    H2820228   5.524   1.509   4.824  0.8068  0.8774  0.0581
  101MOL    H2920229   5.797   1.380   4.887 -1.3506 -2.9626 -2.9475
  101MOL    H3020230   5.678   1.583   4.689  1.3179  3.7227 -0.0259
  101MOL    H3120231   5.814   1.463   4.665  0.2726 -0.0199  0.4500
  101MOL    C3220232   5.863   1.657   4.761 -0.9282 -0.3746  0.8090
  101MOL    C3320233   5.908   1.741   4.645 -0.4045  0.5601  0.8481
  101MOL    C3420234   5.953   1.869   4.656  0.0448 -0.5056  0.2433
  101MOL    C3520235   5.983   1.960   4.542  0.5354 -0.1393  0.6029
  101MOL    H3620236   5.816   1.715   4.841 -1.2901  0.2555  0.1477
  101MOL    H3720237   5.956   1.618   4.801  0.4095  3.0908  1.2184
  101MOL    H3820238   5.884   1.698   4.549 -2.5756  0.9674  1.1638
  101MOL    H3920239   5.956   1.915   4.753  0.2901 -1.6813  0.7998
  101MOL    H4020240   6.091   1.944   4.534  0.5015  0.3866 -1.1027
  101MOL    H4120241   5.973   2.065   4.570  1.7004  0.9115 -2.6772
  101MOL    C4220242   5.902   1.918   4.414  0.8535  0.3358  0.4873
  101MOL    C4320243   5.959   1.991   4.301  0.2225 -0.8352 -0.2621
  101MOL    C4420244   5.895   2.078   4.216  0.1820 -0.0189  0.0540
  101MOL    C4520245   5.971   2.154   4.104 -0.3030 -0.4929  0.7107
  101MOL    H4620246   5.925   1.815   4.384  3.0026  0.8766  0.1545
  101MOL    H4720247   5.795   1.934   4.422  0.9437  1.5662 -0.6033
  101MOL    H4820248   6.066   1.985   4.287  0.7361  2.2046  1.9458
  101MOL    H4920249   5.789   2.097   4.227  0.5542  0.5677  2.9017
  101MOL    H5020250   6.018   2.088   4.031 -0.1879  0.7146 -0.3341
  101MOL    H5120251   6.053   2.210   4.150 -0.0722  2.6539 -3.1833
  101MOL    C5220252   5.873   2.252   4.038  0.1058  0.0281  0.3232
  101MOL    C5320253   5.928   2.307   3.906  0.0530 -0.4052  0.0199
  101MOL    C5420254   5.920   2.433   3.857 -0.6914 -0.8384  0.1443
  101MOL    C5520255   5.970   2.486   3.719  0.1569  0.1414 -0.7171
  101MOL    H5620256   5.781   2.196   4.017 -0.5515  1.9883 -2.4118
  101MOL    H5720257   5.844   2.327   4.111 -2.9923 -0.0597 -0.7205
  101MOL    H5820258   5.980   2.232   3.849 -1.8535  0.1366 -2.5836
  101MOL    H5920259   5.858   2.502   3.911  1.9337  2.1329 -0.4418
  101MOL    H6020260   5.883   2.520   3.663 -0.7613 -0.4915  0.3027
  101MOL    H6120261   6.019   2.404   3.667  0.6199 -0.2496  0.3062
  101MOL    C6220262   6.072   2.605   3.740 -0.3833 -0.5971  0.2147
  101MOL    C6320263   6.124   2.645   3.598 -0.0034  0.4258  0.1130
  101MOL    C6420264   6.245   2.679   3.569 -0.7970  0.0175  0.5258
  101MOL    C6520265   6.286   2.732   3.431  0.6393 -0.5174 -1.1233
  101MOL    H6620266   6.018   2.689   3.784  0.0655  0.2445 -0.8074
  101MOL    H6720267   6.147   2.569   3.810 -1.6691 -0.3454  1.7391
  101MOL    H6820268   6.056   2.631   3.516 -1.4259  0.6899  1.2251
  101MOL    H6920269   6.311   2.665   3.653 -0.1520  2.5766  0.5116
  101MOL    H7020270   6.313   2.838   3.432 -3.1241  0.5150  0.4882
  101MOL    H7120271   6.198   2.714   3.368 -0.7828  0.0886  0.6455
  101MOL    C7220272   6.406   2.650   3.366 -0.4586 -0.1448 -0.5966
  101MOL    C7320273   6.392   2.660   3.222  0.1110 -0.2257  0.0549
  101MOL    C7420274   6.344   2.574   3.131  0.0880  0.4683  0.5651
  101MOL    C7520275   6.340   2.604   2.977 -0.2520 -0.1137  0.5843
  101MOL    H7620276   6.500   2.700   3.388  0.3053 -1.0501 -1.7800
  101MOL    H7720277   6.402   2.543   3.387  0.8233 -0.0888 -0.0497
  101MOL    H7820278   6.421   2.761   3.198 -0.3454 -0.3131 -0.8631
  101MOL    H7920279   6.328   2.471   3.159  1.5629 -0.5378 -2.0320
  101MOL    H8020280   6.399   2.533   2.920 -2.5362  0.0411 -2.1191
  101MOL    H8120281   6.378   2.701   2.943 -1.3762 -1.2084 -4.2295
  101MOL    C8220282   6.196   2.600   2.921  0.3697 -0.0676  0.7507
  101MOL    C8320283   6.205   2.610   2.769 -0.5337 -0.2244 -0.4368
  101MOL    C8420284   6.253   2.513   2.694 -0.4184 -0.4862  0.3562
  101MOL    C8520285   6.278   2.526   2.536  0.6035  0.1866  0.3496
  101MOL    H8620286   6.151   2.502   2.934 -0.1571  0.1613  0.6514
  101MOL    H8720287   6.125   2.670   2.964 -1.8801 -1.4923 -0.5634
  101MOL    H8820288   6.185   2.707   2.725 -0.5616 -0.2091 -0.3902
  101MOL    H8920289   6.270   2.414   2.733 -1.2589 -0.3892  0.9708
  101MOL    H9020290   6.383   2.511   2.512  0.6674 -0.2864  0.9185
  101MOL    H9120291   6.258   2.628   2.503  3.4683  0.1892 -1.5922
  101MOL    C9220292   6.189   2.430   2.457 -0.1073 -1.1351 -0.6918
  101MOL    C9320293   6.040   2.463   2.462 -0.5668  0.0467  0.3946
  101MOL    C9420294   5.953   2.455   2.356 -0.2218  0.3278 -0.3125
  101MOL    C9520295   5.808   2.484   2.370 -0.3097  0.2348  0.2680
  101MOL    H9620296   6.230   2.445   2.357  3.7543 -1.4792  0.7600
  101MOL    H9720297   6.192   2.328   2.496 -1.5011 -0.5419  1.0637
  101MOL    H9820298   6.004   2.498   2.558 -1.1840 -1.5585  0.7777
  101MOL    H9920299   5.977   2.426   2.255 -0.0208  1.1993 -0.5164
  101MOL   H10020300   5.789   2.521   2.471 -0.0941 -1.5941  1.0043
  101MOL   H10120301   5.751   2.391   2.363 -1.3009  0.8447  0.2201
  101MOL   C10220302   5.765   2.596   2.269 -0.8716  0.0414  0.1640
  101MOL   C10320303   5.629   2.649   2.296  0.0146  0.3048  0.6885
  101MOL   C10420304   5.610   2.781   2.321  0.1698 -0.4062 -0.5208
  101MOL   C10520305   5.473   2.840   2.348  0.1017 -0.6460 -0.4275
  101MOL   H10620306   5.829   2.683   2.263  2.5406 -2.3103  0.9562
  101MOL   H10720307   5.749   2.560   2.168 -0.0807  0.1658 -0.0080
  101MOL   H10820308   5.547   2.579   2.297  1.4267 -1.4733 -2.2225
  101MOL   H10920309   5.699   2.840   2.332 -0.1319  0.1914 -1.2557
  101MOL   H11020310   5.405   2.756   2.365 -1.1382  0.2772 -0.7364
  101MOL   H11120311   5.431   2.880   2.256 -1.8973  0.8454  1.0719
  101MOL   C11220312   5.474   2.940   2.464  0.3277 -0.9368 -0.0907
  101MOL   C11320313   5.473   2.865   2.600 -0.6022 -0.6063  0.0624
  101MOL   C11420314   5.392   2.885   2.701 -0.0790 -0.7491  0.1801
  101MOL   C11520315   5.388   2.802   2.831  0.9329 -0.1933 -0.5772
  101MOL   H11620316   5.564   3.002   2.462  0.2417 -0.6253  3.3320
  101MOL   H11720317   5.383   2.999   2.451 -0.4245 -1.6674  1.7332
  101MOL   H11820318   5.558   2.799   2.608 -0.7861 -1.0558 -1.5528
  101MOL   H11920319   5.323   2.968   2.696 -0.1301 -0.8593 -1.0081
  101MOL   H12020320   5.451   2.714   2.821 -0.4696 -1.1034 -1.5371
  101MOL   H12120321   5.283   2.773   2.839  0.9339  0.1682  0.8234
  101MOL   C12220322   5.443   2.886   2.945 -0.5763 -0.7313  0.3755
  101MOL   C12320323   5.445   2.807   3.079  0.4360 -0.7127  0.0990
  101MOL   C12420324   5.405   2.679   3.091  0.3573  0.3460 -0.7757
  101MOL   C12520325   5.405   2.605   3.223 -0.1483  0.4681 -0.3546
  101MOL   H12620326   5.545   2.916   2.921 -0.9780 -0.7836 -1.4877
  101MOL   H12720327   5.371   2.968   2.949 -0.0897 -0.2852  0.0194
  101MOL   H12820328   5.483   2.862   3.164  3.6100 -0.6236 -1.2955
  101MOL   H12920329   5.356   2.627   3.010 -1.3844 -1.0485  1.1336
  101MOL   H13020330   5.304   2.563   3.224  0.1082 -0.1982  2.7997
  101MOL   H13120331   5.427   2.679   3.301  0.5679  0.0160 -0.1230
  101MOL   C13220332   5.519   2.505   3.226  0.0050 -0.2749  0.1768
  101MOL   C13320333   5.506   2.418   3.346 -0.1094  0.8411  0.1743
  101MOL   C13420334   5.510   2.282   3.348 -0.5515 -0.0227  0.0196
  101MOL   C13520335   5.498   2.197   3.474  0.2191 -0.1441 -0.1689
  101MOL   H13620336   5.503   2.450   3.134  0.7996  1.2767 -0.9267
  101MOL   H13720337   5.621   2.544   3.226  0.5407 -1.5993  3.0937
  101MOL   H13820338   5.468   2.469   3.433  2.9844 -1.4458  2.9906
  101MOL   H13920339   5.535   2.233   3.255 -2.0275  0.9475 -0.9048
  101MOL   H14020340   5.415   2.127   3.467  0.8525 -0.6816 -3.0341
  101MOL   H14120341   5.492   2.261   3.561 -1.7986  0.4367 -0.7224
  101MOL   C14220342   5.621   2.101   3.490  0.1301 -0.1737 -0.0895
  101MOL   C14320343   5.605   1.995   3.605  0.4903  0.6032  0.0313
  101MOL   C14420344   5.680   1.976   3.711 -0.0430 -0.1831 -0.1672
  101MOL   C14520345   5.658   1.863   3.809 -0.3160  0.2215  0.1822
  101MOL   H14620346   5.641   2.052   3.395 -0.9664  0.1831 -0.5087
  101MOL   H14720347   5.711   2.159   3.510 -0.8833  2.0809 -1.9011
  101MOL   H14820348   5.527   1.923   3.584  1.4802  0.4841 -3.6632
  101MOL   H14920349   5.758   2.047   3.732  0.9137 -1.1068 -0.5952
  101MOL   H15020350   5.748   1.801   3.813  0.8660  1.8602 -0.6702
  101MOL   H15120351   5.590   1.793   3.761  0.4159 -0.6595  0.4182
  101MOL   C15220352   5.611   1.900   3.951  0.6769 -0.3628  0.1846
  101MOL   C15320353   5.595   1.782   4.052 -0.2334  0.2459  0.3985
  101MOL   C15420354   5.643   1.771   4.175  0.6328 -0.4313  0.1072
  101MOL   C15520355   5.619   1.648   4.260  0.1798  0.0978  0.6213
  101MOL   H15620356   5.679   1.971   4.001  0.0604  0.8813 -0.7238
  101MOL   H15720357   5.513   1.947   3.947 -0.5249 -2.7252  1.0235
  101MOL   H15820358   5.536   1.702   4.008 -1.6554  0.8597  1.1523
  101MOL   H15920359   5.701   1.845   4.226  2.4824 -0.9769 -1.1672
  101MOL   H16020360   5.714   1.622   4.307  0.0852  0.3953  0.9828
  101MOL   H16120361   5.582   1.568   4.196 -1.0121  1.0173  0.1360
  101MOL   C16220362   5.511   1.683   4.355 -0.0828  0.3517 -0.4451
  101MOL   C16320363   5.478   1.570   4.445 -0.3078  0.2236 -0.5776
  101MOL   C16420364   5.368   1.492   4.445 -0.2764  0.8171 -0.3749
  101MOL   C16520365   5.331   1.383   4.548 -0.2072  0.5227 -0.0405
  101MOL   H16620366   5.541   1.771   4.411 -1.0589  1.7111 -1.9803
  101MOL   H16720367   5.425   1.699   4.290 -0.2084  1.1372 -0.0849
  101MOL   H16820368   5.550   1.551   4.523 -0.3355 -0.6640 -0.7632
  101MOL   H16920369   5.287   1.491   4.373 -0.7877 -0.1887  0.2001
  101MOL   H17020370   5.238   1.397   4.604 -0.0779 -2.0531  0.9224
  101MOL   H17120371   5.402   1.394   4.630  0.5237  3.1043 -1.0032
  101MOL   C17220372   5.340   1.239   4.496 -0.4255  0.5272 -0.7261
  101MOL   C17320373   5.286   1.144   4.600 -0.0440 -0.4632 -0.0832
  101MOL   C17420374   5.177   1.064   4.588  0.0869 -0.6771  0.3477
  101MOL   C17520375   5.124   0.971   4.696 -0.0870 -0.3749 -0.1305
  101MOL   H17620376   5.294   1.233   4.397 -2.2268 -3.5549  0.2969
  101MOL   H17720377   5.445   1.221   4.471  0.2339  2.1002  0.8001
  101MOL   H17820378   5.331   1.142   4.699  2.1582 -0.0965 -1.0359
  101MOL   H17920379   5.128   1.058   4.492  1.2886  1.2103 -0.4177
  101MOL   H18020380   5.021   0.992   4.727  0.7217  3.2157  0.3874
  101MOL   H18120381   5.182   0.996   4.785 -2.6607  1.9082  0.9940
  101MOL   C18220382   5.135   0.817   4.671  0.1043 -0.0584 -0.0063
  101MOL   C18320383   5.095   0.723   4.787 -0.1143  0.0226 -0.1338
  101MOL   C18420384   5.138   0.595   4.796 -1.0822  0.2737 -0.0998
  101MOL   C18520385   5.125   0.508   4.919  0.4649  0.0472 -0.5934
  101MOL   H18620386   5.070   0.786   4.590 -0.3525  0.2703  0.2318
  101MOL   H18720387   5.232   0.788   4.629  1.0463  0.3264  1.8458
  101MOL   H18820388   5.048   0.780   4.866  2.1611  2.6583 -0.6476
  101MOL   H18920389   5.196   0.551   4.716  1.2565  1.8169  0.6876
  101MOL   H19020390   5.071   0.418   4.892  1.0399  0.5252 -3.4450
  101MOL   H19120391   5.073   0.554   5.003  1.7659 -0.5366  0.5547
  101MOL   C19220392   5.263   0.479   4.970 -0.2922  0.2606 -0.4370
  101MOL   C19320393   5.269   0.358   5.056 -0.1249  0.7533  0.5756
  101MOL   C19420394   5.306   0.352   5.190  0.1129  0.1707 -0.5024
  101MOL   C19520395   5.327   0.225   5.278  0.0443  0.3993 -0.0514
  101MOL   H19620396   5.329   0.459   4.886 -0.9830 -2.5424 -0.3483
  101MOL   H19720397   5.303   0.567   5.022  2.0366 -1.7595  1.3030
  101MOL   H19820398   5.252   0.271   4.995  1.8789  1.7414 -1.4585
  101MOL   H19920399   5.329   0.451   5.227  2.6771 -0.4867 -0.2493
  101MOL   H20020400   5.266   0.160   5.216  1.6844  0.1266 -1.4047
  101MOL   H20120401   5.263   0.235   5.366  1.2346  2.5476  0.6218
  101MOL   H20220402   5.430   0.190   5.291 -0.0154  1.0954  2.6858
  102MOL     C120403   7.485   6.395   4.389  0.0575 -0.3515 -0.0625
  102MOL     C220404   7.507   6.316   4.261  0.3006  0.1514  0.7247
  102MOL     C320405   7.490   6.181   4.260  0.0211 -0.4603  0.2869
  102MOL     C420406   7.485   6.102   4.130 -0.5430 -0.3818 -0.2814
  102MOL     H520407   7.459   6.332   4.474  0.4216 -0.4657 -0.0371
  102MOL     H620408   7.394   6.454   4.383 -0.9156 -1.7145  0.9407
  102MOL     H720409   7.510   6.372   4.168 -2.3837 -0.4997  0.2195
  102MOL     H820410   7.460   6.121   4.345 -0.6807 -0.0955  0.2989
  102MOL     H920411   7.571   6.037   4.116  0.3922  0.6942  0.3520
  102MOL    H1020412   7.491   6.175   4.050 -0.4320  0.3729  0.4061
  102MOL    H1120413   7.569   6.460   4.413 -0.4154 -0.2537  1.3866
  102MOL    C1220414   7.358   6.017   4.125 -0.0241 -0.0444 -0.4016
  102MOL    C1320415   7.347   5.926   4.005 -0.3585 -0.6417  0.6545
  102MOL    C1420416   7.240   5.923   3.923 -0.2108  0.4989  0.6321
  102MOL    C1520417   7.234   5.819   3.811  0.0599  0.0834 -0.0158
  102MOL    H1620418   7.370   5.949   4.209  1.4423  0.6391 -0.0516
  102MOL    H1720419   7.263   6.065   4.148 -1.0301 -2.8843  1.7147
  102MOL    H1820420   7.434   5.864   3.990  0.7423  1.3565 -1.5591
  102MOL    H1920421   7.155   5.990   3.932 -0.6538  0.2018 -1.0960
  102MOL    H2020422   7.153   5.748   3.829  0.3977 -0.5104 -0.8083
  102MOL    H2120423   7.323   5.757   3.807  1.6917  2.4143 -0.9975
  102MOL    C2220424   7.228   5.885   3.678 -0.5061 -0.3315  0.5292
  102MOL    C2320425   7.236   5.783   3.558  0.1042  0.3587  0.2262
  102MOL    C2420426   7.146   5.759   3.464  0.1010 -0.1582 -0.0223
  102MOL    C2520427   7.161   5.652   3.355  0.1904 -0.4111 -0.1787
  102MOL    H2620428   7.134   5.936   3.655 -0.4117 -0.4536 -0.1672
  102MOL    H2720429   7.312   5.953   3.662 -0.7112 -0.2463 -0.2346
  102MOL    H2820430   7.328   5.727   3.547 -0.4233 -0.4231 -0.2146
  102MOL    H2920431   7.062   5.827   3.456 -0.7137 -1.2459 -0.8370
  102MOL    H3020432   7.069   5.595   3.362 -0.6724  1.1583  1.7546
  102MOL    H3120433   7.250   5.593   3.376  0.0064 -0.8095 -0.5199
  102MOL    C3220434   7.175   5.709   3.213  0.0963 -0.2608 -0.6974
  102MOL    C3320435   7.039   5.759   3.153 -0.4358 -0.6247 -0.1289
  102MOL    C3420436   7.020   5.886   3.109 -0.4627  0.4385  0.2375
  102MOL    C3520437   6.901   5.935   3.047  0.3912 -0.2362  0.6926
  102MOL    H3620438   7.239   5.797   3.221 -0.0633 -0.2309  0.2982
  102MOL    H3720439   7.221   5.635   3.147 -0.1326  0.6421 -1.8747
  102MOL    H3820440   6.960   5.687   3.138 -0.8188 -0.2835  0.2453
  102MOL    H3920441   7.093   5.965   3.105 -0.8673  0.8060  0.1040
  102MOL    H4020442   6.838   5.852   3.015 -0.3194  0.7279 -0.4394
  102MOL    H4120443   6.929   5.991   2.958 -1.9090 -1.9461 -1.1722
  102MOL    C4220444   6.819   6.014   3.150 -0.1348  0.2234 -0.2940
  102MOL    C4320445   6.700   6.076   3.092  0.3229  0.1718 -0.6851
  102MOL    C4420446   6.621   6.028   2.992  0.0483 -0.5295  0.3295
  102MOL    C4520447   6.502   6.102   2.931  0.4326 -0.4221 -0.3261
  102MOL    H4620448   6.776   5.962   3.235 -1.5507 -0.5408 -1.4509
  102MOL    H4720449   6.881   6.096   3.186 -0.1359  0.1662 -0.1625
  102MOL    H4820450   6.664   6.161   3.147  1.5369  0.8283 -0.8941
  102MOL    H4920451   6.659   5.942   2.940  1.9285  0.4062  0.1125
  102MOL    H5020452   6.475   6.194   2.982 -0.6913 -0.2528 -1.2231
  102MOL    H5120453   6.420   6.031   2.921 -0.7093  0.7118  0.7683
  102MOL    C5220454   6.541   6.154   2.789  0.0219 -0.1621  0.5704
  102MOL    C5320455   6.448   6.260   2.740 -0.6685 -0.3166  0.4768
  102MOL    C5420456   6.391   6.253   2.615  0.4067 -0.2327  1.4548
  102MOL    C5520457   6.295   6.350   2.566  0.7254 -0.2650  0.1143
  102MOL    H5620458   6.639   6.201   2.792  0.9369 -1.8476 -1.7021
  102MOL    H5720459   6.557   6.072   2.719  1.3353  0.2068  0.4166
  102MOL    H5820460   6.427   6.350   2.797 -0.8395 -0.1353  0.1298
  102MOL    H5920461   6.415   6.166   2.555  1.8517  1.2278 -0.1347
  102MOL    H6020462   6.356   6.420   2.508  0.6706  0.0524  0.4417
  102MOL    H6120463   6.256   6.408   2.649  0.2869 -1.6126  0.8664
  102MOL    C6220464   6.178   6.290   2.498  0.3219 -0.1591 -0.1810
  102MOL    C6320465   6.222   6.226   2.367  0.0953  0.2200  0.4559
  102MOL    C6420466   6.174   6.271   2.248 -1.1817  0.2632 -0.6481
  102MOL    C6520467   6.213   6.224   2.111 -0.2849  0.1040  0.0466
  102MOL    H6620468   6.125   6.220   2.562  0.0538  0.6638  0.5039
  102MOL    H6720469   6.106   6.369   2.479 -0.2294 -1.1685 -2.5126
  102MOL    H6820470   6.289   6.142   2.373 -0.1437  0.0761  1.1952
  102MOL    H6920471   6.116   6.361   2.261 -1.4039 -0.1694  1.4685
  102MOL    H7020472   6.137   6.270   2.047  1.9023  0.9604 -2.0032
  102MOL    H7120473   6.194   6.117   2.099 -2.5652  0.3854  0.8872
  102MOL    C7220474   6.354   6.281   2.064  1.1772  0.4307 -0.2260
  102MOL    C7320475   6.467   6.191   2.115  0.1859 -0.3958 -0.9715
  102MOL    C7420476   6.572   6.220   2.194  0.3574 -0.2570 -0.8453
  102MOL    C7520477   6.672   6.108   2.241  0.0292  0.1705 -0.0138
  102MOL    H7620478   6.360   6.282   1.955 -1.0162  0.4635 -0.3665
  102MOL    H7720479   6.361   6.386   2.094 -2.3663  0.5844  0.2342
  102MOL    H7820480   6.456   6.093   2.070  1.6081 -0.6695 -0.7218
  102MOL    H7920481   6.581   6.316   2.242  0.8046  0.3782 -2.1680
  102MOL    H8020482   6.775   6.144   2.235 -0.0113  0.2631 -0.1608
  102MOL    H8120483   6.665   6.021   2.175  0.3714  0.7439 -0.8136
  102MOL    C8220484   6.637   6.077   2.381 -0.2697  0.4028  0.6326
  102MOL    C8320485   6.752   6.029   2.457  0.6477  0.0068  0.3959
  102MOL    C8420486   6.799   6.093   2.565  0.1851 -0.2488  0.5032
  102MOL    C8520487   6.930   6.061   2.639  0.1998 -0.3689  0.2158
  102MOL    H8620488   6.595   6.167   2.425 -0.5017  0.5882  0.0357
  102MOL    H8720489   6.558   6.003   2.375  0.6525 -0.7210  1.9624
  102MOL    H8820490   6.783   5.929   2.433  0.6948  0.1301 -0.0694
  102MOL    H8920491   6.749   6.182   2.599 -1.2834 -1.1585  0.7632
  102MOL    H9020492   6.991   5.985   2.590 -1.3813 -0.4740 -1.6752
  102MOL    H9120493   6.914   6.021   2.739 -0.0245 -1.1568 -0.1329
  102MOL    C9220494   7.015   6.183   2.648  0.0538  0.1415 -0.0016
  102MOL    C9320495   7.147   6.148   2.702  0.2812  0.5295  0.0643
  102MOL    C9420496   7.268   6.183   2.659  0.0442  0.7528  0.6637
  102MOL    C9520497   7.396   6.161   2.730  0.1829 -0.5907 -0.5466
  102MOL    H9620498   7.028   6.235   2.553  0.1074 -0.5055 -0.3457
  102MOL    H9720499   6.969   6.254   2.717 -0.6954  0.0453 -0.3996
  102MOL    H9820500   7.144   6.084   2.789 -0.9013 -0.2325 -0.5309
  102MOL    H9920501   7.277   6.252   2.577 -1.4928  0.5314  0.2800
  102MOL   H10020502   7.376   6.118   2.828 -0.4614  0.5533 -0.1733
  102MOL   H10120503   7.433   6.263   2.742 -0.9672 -0.2951  0.5199
  102MOL   C10220504   7.500   6.077   2.650  0.1448  0.6033 -0.1985
  102MOL   C10320505   7.487   5.924   2.670  0.0398  0.1939 -0.3918
  102MOL   C10420506   7.596   5.843   2.662  0.0712 -0.0405  0.5346
  102MOL   C10520507   7.602   5.695   2.683  0.1392 -0.0776  0.2485
  102MOL   H10620508   7.471   6.097   2.547  0.9204  0.5362 -0.4325
  102MOL   H10720509   7.604   6.098   2.674 -0.1491  0.7933  0.9009
  102MOL   H10820510   7.390   5.886   2.698 -0.8292  1.3691 -1.7178
  102MOL   H10920511   7.687   5.886   2.620 -0.1560  1.6224  1.6995
  102MOL   H11020512   7.583   5.638   2.593 -2.0580  1.2671 -0.1949
  102MOL   H11120513   7.527   5.671   2.759 -1.2691 -1.0779 -1.4401
  102MOL   C11220514   7.742   5.648   2.736  0.2914  0.9943 -0.4905
  102MOL   C11320515   7.756   5.499   2.738 -0.5686  0.8868 -0.4737
  102MOL   C11420516   7.784   5.424   2.628  0.2554  0.5155 -0.7291
  102MOL   C11520517   7.803   5.275   2.620  0.5502  0.4363 -0.2301
  102MOL   H11620518   7.829   5.688   2.683  0.3382  0.5763 -0.7356
  102MOL   H11720519   7.755   5.677   2.840  0.9878 -1.8887  0.2578
  102MOL   H11820520   7.756   5.448   2.833  0.6818 -0.0236 -0.9405
  102MOL   H11920521   7.794   5.492   2.544  1.3165  1.7582  0.3708
  102MOL   H12020522   7.757   5.234   2.710 -0.3741  0.7660 -0.5496
  102MOL   H12120523   7.909   5.250   2.622  0.1102 -1.4930  0.1890
  102MOL   C12220524   7.735   5.221   2.496 -0.5477 -0.4513 -0.2617
  102MOL   C12320525   7.589   5.261   2.475  0.8305 -0.0360  1.2469
  102MOL   C12420526   7.483   5.182   2.439  0.3052  0.4336 -0.6927
  102MOL   C12520527   7.354   5.228   2.384 -0.2513  0.5551  1.0523
  102MOL   H12620528   7.782   5.257   2.404 -1.7350  0.6397 -0.4546
  102MOL   H12720529   7.756   5.114   2.498 -1.6760 -0.6707  0.2893
  102MOL   H12820530   7.571   5.367   2.488 -0.1973 -0.3808  2.6985
  102MOL   H12920531   7.481   5.075   2.425  1.5339  0.4416 -1.0153
  102MOL   H13020532   7.347   5.180   2.286  1.9898  3.6606 -0.7460
  102MOL   H13120533   7.356   5.336   2.370 -0.9575  0.8255  2.8746
  102MOL   C13220534   7.229   5.209   2.473 -0.4159  0.0715 -0.1805
  102MOL   C13320535   7.095   5.241   2.409 -0.8448  0.1491 -0.2563
  102MOL   C13420536   6.979   5.249   2.472 -0.7842  0.0695  0.9609
  102MOL   C13520537   6.855   5.304   2.399  1.0834  0.2651 -0.7810
  102MOL   H13620538   7.233   5.109   2.516  1.9177  0.1835 -0.0969
  102MOL   H13720539   7.230   5.269   2.564 -2.0344 -1.6664  1.0349
  102MOL   H13820540   7.101   5.260   2.303 -0.1886 -0.1101 -0.2706
  102MOL   H13920541   6.975   5.234   2.579 -0.2840 -0.9912  0.8360
  102MOL   H14020542   6.883   5.337   2.299 -1.7824 -1.2623 -2.1403
  102MOL   H14120543   6.820   5.396   2.446  0.4856 -0.1858 -0.3216
  102MOL   C14220544   6.752   5.194   2.394  0.3647 -0.5737 -0.7044
  102MOL   C14320545   6.804   5.070   2.318 -1.0639  0.5166 -0.5282
  102MOL   C14420546   6.842   5.077   2.192  0.6108  0.0030 -0.6188
  102MOL   C14520547   6.874   4.960   2.111 -0.6362  0.4349  0.0458
  102MOL   H14620548   6.720   5.162   2.494 -3.6955 -0.1944 -1.8214
  102MOL   H14720549   6.656   5.235   2.363  0.6000 -1.2458 -2.3588
  102MOL   H14820550   6.794   4.978   2.373 -1.8296  1.0033  0.1770
  102MOL   H14920551   6.837   5.172   2.140  0.6332 -0.0604 -0.7379
  102MOL   H15020552   6.884   4.870   2.172 -2.0391  0.3979  0.2513
  102MOL   H15120553   6.971   4.986   2.070 -0.0135  0.0766  1.2827
  102MOL   C15220554   6.769   4.939   1.995 -0.1623  0.4077 -0.0712
  102MOL   C15320555   6.643   4.858   2.024  0.1685 -0.0612  0.8772
  102MOL   C15420556   6.616   4.741   1.965 -0.0309 -0.2531 -0.2538
  102MOL   C15520557   6.485   4.667   1.986  0.5779 -0.0692 -0.0987
  102MOL   H15620558   6.741   5.033   1.947 -2.2861  0.5434  1.3466
  102MOL   H15720559   6.828   4.890   1.918  1.1478  0.7580  0.7040
  102MOL   H15820560   6.567   4.911   2.080  1.6309  2.7323  0.2990
  102MOL   H15920561   6.677   4.695   1.889 -0.9979 -3.6627  0.9652
  102MOL   H16020562   6.435   4.662   1.889  0.2499 -1.4824  0.1365
  102MOL   H16120563   6.410   4.722   2.043  0.0043  1.2894 -2.1087
  102MOL   C16220564   6.506   4.527   2.044  0.0578  0.1305 -0.1175
  102MOL   C16320565   6.393   4.443   1.997 -0.3561 -0.6649  0.2188
  102MOL   C16420566   6.414   4.363   1.887 -0.0329 -0.6767  0.1005
  102MOL   C16520567   6.298   4.286   1.826  0.2185 -0.0076  0.6160
  102MOL   H16620568   6.600   4.485   2.008  0.1193  0.5700 -0.4747
  102MOL   H16720569   6.514   4.528   2.152 -1.6358  0.1227  0.0184
  102MOL   H16820570   6.298   4.452   2.047 -0.5886  3.0613 -0.7983
  102MOL   H16920571   6.514   4.354   1.848 -0.3667 -1.4058 -0.6067
  102MOL   H17020572   6.229   4.266   1.908  2.0307 -5.3072  1.0276
  102MOL   H17120573   6.328   4.183   1.809 -0.1692 -0.5820  3.2331
  102MOL   C17220574   6.222   4.358   1.715  0.2232  0.6139  0.2175
  102MOL   C17320575   6.144   4.257   1.631  0.3051 -0.1349 -0.0433
  102MOL   C17420576   6.157   4.246   1.499  0.9113  0.3966  0.5017
  102MOL   C17520577   6.094   4.147   1.397  0.1542  0.2207 -0.7193
  102MOL   H17620578   6.156   4.437   1.750  0.3638  1.0261 -0.4435
  102MOL   H17720579   6.289   4.406   1.644 -0.1705 -0.6908 -1.0449
  102MOL   H17820580   6.077   4.186   1.676 -2.3645  1.4279 -1.4632
  102MOL   H17920581   6.220   4.321   1.455 -0.3871  0.8657 -0.5864
  102MOL   H18020582   6.051   4.201   1.313 -0.4814 -1.4267 -1.4828
  102MOL   H18120583   6.009   4.097   1.444  2.0956 -1.4230  1.1565
  102MOL   C18220584   6.194   4.037   1.348 -0.0486 -0.4692 -0.2864
  102MOL   C18320585   6.274   4.096   1.234 -0.4606 -0.0221  0.5590
  102MOL   C18420586   6.410   4.113   1.231 -0.3525  0.6599 -0.4553
  102MOL   C18520587   6.480   4.181   1.106 -0.9728 -0.1297  0.5344
  102MOL   H18620588   6.266   4.005   1.424  0.7245  0.4101 -0.6460
  102MOL   H18720589   6.140   3.948   1.315 -0.6193  0.5328 -2.1069
  102MOL   H18820590   6.213   4.129   1.151 -2.0847 -1.5160  1.1357
  102MOL   H18920591   6.468   4.067   1.309  1.4179 -0.4115 -2.3403
  102MOL   H19020592   6.514   4.280   1.138 -0.3343  0.3244 -1.5117
  102MOL   H19120593   6.403   4.192   1.030 -0.0632 -1.1763 -0.5590
  102MOL   C19220594   6.580   4.086   1.036 -0.3202 -0.8141  0.0614
  102MOL   C19320595   6.676   4.156   0.940 -0.6035 -0.1168  0.3050
  102MOL   C19420596   6.806   4.119   0.927 -0.6086 -0.2952 -0.2256
  102MOL   C19520597   6.902   4.180   0.825  0.2816 -0.2069  0.4588
  102MOL   H19620598   6.650   4.055   1.114  2.7744  2.3787 -1.2574
  102MOL   H19720599   6.539   3.997   0.988  1.1036 -0.4697 -1.8695
  102MOL   H19820600   6.628   4.230   0.878 -1.0654 -0.1551  0.6109
  102MOL   H19920601   6.851   4.036   0.980 -1.1927 -0.0784  0.6085
  102MOL   H20020602   6.994   4.211   0.875 -0.2840 -0.8986  1.9207
  102MOL   H20120603   6.873   4.280   0.792  1.4989 -0.0282 -0.1318
  102MOL   H20220604   6.928   4.112   0.744  0.1643 -0.3708  0.5600
  103MOL     C120605   3.243   7.396   3.520 -0.0683 -0.5320  0.4985
  103MOL     C220606   3.157   7.502   3.583 -0.3495  0.0818  0.0690
  103MOL     C320607   3.085   7.595   3.512 -0.0594 -0.4273  0.5943
  103MOL     C420608   3.001   7.709   3.560 -0.0231  0.0565  0.8979
  103MOL     H520609   3.241   7.304   3.579  0.4241 -0.3310  0.8347
  103MOL     H620610   3.346   7.429   3.507 -0.8979  2.0805  0.3333
  103MOL     H720611   3.168   7.514   3.690  1.5724  0.6046 -0.1787
  103MOL     H820612   3.091   7.566   3.408 -1.4257 -0.0934  0.4238
  103MOL     H920613   3.016   7.711   3.668  0.9732 -0.6022  0.7812
  103MOL    H1020614   2.896   7.680   3.552  0.1731  0.1449 -2.8013
  103MOL    H1120615   3.204   7.375   3.421 -0.9106  0.5614  0.5880
  103MOL    C1220616   3.027   7.841   3.489 -0.6404 -0.0831 -0.6525
  103MOL    C1320617   2.907   7.935   3.522 -0.3683 -0.1198 -0.4227
  103MOL    C1420618   2.829   0.030   3.443  0.1335 -0.8951 -0.5225
  103MOL    C1520619   2.708   0.119   3.479 -0.3370 -1.3795 -0.2058
  103MOL    H1620620   3.120   7.890   3.518 -0.8060 -0.6598  0.9398
  103MOL    H1720621   3.036   7.819   3.383  3.1903  2.2043 -0.8897
  103MOL    H1820622   2.871   7.922   3.623  0.6383  2.1595  0.2485
  103MOL    H1920623   2.853   0.038   3.338 -0.3425 -0.3978 -0.5962
  103MOL    H2020624   2.744   0.218   3.451 -0.1214 -1.9163 -1.8537
  103MOL    H2120625   2.680   0.117   3.584  0.2437  0.2807 -0.0203
  103MOL    C2220626   2.579   0.073   3.405  0.6598  0.3853  0.1552
  103MOL    C2320627   2.468   0.157   3.443 -0.3865 -0.5396  0.4869
  103MOL    C2420628   2.340   0.113   3.440 -0.2065 -0.4424  0.4346
  103MOL    C2520629   2.222   0.180   3.484  0.2271  0.6396  0.6697
  103MOL    H2620630   2.615   0.085   3.302  0.4143  0.2300  0.0508
  103MOL    H2720631   2.557   7.947   3.433  1.6593 -0.1663 -1.0363
  103MOL    H2820632   2.499   0.254   3.477 -0.5858 -0.1605 -0.3938
  103MOL    H2920633   2.329   0.010   3.408  1.5686 -0.1576 -1.2192
  103MOL    H3020634   2.255   0.269   3.537 -1.2588  1.6943 -0.1274
  103MOL    H3120635   2.173   0.119   3.560 -1.6600 -1.5122 -2.1270
  103MOL    C3220636   2.123   0.205   3.363  0.2242  0.2571 -0.3415
  103MOL    C3320637   2.008   0.295   3.405  0.0355  0.6504  0.0444
  103MOL    C3420638   1.879   0.281   3.376  0.2600  0.7405 -0.5883
  103MOL    C3520639   1.763   0.371   3.423 -0.6615  0.1091 -0.3047
  103MOL    H3620640   2.182   0.249   3.282 -0.1116 -0.6972 -1.1049
  103MOL    H3720641   2.090   0.108   3.327 -0.4305  0.7961 -1.2003
  103MOL    H3820642   2.027   0.383   3.465 -3.3246  2.1091 -0.9227
  103MOL    H3920643   1.856   0.195   3.314 -1.7311  0.4405  0.5296
  103MOL    H4020644   1.811   0.430   3.501  0.0257 -0.7707 -0.0626
  103MOL    H4120645   1.683   0.316   3.472 -0.9797 -0.0748 -1.0143
  103MOL    C4220646   1.707   0.466   3.310  0.5130  0.1984  0.0720
  103MOL    C4320647   1.592   0.550   3.357  0.1593  0.0417  1.1356
  103MOL    C4420648   1.598   0.683   3.389 -0.1288 -0.0791 -0.4512
  103MOL    C4520649   1.475   0.767   3.426  0.5296 -0.0331  0.1186
  103MOL    H4620650   1.787   0.533   3.276  0.5189  1.0041  1.6489
  103MOL    H4720651   1.666   0.420   3.220  0.4178  1.7277 -0.6931
  103MOL    H4820652   1.497   0.499   3.365  0.8569 -1.4479  0.2234
  103MOL    H4920653   1.688   0.741   3.384 -0.5293  0.5994  0.2020
  103MOL    H5020654   1.493   0.785   3.532 -1.9213 -0.8768  0.7000
  103MOL    H5120655   1.390   0.699   3.418  0.4117  0.1199  0.0805
  103MOL    C5220656   1.444   0.889   3.351  0.1388  0.6446 -0.3365
  103MOL    C5320657   1.537   1.002   3.378 -0.7146 -0.3340  0.3916
  103MOL    C5420658   1.490   1.128   3.399 -0.4866 -0.1079 -0.0961
  103MOL    C5520659   1.576   1.243   3.443  0.1251  0.4175  0.4332
  103MOL    H5620660   1.436   0.871   3.244  0.7599 -1.1152 -0.0962
  103MOL    H5720661   1.342   0.920   3.377  0.7428  2.5245 -0.1069
  103MOL    H5820662   1.641   0.972   3.387 -1.1630 -1.7216  1.0907
  103MOL    H5920663   1.385   1.151   3.395 -0.4558 -0.1196 -1.2876
  103MOL    H6020664   1.676   1.205   3.465 -0.2017  1.6323  4.6352
  103MOL    H6120665   1.555   1.272   3.546 -0.7752 -0.8645  0.6079
  103MOL    C6220666   1.565   1.368   3.363 -0.0900 -0.5226 -0.2630
  103MOL    C6320667   1.659   1.477   3.413 -0.1273  0.0413 -0.5141
  103MOL    C6420668   1.692   1.590   3.348  0.5103 -0.2697 -0.0601
  103MOL    C6520669   1.761   1.715   3.404 -0.0073  0.1389 -0.8589
  103MOL    H6620670   1.573   1.355   3.255  1.7765 -0.3365 -0.1616
  103MOL    H6720671   1.464   1.409   3.376  0.1941 -0.0807  0.6398
  103MOL    H6820672   1.685   1.458   3.516 -1.5962  1.7753  0.2021
  103MOL    H6920673   1.656   1.607   3.247 -0.6976 -0.3308  0.3495
  103MOL    H7020674   1.858   1.731   3.357  0.6539  0.4830  0.5798
  103MOL    H7120675   1.791   1.695   3.507 -0.9492 -1.2555 -0.8442
  103MOL    C7220676   1.668   1.839   3.421 -0.6592 -0.1598 -0.1800
  103MOL    C7320677   1.745   1.965   3.442  0.1707 -0.5900 -0.0599
  103MOL    C7420678   1.730   2.044   3.551  0.4843  0.6637  0.5325
  103MOL    C7520679   1.822   2.160   3.586  0.3491 -0.3925 -0.3783
  103MOL    H7620680   1.625   1.849   3.321 -0.2431  0.0071 -0.3436
  103MOL    H7720681   1.587   1.824   3.492 -1.1642 -1.1071 -0.9507
  103MOL    H7820682   1.823   1.979   3.369  0.6484 -0.3687  0.4860
  103MOL    H7920683   1.661   2.016   3.629  1.4242  0.2636  1.2226
  103MOL    H8020684   1.892   2.181   3.505 -0.0246 -0.4300 -0.7097
  103MOL    H8120685   1.882   2.142   3.675 -0.2150  1.2749  0.3565
  103MOL    C8220686   1.741   2.282   3.619  0.1138  0.2848 -0.0839
  103MOL    C8320687   1.830   2.408   3.597 -0.2814 -0.0391 -0.6891
  103MOL    C8420688   1.880   2.484   3.692 -0.0657 -0.2871  0.1971
  103MOL    C8520689   1.963   2.611   3.663 -0.3555  0.1937 -0.1109
  103MOL    H8620690   1.665   2.280   3.541  0.7296 -0.0317 -0.6779
  103MOL    H8720691   1.682   2.279   3.711  0.2820  2.3989  0.1209
  103MOL    H8820692   1.858   2.426   3.494  0.3974 -0.7564 -0.6329
  103MOL    H8920693   1.860   2.465   3.796  0.4874 -1.8196  0.0334
  103MOL    H9020694   1.997   2.626   3.560  0.4572 -1.4427 -0.1012
  103MOL    H9120695   2.055   2.612   3.722  0.1849  0.5187 -0.9465
  103MOL    C9220696   1.887   2.739   3.690  0.0988  0.8900  0.1085
  103MOL    C9320697   1.979   2.860   3.679 -0.3364 -0.1720 -0.5548
  103MOL    C9420698   1.994   2.951   3.780  0.1532  0.5313 -0.3197
  103MOL    C9520699   2.086   3.074   3.768 -0.5543 -0.6530  0.1918
  103MOL    H9620700   1.801   2.748   3.624 -0.1123 -2.4847 -0.1602
  103MOL    H9720701   1.852   2.729   3.793 -0.9644  1.5987 -0.1723
  103MOL    H9820702   2.023   2.874   3.581  0.4647 -2.1839 -0.4859
  103MOL    H9920703   1.947   2.926   3.874 -0.9292  1.1009 -0.7079
  103MOL   H10020704   2.025   3.164   3.759  0.8859  0.4629  1.3671
  103MOL   H10120705   2.142   3.066   3.675 -1.9570  0.4973 -0.7830
  103MOL   C10220706   2.179   3.085   3.887 -0.2472  0.0844 -0.1348
  103MOL   C10320707   2.120   3.153   4.010  0.2387  0.5074 -0.0537
  103MOL   C10420708   2.172   3.252   4.081  0.3309  0.0833 -0.2377
  103MOL   C10520709   2.132   3.285   4.221  0.0138  0.5194  0.0823
  103MOL   H10620710   2.211   2.985   3.914 -0.5344  0.2610  0.8846
  103MOL   H10720711   2.263   3.147   3.854 -0.4585  0.5048  0.1122
  103MOL   H10820712   2.031   3.109   4.052  2.1597 -1.4821  2.1404
  103MOL   H10920713   2.264   3.300   4.051  1.3268 -1.6773 -0.1280
  103MOL   H11020714   2.219   3.265   4.283  0.6290 -0.6990 -1.1571
  103MOL   H11120715   2.047   3.227   4.257  0.7924 -2.0662 -2.0557
  103MOL   C11220716   2.101   3.435   4.240 -0.3836 -0.9218  0.9715
  103MOL   C11320717   2.077   3.467   4.386 -0.0024 -0.3325 -0.2061
  103MOL   C11420718   1.963   3.511   4.438  0.5795  0.2064 -0.2903
  103MOL   C11520719   1.937   3.523   4.589 -0.2670  0.2191 -0.2648
  103MOL   H11620720   2.186   3.499   4.215 -0.4403 -1.7358 -1.4396
  103MOL   H11720721   2.020   3.459   4.170  0.3289  0.0231  0.4590
  103MOL   H11820722   2.166   3.451   4.444  1.0440  0.7246 -1.4812
  103MOL   H11920723   1.882   3.516   4.367 -0.9977  0.3387  1.4695
  103MOL   H12020724   1.888   3.615   4.621 -1.4475 -0.9763  1.4499
  103MOL   H12120725   2.029   3.511   4.646 -0.9308  0.2116  0.8292
  103MOL   C12220726   1.830   3.408   4.631 -0.5321  0.2585 -0.2938
  103MOL   C12320727   1.817   3.392   4.776 -0.3610  0.6484  0.1788
  103MOL   C12420728   1.712   3.441   4.848  0.0055  0.6227  0.1920
  103MOL   C12520729   1.684   3.411   4.999  0.0527 -0.2372  0.0798
  103MOL   H12620730   1.735   3.428   4.581 -0.6297  1.6329  0.4086
  103MOL   H12720731   1.858   3.306   4.605 -0.1894 -0.2045  1.8488
  103MOL   H12820732   1.895   3.331   4.820 -0.2635  1.8443  1.6977
  103MOL   H12920733   1.638   3.495   4.791 -0.9916 -0.3832  0.5214
  103MOL   H13020734   1.663   3.505   5.049  1.3346  0.6463 -1.0322
  103MOL   H13120735   1.780   3.375   5.036  1.1763  0.8654 -1.7366
  103MOL   C13220736   1.580   3.296   5.015 -0.9918 -0.2461 -0.1967
  103MOL   C13320737   1.430   3.339   5.024  0.3147  0.2384  0.1995
  103MOL   C13420738   1.336   3.324   4.929 -0.9382  0.0487  0.2536
  103MOL   C13520739   1.192   3.363   4.950  0.5581  0.3658 -0.1980
  103MOL   H13620740   1.609   3.228   4.934 -0.1477 -0.1495  0.0231
  103MOL   H13720741   1.603   3.248   5.110  0.0361  0.8407  0.1171
  103MOL   H13820742   1.403   3.398   5.110 -3.9383  3.6443 -3.2202
  103MOL   H13920743   1.356   3.266   4.840  0.3890 -2.0355  1.8662
  103MOL   H14020744   1.176   3.434   5.031 -1.4490 -0.2209 -0.0756
  103MOL   H14120745   1.141   3.267   4.951  0.1917  0.5295 -1.6791
  103MOL   C14220746   1.129   3.425   4.823  0.5103 -0.2806 -0.2680
  103MOL   C14320747   1.155   3.574   4.821 -0.2967  0.5197 -0.2600
  103MOL   C14420748   1.254   3.642   4.763 -0.3968  0.6083 -0.5184
  103MOL   C14520749   1.259   3.794   4.744  0.3753 -0.4678 -0.1122
  103MOL   H14620750   1.151   3.366   4.734  2.8739  0.2555 -0.0691
  103MOL   H14720751   1.022   3.413   4.840  0.8557 -1.0207  1.5379
  103MOL   H14820752   1.072   3.630   4.862  1.4397  1.4594  2.1510
  103MOL   H14920753   1.336   3.590   4.715 -0.6844 -0.8544  0.5291
  103MOL   H15020754   1.165   3.840   4.773  0.0343 -0.4843 -1.1840
  103MOL   H15120755   1.279   3.824   4.641 -0.8961 -0.7391 -0.4526
  103MOL   C15220756   1.376   3.861   4.819  0.0148 -0.2174 -0.5643
  103MOL   C15320757   1.386   4.005   4.797 -0.1406 -0.7408  0.1819
  103MOL   C15420758   1.501   4.074   4.787 -0.2397  0.8379  0.1457
  103MOL   C15520759   1.503   4.220   4.755 -0.0414 -0.5471  0.9355
  103MOL   H15620760   1.370   3.839   4.925  1.3791  1.0316 -0.2063
  103MOL   H15720761   1.467   3.811   4.786 -0.0630 -0.9965  0.3845
  103MOL   H15820762   1.293   4.060   4.801  0.4687  0.2545  1.3127
  103MOL   H15920763   1.599   4.028   4.784  0.8242  3.0706 -0.3203
  103MOL   H16020764   1.405   4.262   4.735 -0.0777 -1.8971 -2.0133
  103MOL   H16120765   1.561   4.230   4.663  2.7091 -0.7222  2.5724
  103MOL   C16220766   1.570   4.306   4.862 -0.6441 -0.1099 -0.1300
  103MOL   C16320767   1.707   4.268   4.921  0.3872  0.2050  0.4682
  103MOL   C16420768   1.719   4.230   5.051 -0.1322 -0.2590 -0.0714
  103MOL   C16520769   1.841   4.160   5.103 -0.1294  0.0852 -0.0562
  103MOL   H16620770   1.582   4.406   4.822  1.3489  0.7155  2.4303
  103MOL   H16720771   1.495   4.312   4.940 -1.0029 -0.0156 -0.4812
  103MOL   H16820772   1.786   4.273   4.847 -0.3118  1.5964 -0.2073
  103MOL   H16920773   1.646   4.228   5.131  0.1839 -2.7811  0.1970
  103MOL   H17020774   1.922   4.174   5.032 -0.5584 -0.6867 -0.6969
  103MOL   H17120775   1.818   4.054   5.102 -1.5360  0.3741  0.6334
  103MOL   C17220776   1.883   4.202   5.243  0.0160 -0.7476  0.2806
  103MOL   C17320777   1.986   4.118   5.307 -0.4632  0.4351  0.1048
  103MOL   C17420778   1.964   4.053   5.425  0.0650  0.3616  0.1169
  103MOL   C17520779   2.064   3.958   5.487  0.6244 -0.1129  0.1121
  103MOL   H17620780   1.923   4.303   5.253 -1.2836 -0.1862 -0.1044
  103MOL   H17720781   1.795   4.186   5.307 -0.7990  1.2882 -0.3033
  103MOL   H17820782   2.076   4.091   5.254 -0.9012 -0.8911  0.0196
  103MOL   H17920783   1.873   4.072   5.480 -1.0477 -4.0380 -0.0896
  103MOL   H18020784   2.140   3.953   5.410  0.8933  1.0579  0.2862
  103MOL   H18120785   2.026   3.857   5.499 -0.3890  0.4473  1.8503
  103MOL   C18220786   2.117   4.008   5.625  0.1656 -0.6396  0.2871
  103MOL   C18320787   2.201   3.907   5.693 -0.0308 -0.2835  0.1655
  103MOL   C18420788   2.185   3.871   5.820 -0.8986  0.3263 -0.2803
  103MOL   C18520789   2.268   3.759   5.886 -0.0273 -0.7329 -0.8911
  103MOL   H18620790   2.171   4.101   5.611  3.5168 -2.4868  0.6115
  103MOL   H18720791   2.027   4.044   5.676 -0.5246 -0.6897 -0.8851
  103MOL   H18820792   2.267   3.853   5.626 -0.9790  0.8589 -1.7174
  103MOL   H18920793   2.122   3.928   5.886 -0.9112 -1.2400  1.1078
  103MOL   H19020794   2.299   3.686   5.811 -2.9088  0.1314 -3.0130
  103MOL   H19120795   2.206   3.714   5.964  0.2338 -0.6236 -0.6193
  103MOL   C19220796   2.388   3.823   5.953  0.2392  0.6578 -0.0583
  103MOL   C19320797   2.444   3.735   6.061  0.1679 -0.4939 -0.0876
  103MOL   C19420798   2.481   3.781   6.186  0.2551  0.7220  0.7785
  103MOL   C19520799   2.541   3.691   6.295 -0.0465 -0.0679  0.1371
  103MOL   H19620800   2.463   3.852   5.879  0.2494  0.5905 -0.0741
  103MOL   H19720801   2.358   3.914   6.005 -2.2223  0.1535 -0.5343
  103MOL   H19820802   2.455   3.629   6.040  0.8050 -0.2051 -1.2429
  103MOL   H19920803   2.465   3.883   6.218 -1.5570  0.4514  0.8249
  103MOL   H20020804   2.505   3.588   6.288 -1.5015  0.3095  1.6854
  103MOL   H20120805   2.510   3.729   6.393  1.0874  0.3729  0.3295
  103MOL   H20220806   2.649   3.697   6.293 -0.1094  0.8831 -0.5840
  104MOL     C120807   4.488   3.362   0.565  0.0824 -0.6011  0.7452
  104MOL     C220808   4.477   3.490   0.470  0.2117  0.0905  0.3231
  104MOL     C320809   4.579   3.577   0.451  0.5721  0.1275 -0.9671
  104MOL     C420810   4.575   3.688   0.349  0.1861  0.1959 -0.1147
  104MOL     H520811   4.397   3.351   0.623 -1.0215  0.1952 -0.8047
  104MOL     H620812   4.583   3.366   0.619  0.9459 -1.4620 -0.6760
  104MOL     H720813   4.384   3.476   0.417  0.2930 -0.8908  0.4196
  104MOL     H820814   4.673   3.576   0.504 -0.7327 -0.4646  1.4547
  104MOL     H920815   4.604   3.780   0.400  0.1592  1.0394 -1.5909
  104MOL    H1020816   4.475   3.704   0.309 -0.1288  0.4692  0.7505
  104MOL    H1120817   4.489   3.276   0.498 -0.9536 -0.1010  0.0693
  104MOL    C1220818   4.674   3.655   0.229  0.3884  0.2168 -0.0554
  104MOL    C1320819   4.651   3.763   0.119 -0.2861 -0.0573  0.3850
  104MOL    C1420820   4.731   3.867   0.112 -0.4812 -0.0229 -0.4179
  104MOL    C1520821   4.731   3.968   7.976  0.1654 -0.5152 -0.3106
  104MOL    H1620822   4.774   3.652   0.271  0.6428  0.5626 -0.6313
  104MOL    H1720823   4.643   3.562   0.181 -0.8382  0.1757  0.8110
  104MOL    H1820824   4.573   3.762   0.044  0.9257  0.7524 -0.9114
  104MOL    H1920825   4.809   3.884   0.184 -0.8689  1.2981 -0.3083
  104MOL    H2020826   4.665   3.934   7.896  0.0110  3.0323 -1.7643
  104MOL    H2120827   4.828   3.982   7.929 -0.3007  0.5555 -0.9825
  104MOL    C2220828   4.683   4.103   0.043  0.4040 -0.2433  0.1916
  104MOL    C2320829   4.672   4.207   7.908 -0.6335 -1.0081  0.2425
  104MOL    C2420830   4.557   4.227   7.843 -0.0855  0.1710  0.2225
  104MOL    C2520831   4.534   4.331   7.741  0.3520 -0.0301  0.0510
  104MOL    H2620832   4.583   4.080   0.080 -0.1352 -0.1065 -1.1556
  104MOL    H2720833   4.742   4.125   0.132 -0.0212  0.1498  0.3732
  104MOL    H2820834   4.765   4.261   7.892  0.2946 -1.6283  3.2760
  104MOL    H2920835   4.474   4.166   7.873 -1.3202  2.4066  1.4473
  104MOL    H3020836   4.530   4.278   7.646  1.0608 -1.1910  0.6588
  104MOL    H3120837   4.617   4.399   7.724  0.7200  0.1022  2.2059
  104MOL    C3220838   4.418   4.424   7.770  1.7719 -0.1794  0.1505
  104MOL    C3320839   4.282   4.378   7.714 -0.0798 -0.0931  0.1111
  104MOL    C3420840   4.254   4.334   7.590  0.1271  0.4918 -0.1865
  104MOL    C3520841   4.114   4.328   7.520 -0.6430  0.1408  0.2349
  104MOL    H3620842   4.413   4.432   7.879 -0.0910 -0.9101  0.1246
  104MOL    H3720843   4.443   4.523   7.731  1.7492  0.3176  1.3782
  104MOL    H3820844   4.202   4.400   7.783  1.0023 -1.5115  1.8529
  104MOL    H3920845   4.338   4.315   7.525  1.3382 -4.1675  2.5279
  104MOL    H4020846   4.030   4.328   7.590 -1.2635 -1.4576 -0.4725
  104MOL    H4120847   4.108   4.230   7.471 -0.4078  0.1954  0.0943
  104MOL    C4220848   4.106   4.444   7.422 -0.1364 -0.4416 -0.3632
  104MOL    C4320849   3.994   4.447   7.323  0.0822 -0.1521 -0.1873
  104MOL    C4420850   3.899   4.544   7.313  0.0511 -0.7574 -0.1205
  104MOL    C4520851   3.779   4.536   7.221  0.1077  0.1390  0.4450
  104MOL    H4620852   4.103   4.531   7.487  0.6595  0.5712 -1.6592
  104MOL    H4720853   4.191   4.434   7.355  0.6081  1.1641  0.3305
  104MOL    H4820854   3.981   4.355   7.268  2.4470  0.2146 -1.4696
  104MOL    H4920855   3.903   4.624   7.385  1.7885 -0.0583 -0.9740
  104MOL    H5020856   3.750   4.444   7.170 -1.6814  0.9296  0.0246
  104MOL    H5120857   3.800   4.608   7.142 -2.0247  0.8817  0.5476
  104MOL    C5220858   3.649   4.585   7.288 -0.1055  0.0663  0.0208
  104MOL    C5320859   3.621   4.513   7.417 -0.5141 -0.9092  0.4500
  104MOL    C5420860   3.526   4.423   7.439 -0.0239 -0.5569 -0.4079
  104MOL    C5520861   3.481   4.373   7.581 -0.3874 -0.2737  0.9720
  104MOL    H5620862   3.667   4.688   7.318 -0.0199 -0.2719  1.1310
  104MOL    H5720863   3.558   4.570   7.229 -0.2336  0.5476  0.0950
  104MOL    H5820864   3.667   4.547   7.509 -0.3145  0.3297 -0.1072
  104MOL    H5920865   3.467   4.383   7.357  1.5918 -1.8322 -0.9794
  104MOL    H6020866   3.379   4.407   7.596 -0.3351  0.3237  0.0054
  104MOL    H6120867   3.538   4.411   7.666  1.4431  0.2854 -0.4522
  104MOL    C6220868   3.489   4.219   7.604 -0.4938 -0.5388  0.1926
  104MOL    C6320869   3.423   4.177   7.736 -0.7993 -0.3110 -0.2349
  104MOL    C6420870   3.345   4.071   7.756 -0.1252 -0.1193  0.1951
  104MOL    C6520871   3.307   4.013   7.895 -0.0431  0.0586 -0.5956
  104MOL    H6620872   3.444   4.164   7.521  2.1323 -3.5241  0.6678
  104MOL    H6720873   3.589   4.177   7.611  0.8547  2.7848  1.7760
  104MOL    H6820874   3.457   4.232   7.821 -1.0484  0.7618 -0.8241
  104MOL    H6920875   3.295   4.025   7.671 -1.8809 -1.6143  1.9888
  104MOL    H7020876   3.372   4.059   7.969 -1.2644  0.4953  0.2193
  104MOL    H7120877   3.324   3.906   7.896  0.5182  0.1499  0.1357
  104MOL    C7220878   3.152   4.018   7.927 -0.5523 -0.0122 -0.3041
  104MOL    C7320879   3.119   3.975   0.090 -0.1421  0.4953  0.0588
  104MOL    C7420880   3.027   3.890   0.129  0.9117  0.3703 -0.1250
  104MOL    C7520881   2.995   3.870   0.271 -0.0229  0.9411 -0.2685
  104MOL    H7620882   3.128   4.125   7.927  0.8161  0.3155  0.6782
  104MOL    H7720883   3.100   3.954   7.857 -0.6358 -2.1138  1.6374
  104MOL    H7820884   3.183   4.015   0.167 -0.5849 -1.0462  1.2574
  104MOL    H7920885   2.975   3.836   0.051 -0.6601  1.4644  0.1308
  104MOL    H8020886   3.055   3.943   0.326  1.0396 -0.4112  0.3780
  104MOL    H8120887   3.038   3.775   0.302 -3.2429 -0.3356  0.4896
  104MOL    C8220888   2.840   3.880   0.304  0.9027 -0.0460 -0.2282
  104MOL    C8320889   2.806   3.864   0.447 -0.3631  0.4939 -0.8939
  104MOL    C8420890   2.732   3.761   0.501  0.2891  0.0972 -0.2938
  104MOL    C8520891   2.701   3.752   0.644  0.1031 -0.9109 -0.3696
  104MOL    H8620892   2.799   3.972   0.262  1.5238  0.7629  0.8938
  104MOL    H8720893   2.789   3.805   0.243  1.1393  0.1363 -0.6569
  104MOL    H8820894   2.842   3.942   0.512 -2.7255  0.9892 -0.1356
  104MOL    H8920895   2.690   3.684   0.438 -0.2082  0.2800 -0.1912
  104MOL    H9020896   2.592   3.762   0.651  0.3058  1.9122 -0.7527
  104MOL    H9120897   2.737   3.843   0.692  0.2252  0.7782 -3.5397
  104MOL    C9220898   2.776   3.639   0.710 -0.3217 -0.2102  0.1351
  104MOL    C9320899   2.716   3.502   0.681  0.2109  0.1936 -0.3562
  104MOL    C9420900   2.774   3.382   0.663 -1.0529  0.4585 -0.3337
  104MOL    C9520901   2.694   3.254   0.629 -0.0014  0.1161  0.7398
  104MOL    H9620902   2.879   3.644   0.672 -0.3178  1.4256  0.3359
  104MOL    H9720903   2.780   3.652   0.818 -2.8213 -0.1435  0.2404
  104MOL    H9820904   2.609   3.497   0.669 -0.1213  0.7554  2.1049
  104MOL    H9920905   2.881   3.376   0.671 -1.2042 -1.0661  0.6623
  104MOL   H10020906   2.734   3.198   0.545 -3.2559  0.0927 -0.8434
  104MOL   H10120907   2.591   3.268   0.598  0.9320 -0.1668 -2.6537
  104MOL   C10220908   2.671   3.162   0.749  0.4569 -0.5939 -0.4749
  104MOL   C10320909   2.572   3.237   0.842  0.1549  0.4986  0.0311
  104MOL   C10420910   2.483   3.175   0.924 -0.8546 -0.2578  0.3121
  104MOL   C10520911   2.403   3.247   1.026 -0.0729 -0.8423  0.3774
  104MOL   H10620912   2.621   3.071   0.716  0.8994 -0.7305 -0.7855
  104MOL   H10720913   2.763   3.133   0.799  0.9068 -0.0024 -0.9577
  104MOL   H10820914   2.587   3.343   0.857  1.8563  0.2107  0.4781
  104MOL   H10920915   2.470   3.068   0.926  0.5942 -0.4454 -0.0610
  104MOL   H11020916   2.310   3.190   1.033 -0.2959 -0.5558 -0.2626
  104MOL   H11120917   2.377   3.346   0.990 -1.0203 -0.4189  2.1416
  104MOL   C11220918   2.458   3.249   1.168 -0.1482 -0.1810 -0.0446
  104MOL   C11320919   2.456   3.113   1.231  0.0855  0.2980  0.1766
  104MOL   C11420920   2.569   3.039   1.233 -0.3717 -0.0062 -0.5301
  104MOL   C11520921   2.568   2.889   1.277  0.4626  0.2752  0.4015
  104MOL   H11620922   2.553   3.303   1.176 -0.7737  0.7098  1.5300
  104MOL   H11720923   2.383   3.305   1.223 -1.5779 -1.0945 -1.0205
  104MOL   H11820924   2.356   3.079   1.252  0.1345 -1.3301 -2.0747
  104MOL   H11920925   2.666   3.083   1.216 -0.7657  1.2816  0.4461
  104MOL   H12020926   2.627   2.834   1.204 -0.3447  2.2480 -1.8100
  104MOL   H12120927   2.472   2.839   1.275  0.1417  0.6003  3.8058
  104MOL   C12220928   2.616   2.883   1.425 -1.0624  0.4766  0.4217
  104MOL   C12320929   2.649   2.741   1.469  0.3700  0.6324 -0.2137
  104MOL   C12420930   2.557   2.659   1.530 -0.4008  0.1073  0.0460
  104MOL   C12520931   2.572   2.517   1.571 -0.3245 -0.4436 -0.1026
  104MOL   H12620932   2.694   2.955   1.447 -1.3177  1.3003 -1.2714
  104MOL   H12720933   2.538   2.915   1.494 -4.2676 -0.5278 -2.6069
  104MOL   H12820934   2.749   2.704   1.447  0.2961  0.3363 -0.0614
  104MOL   H12920935   2.466   2.711   1.557  0.8092  0.3330  4.1234
  104MOL   H13020936   2.494   2.455   1.527  0.9307 -1.2236 -1.2507
  104MOL   H13120937   2.552   2.506   1.678 -0.2129  0.4548  0.0171
  104MOL   C13220938   2.709   2.450   1.531  0.1034 -0.2899 -0.3243
  104MOL   C13320939   2.721   2.406   1.383  0.0146  0.0090  0.8707
  104MOL   C13420940   2.825   2.436   1.307  0.4770  0.4588 -0.0967
  104MOL   C13520941   2.840   2.387   1.168 -0.1192  0.3303 -0.7474
  104MOL   H13620942   2.799   2.509   1.551  0.2516 -0.0580 -1.6195
  104MOL   H13720943   2.711   2.357   1.588  0.2353  0.3189  0.6730
  104MOL   H13820944   2.639   2.344   1.349 -0.4922  1.3558 -0.3888
  104MOL   H13920945   2.898   2.502   1.351 -1.4669  1.8067  1.1471
  104MOL   H14020946   2.815   2.461   1.091  1.9209  2.7160  0.7749
  104MOL   H14120947   2.773   2.303   1.158  0.5223 -0.1721 -0.8669
  104MOL   C14220948   2.974   2.321   1.146  0.4913 -0.6990 -0.4319
  104MOL   C14320949   3.010   2.305   0.999 -0.0505 -0.2201  1.3152
  104MOL   C14420950   3.131   2.332   0.951  0.0315 -0.1457  0.2828
  104MOL   C14520951   3.179   2.307   0.808 -0.4133  0.2263  0.7344
  104MOL   H14620952   3.061   2.374   1.183 -0.5132  1.6240 -1.2600
  104MOL   H14720953   2.983   2.217   1.177 -1.5963 -1.1569 -1.2401
  104MOL   H14820954   2.940   2.259   0.931 -0.0573  0.0201  1.1568
  104MOL   H14920955   3.202   2.360   1.029  0.4718 -1.5242  0.3939
  104MOL   H15020956   3.102   2.274   0.738  0.5076 -1.0178  0.3023
  104MOL   H15120957   3.254   2.229   0.809  1.5769  2.0732  0.3709
  104MOL   C15220958   3.254   2.432   0.763 -0.3292  0.0716  0.5645
  104MOL   C15320959   3.293   2.428   0.619 -0.2982 -0.4546  0.1365
  104MOL   C15420960   3.216   2.471   0.523  0.0698 -0.7492 -0.4076
  104MOL   C15520961   3.240   2.448   0.377 -0.1210  0.0085 -0.0589
  104MOL   H15620962   3.188   2.518   0.774  0.6659  0.7350  1.3427
  104MOL   H15720963   3.341   2.447   0.826  1.8829 -1.6316 -1.9562
  104MOL   H15820964   3.376   2.362   0.599 -1.6475 -3.2561  3.2721
  104MOL   H15920965   3.129   2.529   0.547  1.8357  1.3650  1.0842
  104MOL   H16020966   3.315   2.370   0.368  0.0689  0.2826 -0.9338
  104MOL   H16120967   3.272   2.534   0.317 -0.4412  1.4260  1.7755
  104MOL   C16220968   3.114   2.397   0.305  0.1104 -0.6023 -0.9965
  104MOL   C16320969   3.056   2.267   0.360  0.3212  0.0831 -0.3382
  104MOL   C16420970   3.030   2.161   0.282  0.4831  0.8171 -0.4277
  104MOL   C16520971   2.968   2.033   0.337 -0.1738  0.5508  0.7966
  104MOL   H16620972   3.028   2.463   0.313 -0.5225 -1.4739 -0.6373
  104MOL   H16720973   3.127   2.396   0.197  1.1834 -3.5404 -0.8706
  104MOL   H16820974   3.029   2.280   0.464  1.8132 -0.5535  0.1355
  104MOL   H16920975   3.047   2.163   0.176 -2.0563  1.2625 -0.8581
  104MOL   H17020976   2.869   2.019   0.292 -1.0246  0.6106  2.5889
  104MOL   H17120977   2.948   2.039   0.444 -1.0480 -1.2183  0.7577
  104MOL   C17220978   3.064   1.912   0.311 -0.8722 -0.7541  0.0893
  104MOL   C17320979   3.082   1.886   0.162 -0.5819  0.5585  0.8004
  104MOL   C17420980   3.004   1.793   0.100 -0.0208  0.4050 -0.1159
  104MOL   C17520981   3.006   1.786   7.923  0.0430 -0.3200 -0.4212
  104MOL   H17620982   3.159   1.931   0.359 -1.9149  2.5553  0.9306
  104MOL   H17720983   3.014   1.824   0.353 -1.7810 -0.2414  0.1007
  104MOL   H17820984   3.141   1.954   0.103 -1.9433  0.0510 -1.1985
  104MOL   H17920985   2.962   1.715   0.162  2.7511 -1.0393  0.0333
  104MOL   H18020986   2.915   1.836   7.888 -0.2418  0.2526  1.0722
  104MOL   H18120987   3.006   1.679   7.908 -0.1310 -0.3178 -0.4447
  104MOL   C18220988   3.120   1.856   7.844  0.2718  0.5543  0.5210
  104MOL   C18320989   3.115   1.828   7.692 -0.0404 -0.1669 -0.5563
  104MOL   C18420990   3.222   1.789   7.621 -0.3376  0.0711 -0.2706
  104MOL   C18520991   3.217   1.738   7.473 -0.6034 -0.1019 -0.3798
  104MOL   H18620992   3.138   1.961   7.864  0.6107  0.4752  0.6475
  104MOL   H18720993   3.207   1.804   7.886  0.3948 -0.5160 -0.9973
  104MOL   H18820994   3.019   1.830   7.642  0.1791 -0.1467 -0.9829
  104MOL   H18920995   3.320   1.793   7.665 -0.1849 -0.4335 -0.5616
  104MOL   H19020996   3.268   1.813   7.412  1.1617 -1.6907 -0.9129
  104MOL   H19120997   3.112   1.735   7.443 -0.7437 -1.7401  0.2237
  104MOL   C19220998   3.292   1.611   7.455  0.3781  0.7528  0.0207
  104MOL   C19320999   3.310   1.573   7.303 -0.2713  0.0166 -0.0929
  104MOL   C19421000   3.425   1.536   7.247 -0.1696 -0.0836  0.3609
  104MOL   C19521001   3.437   1.500   7.101 -0.0355 -0.6474 -0.2936
  104MOL   H19621002   3.386   1.612   7.510  0.0110  2.0154  0.6358
  104MOL   H19721003   3.241   1.529   7.505  1.9480  0.6244  1.4369
  104MOL   H19821004   3.226   1.585   7.236  1.1884  2.5343 -1.5590
  104MOL   H19921005   3.514   1.526   7.306  0.2124 -2.5695 -0.5617
  104MOL   H20021006   3.517   1.428   7.083  1.7457  1.5565 -1.4648
  104MOL   H20121007   3.456   1.589   7.040  0.1647  1.7671  3.1620
  104MOL   H20221008   3.346   1.447   7.071 -0.5172  1.4266 -2.6421
  105MOL     C121009   2.132   5.250   7.450 -0.0702  0.5120  0.2903
  105MOL     C221010   2.131   5.403   7.451  0.1053  0.4098  0.7231
  105MOL     C321011   2.163   5.488   7.352  0.4258  0.3702 -0.0177
  105MOL     C421012   2.145   5.634   7.366 -0.3870  0.3210  0.3569
  105MOL     H521013   2.234   5.216   7.465 -0.9351 -2.3100  0.2015
  105MOL     H621014   2.090   5.206   7.359 -3.5255 -1.0937  2.5550
  105MOL     H721015   2.098   5.449   7.543 -0.8518  1.5392 -0.1708
  105MOL     H821016   2.205   5.447   7.262 -1.1317  1.1149 -1.1096
  105MOL     H921017   2.235   5.696   7.366 -0.6532  0.7099  0.4523
  105MOL    H1021018   2.123   5.657   7.471  2.2129  1.8215  0.6087
  105MOL    H1121019   2.064   5.208   7.524 -1.3381  0.8328 -0.6796
  105MOL    C1221020   2.046   5.682   7.259  0.1737 -0.0389  0.3480
  105MOL    C1321021   1.967   5.802   7.294 -0.0361 -0.1092 -0.5953
  105MOL    C1421022   1.936   5.898   7.206  0.0476 -0.6836  0.7044
  105MOL    C1521023   1.866   6.032   7.234  0.3377  0.4411 -0.5773
  105MOL    H1621024   2.082   5.695   7.157 -2.9553  1.4283 -0.6228
  105MOL    H1721025   1.974   5.603   7.233  1.2513 -0.1004 -2.6160
  105MOL    H1821026   1.924   5.797   7.393 -3.2689  2.0539 -1.7688
  105MOL    H1921027   1.970   5.892   7.103 -1.0991 -0.2147  0.2882
  105MOL    H2021028   1.934   6.113   7.207  0.5476  0.3434 -0.3494
  105MOL    H2121029   1.850   6.037   7.342  1.2984  1.0932 -0.4586
  105MOL    C2221030   1.738   6.035   7.146 -0.3334  0.1235 -0.0381
  105MOL    C2321031   1.673   6.169   7.161  0.5372  0.9561 -0.5027
  105MOL    C2421032   1.546   6.188   7.205  0.1235  0.4462 -0.1317
  105MOL    C2521033   1.469   6.325   7.210  0.3398  0.4170 -0.7059
  105MOL    H2621034   1.770   6.034   7.042  1.5758 -1.9937  0.5088
  105MOL    H2721035   1.657   5.965   7.169  1.1536 -0.9822  2.0640
  105MOL    H2821036   1.730   6.251   7.122  0.4353  1.0448 -0.4642
  105MOL    H2921037   1.506   6.098   7.249 -0.3698  0.1270 -1.2223
  105MOL    H3021038   1.533   6.403   7.169  1.3395  0.7611  1.4604
  105MOL    H3121039   1.441   6.338   7.315  0.6742 -0.6618 -0.4743
  105MOL    C3221040   1.350   6.325   7.113  0.4841  0.7618  0.5655
  105MOL    C3321041   1.282   6.458   7.121  0.2435  0.0675  0.4590
  105MOL    C3421042   1.152   6.480   7.091 -0.3543 -0.1779  0.2162
  105MOL    C3521043   1.085   6.609   7.071 -0.0339  0.0530 -0.4025
  105MOL    H3621044   1.385   6.321   7.010 -0.2719 -1.5616  0.3688
  105MOL    H3721045   1.296   6.231   7.129  0.6244  0.6479  0.3765
  105MOL    H3821046   1.352   6.539   7.132  1.3630 -0.7582 -0.3815
  105MOL    H3921047   1.087   6.395   7.079 -1.4191  0.8070 -1.1522
  105MOL    H4021048   1.029   6.600   6.978 -2.1461 -1.1950  0.9471
  105MOL    H4121049   1.156   6.690   7.053  0.9194 -0.6874 -0.0215
  105MOL    C4221050   0.972   6.635   7.171 -0.2954  0.2130  0.1819
  105MOL    C4321051   0.883   6.759   7.140 -1.0487  0.1178 -0.7623
  105MOL    C4421052   0.869   6.859   7.229 -0.2796 -0.6237 -0.3556
  105MOL    C4521053   0.797   6.989   7.201 -0.1014  0.1410  0.2873
  105MOL    H4621054   0.913   6.545   7.188  0.4874 -0.2619  0.4677
  105MOL    H4721055   1.022   6.651   7.267  0.7905 -0.6862 -0.2142
  105MOL    H4821056   0.840   6.768   7.041  1.3007  1.5594 -1.6844
  105MOL    H4921057   0.907   6.848   7.329  1.3832 -0.8474 -0.9959
  105MOL    H5021058   0.711   6.999   7.268 -1.0676  1.0888 -1.0413
  105MOL    H5121059   0.761   7.006   7.099 -0.4504 -0.1269  0.3642
  105MOL    C5221060   0.895   7.107   7.231  0.1556  0.4518 -0.1808
  105MOL    C5321061   0.861   7.251   7.215  0.0737  0.4077 -0.1031
  105MOL    C5421062   0.916   7.343   7.141 -0.0589 -0.0226  0.1777
  105MOL    C5521063   0.880   7.493   7.141 -0.0506 -0.9930 -0.0884
  105MOL    H5621064   0.932   7.094   7.332  0.4364  1.4961 -0.1433
  105MOL    H5721065   0.980   7.097   7.164 -0.3197  1.0525 -0.8954
  105MOL    H5821066   0.781   7.282   7.281 -2.7941  0.5411 -3.5242
  105MOL    H5921067   1.004   7.318   7.084  0.0328  1.9552 -0.5784
  105MOL    H6021068   0.779   7.525   7.165  0.4576  2.6519 -2.4789
  105MOL    H6121069   0.891   7.526   7.038 -1.2977  2.5481  0.8416
  105MOL    C6221070   0.981   7.574   7.228  0.1896  0.4719 -0.5933
  105MOL    C6321071   0.951   7.552   7.373  0.5993  0.2303  0.5334
  105MOL    C6421072   1.029   7.488   7.458  0.0902  0.5255  0.0547
  105MOL    C6521073   0.979   7.458   7.598 -0.2502  0.0064 -0.0033
  105MOL    H6621074   1.084   7.546   7.208  0.0483  1.1059 -2.2927
  105MOL    H6721075   0.978   7.682   7.215  4.5103  0.6663 -0.7626
  105MOL    H6821076   0.853   7.583   7.405  0.2799  0.3061 -0.5061
  105MOL    H6921077   1.128   7.458   7.426 -1.2555 -1.5209 -2.3933
  105MOL    H7021078   0.880   7.503   7.609 -0.3857  0.0224 -1.2993
  105MOL    H7121079   1.041   7.517   7.665  0.3592  0.8240 -1.2729
  105MOL    C7221080   0.998   7.309   7.635 -0.0993  0.7952  0.4187
  105MOL    C7321081   0.951   7.274   7.770  0.6155 -0.0307  0.1843
  105MOL    C7421082   1.018   7.187   7.843  0.2910 -0.0268  0.2441
  105MOL    C7521083   0.964   7.131   0.000 -0.1265 -0.0246  0.5039
  105MOL    H7621084   0.935   7.255   7.564  1.0801  0.1528 -0.1440
  105MOL    H7721085   1.100   7.281   7.610 -0.0202  0.8432  0.6828
  105MOL    H7821086   0.854   7.309   7.802  0.1668 -2.1586  1.2350
  105MOL    H7921087   1.113   7.147   7.812  0.5794 -1.3318  2.6740
  105MOL    H8021088   0.916   7.039   7.946 -2.7297  1.8586 -1.2042
  105MOL    H8121089   0.892   7.206   0.033  1.6968  1.1451  1.9568
  105MOL    C8221090   1.070   7.108   0.113  0.0458  0.0135  0.0728
  105MOL    C8321091   1.161   7.220   0.141  0.3618 -0.9296 -0.4003
  105MOL    C8421092   1.171   7.283   0.260 -0.2581  1.0864  0.4784
  105MOL    C8521093   1.274   7.396   0.283  0.1580 -0.4650  0.0262
  105MOL    H8621094   1.021   7.079   0.206  0.8451  1.7185  1.0349
  105MOL    H8721095   1.136   7.026   0.084  1.7206  0.1494  3.2904
  105MOL    H8821096   1.215   7.256   0.054  0.3513 -2.8181 -1.2164
  105MOL    H8921097   1.114   7.243   0.343  0.9703 -0.8118  0.4384
  105MOL    H9021098   1.353   7.371   0.212 -1.0743  0.1753 -1.6068
  105MOL    H9121099   1.311   7.375   0.384 -0.3441  1.1665  0.5716
  105MOL    C9221100   1.227   7.545   0.284 -0.2583 -0.0931 -0.3219
  105MOL    C9321101   1.135   7.585   0.393 -0.0199 -0.4368 -0.4254
  105MOL    C9421102   1.159   7.693   0.470  0.2510  0.2714 -0.6758
  105MOL    C9521103   1.079   7.736   0.594 -0.8382 -0.8114  0.1051
  105MOL    H9621104   1.319   7.603   0.291 -0.3624 -0.0233  0.4709
  105MOL    H9721105   1.181   7.581   0.191 -1.2060 -0.5833 -0.0490
  105MOL    H9821106   1.052   7.519   0.412  0.0377 -0.8653 -1.6469
  105MOL    H9921107   1.240   7.762   0.452 -0.3355  1.3526  0.7125
  105MOL   H10021108   1.139   7.788   0.669  1.3562 -1.0993 -1.3904
  105MOL   H10121109   1.037   7.644   0.635 -0.5032 -0.5677  1.0187
  105MOL   C10221110   0.967   7.824   0.551  0.7494  0.5216  0.7184
  105MOL   C10321111   1.005   7.951   0.480 -0.2322 -0.5293 -0.2881
  105MOL   C10421112   0.939   0.095   0.482  0.3751 -0.1688  0.5501
  105MOL   C10521113   0.989   0.212   0.400 -0.2417 -0.8858 -0.1960
  105MOL   H10621114   0.910   7.771   0.475  1.9025  1.5662 -0.8969
  105MOL   H10721115   0.902   7.854   0.634 -1.7106 -1.4511 -0.4223
  105MOL   H10821116   1.102   7.949   0.433  0.7160 -1.2026  1.6322
  105MOL   H10921117   0.847   0.106   0.537  1.4897  1.3401  2.1281
  105MOL   H11021118   1.087   0.184   0.362  0.6679  1.9323  0.0235
  105MOL   H11121119   0.992   0.283   0.482 -0.1696 -1.0178 -0.0839
  105MOL   C11221120   0.900   0.254   0.283 -0.4020  0.1866  0.0086
  105MOL   C11321121   0.977   0.350   0.196  0.6640 -0.3720 -0.5498
  105MOL   C11421122   0.943   0.481   0.183  0.3249 -0.3196  0.1449
  105MOL   C11521123   1.027   0.580   0.098 -0.6244  0.8780  0.4891
  105MOL   H11621124   0.873   0.167   0.223 -0.6346 -0.7768  1.4861
  105MOL   H11721125   0.807   0.301   0.313  0.4797  0.9537  1.6288
  105MOL   H11821126   1.060   0.317   0.136  1.1844  0.4680 -0.2968
  105MOL   H11921127   0.860   0.526   0.234 -0.0990 -1.4339  0.4534
  105MOL   H12021128   1.102   0.526   0.040  0.9038  1.7806  1.6014
  105MOL   H12121129   1.088   0.637   0.168  0.8327  0.7716 -0.6734
  105MOL   C12221130   0.935   0.670   0.007  0.4617 -0.0162  0.2088
  105MOL   C12321131   1.015   0.791   7.940  0.7336  0.1205  0.7130
  105MOL   C12421132   1.009   0.846   7.821  0.0289 -0.0688  0.4945
  105MOL   C12521133   1.062   0.981   7.782 -0.0153  0.6036 -0.3020
  105MOL   H12621134   0.896   0.613   7.899 -0.7784  1.5705 -0.3192
  105MOL   H12721135   0.852   0.708   0.065  0.1920  0.0111 -0.1920
  105MOL   H12821136   1.070   0.845   0.039 -1.4252  0.6430  1.9383
  105MOL   H12921137   0.949   0.797   7.745 -1.1209  3.0162 -0.6889
  105MOL   H13021138   1.157   1.007   7.828 -1.1185  2.4752  0.9857
  105MOL   H13121139   0.998   1.064   7.812  1.3242  1.2838  0.7291
  105MOL   C13221140   1.070   0.988   7.626 -0.8216 -0.8887 -0.9302
  105MOL   C13321141   1.070   1.139   7.588  0.7597 -0.1793 -0.1727
  105MOL   C13421142   1.154   1.207   7.504 -0.0315 -0.1119  0.1216
  105MOL   C13521143   1.174   1.353   7.502 -0.0030 -0.6227  0.4194
  105MOL   H13621144   1.166   0.960   7.584  0.5216 -0.3771  1.6461
  105MOL   H13721145   0.987   0.937   7.577 -0.7705  0.0453 -2.0273
  105MOL   H13821146   1.008   1.202   7.650 -0.4102  0.5327 -2.0289
  105MOL   H13921147   1.214   1.142   7.443 -0.6125 -0.1907 -0.3712
  105MOL   H14021148   1.108   1.411   7.566  3.7067  3.4805  0.8228
  105MOL   H14121149   1.166   1.392   7.400 -0.6662 -0.0323  0.6969
  105MOL   C14221150   1.314   1.401   7.555  0.4001  0.3650 -0.4647
  105MOL   C14321151   1.300   1.549   7.572  0.5051  0.4062  0.8628
  105MOL   C14421152   1.356   1.613   7.679 -0.5570  0.0023  0.7686
  105MOL   C14521153   1.367   1.762   7.691 -0.2338 -0.0768 -0.4034
  105MOL   H14621154   1.351   1.351   7.645  0.5469  2.2461  0.5338
  105MOL   H14721155   1.386   1.383   7.475 -0.7216 -0.5292 -1.2970
  105MOL   H14821156   1.253   1.603   7.491  2.7024 -0.1990 -0.8650
  105MOL   H14921157   1.403   1.554   7.755 -0.0649  1.0580  1.2987
  105MOL   H15021158   1.336   1.812   7.599  0.7369  1.5758  0.1440
  105MOL   H15121159   1.471   1.796   7.700 -0.3422  0.1733 -0.1058
  105MOL   C15221160   1.288   1.825   7.809  0.2641  0.1927  0.2901
  105MOL   C15321161   1.291   1.975   7.819  0.1304 -0.8082  0.1183
  105MOL   C15421162   1.334   2.024   7.936 -0.2252  0.2435 -0.1192
  105MOL   C15521163   1.325   2.174   7.968  1.0510  0.4693 -0.0538
  105MOL   H15621164   1.187   1.787   7.802 -0.2751  1.7023 -0.3185
  105MOL   H15721165   1.329   1.773   7.896 -2.7585  2.7881  3.3704
  105MOL   H15821166   1.253   2.031   7.734  1.0526 -0.8020 -0.2999
  105MOL   H15921167   1.353   1.957   0.041 -1.7131 -1.2825 -0.9914
  105MOL   H16021168   1.255   2.215   7.896  0.0181  0.8000  1.1273
  105MOL   H16121169   1.425   2.217   7.958  0.7420  0.8136 -1.7489
  105MOL   C16221170   1.285   2.198   0.136  0.0863  0.3950 -0.6147
  105MOL   C16321171   1.257   2.343   0.175  0.1929 -0.9202 -0.0794
  105MOL   C16421172   1.284   2.453   0.111 -0.1588 -0.1469 -0.1558
  105MOL   C16521173   1.250   2.590   0.174 -0.5965 -0.3921 -0.3772
  105MOL   H16621174   1.197   2.137   0.157 -0.9568  1.9231 -0.4266
  105MOL   H16721175   1.363   2.167   0.205  0.5966  1.9028 -0.4869
  105MOL   H16821176   1.211   2.356   0.272 -1.2400  1.3540 -1.0137
  105MOL   H16921177   1.337   2.455   0.017  0.9580  1.5251  0.4705
  105MOL   H17021178   1.325   2.616   0.248 -1.2059  1.2249 -0.2990
  105MOL   H17121179   1.157   2.577   0.229 -1.0566 -0.5593 -1.1730
  105MOL   C17221180   1.251   2.704   0.065 -0.1137 -0.2557 -0.5292
  105MOL   C17321181   1.140   2.702   7.941  0.7248  0.0576  0.4343
  105MOL   C17421182   1.071   2.810   7.898  0.0188 -0.1253 -0.1464
  105MOL   C17521183   0.959   2.816   7.793  0.5161  0.2143 -0.0369
  105MOL   H17621184   1.231   2.794   0.124  1.4684  0.3794 -0.9504
  105MOL   H17721185   1.345   2.710   0.012  1.0391 -0.1971  1.4544
  105MOL   H17821186   1.125   2.606   7.894 -1.2818  0.7697 -0.4395
  105MOL   H17921187   1.101   2.896   7.956  0.9506 -1.1711  0.9451
  105MOL   H18021188   0.909   2.719   7.787  1.4793 -0.3030  0.1034
  105MOL   H18121189   1.009   2.836   7.698  0.6031 -0.2146 -0.0832
  105MOL   C18221190   0.864   2.928   7.830 -0.2010  0.3533  0.6106
  105MOL   C18321191   0.800   2.904   7.965  0.2251  0.1161  0.8777
  105MOL   C18421192   0.669   2.920   0.014  0.3463  0.1962  0.0460
  105MOL   C18521193   0.612   2.894   0.151 -0.4506  0.3898  0.4515
  105MOL   H18621194   0.922   3.020   7.822 -1.5808  1.0366 -2.0422
  105MOL   H18721195   0.788   2.924   7.753 -1.3065 -1.5932  1.7529
  105MOL   H18821196   0.853   2.855   0.068  0.6368 -0.5473  0.2146
  105MOL   H18921197   0.605   2.957   7.912  0.6025 -0.6675 -0.5701
  105MOL   H19021198   0.570   2.988   0.187  0.6430 -0.1940  3.3344
  105MOL   H19121199   0.673   2.854   0.232 -1.2783 -0.0976  0.8511
  105MOL   C19221200   0.501   2.786   0.137  0.4835 -0.0691  0.9962
  105MOL   C19321201   0.462   2.736   0.277 -0.6499  0.3828  0.6741
  105MOL   C19421202   0.332   2.746   0.325  0.1600  0.0184  0.2945
  105MOL   C19521203   0.283   2.693   0.457  0.0726  0.1456 -0.5604
  105MOL   H19621204   0.412   2.831   0.093 -0.3658  0.7409  3.4446
  105MOL   H19721205   0.522   2.698   0.076 -0.2525  0.9468 -0.7420
  105MOL   H19821206   0.547   2.694   0.329 -1.3646 -0.7924  0.8947
  105MOL   H19921207   0.251   2.787   0.266 -1.0551 -0.7190  1.4273
  105MOL   H20021208   0.370   2.667   0.517 -2.3789 -3.4591  1.6436
  105MOL   H20121209   0.215   2.608   0.457  0.9583 -0.6190 -3.1533
  105MOL   H20221210   0.229   2.772   0.509 -1.6406  0.5534 -2.8820
  106MOL     C121211   0.678   4.095   6.469 -0.1545  0.2781 -0.5467
  106MOL     C221212   0.694   4.079   6.327 -0.0926  0.1503  0.6309
  106MOL     C321213   0.750   4.163   6.240 -0.0089 -0.1668 -0.4241
  106MOL     C421214   0.774   4.135   6.097  0.3829 -0.4574  0.2378
  106MOL     H521215   0.693   4.196   6.508  1.3510  0.4342 -1.5128
  106MOL     H621216   0.760   4.035   6.507 -1.3383 -0.4990  0.7973
  106MOL     H721217   0.657   3.989   6.279 -0.9367  0.2647  1.0584
  106MOL     H821218   0.783   4.260   6.274 -2.5434 -0.0572  1.9449
  106MOL     H921219   0.745   4.223   6.039  0.6900 -1.6785 -1.8209
  106MOL    H1021220   0.697   4.064   6.065 -2.5382  2.0757  1.4217
  106MOL    H1121221   0.580   4.057   6.498  1.2576 -2.7536  0.3759
  106MOL    C1221222   0.912   4.098   6.059  0.6143  0.5197 -0.1243
  106MOL    C1321223   1.009   4.214   6.098 -0.8050 -0.1131  0.6177
  106MOL    C1421224   1.084   4.278   6.000  0.2523 -0.2589 -0.4679
  106MOL    C1521225   1.203   4.371   6.036 -0.0225  0.4983  0.3163
  106MOL    H1621226   0.950   4.004   6.097  1.5898 -0.1771 -2.7071
  106MOL    H1721227   0.917   4.068   5.954  0.2747  0.1835 -0.0420
  106MOL    H1821228   1.019   4.247   6.200  0.5390 -0.4774  0.6107
  106MOL    H1921229   1.071   4.250   5.896  2.5307 -0.7520 -0.6498
  106MOL    H2021230   1.282   4.319   5.982 -0.3020  0.6627 -0.2547
  106MOL    H2121231   1.225   4.355   6.142 -0.8750  2.3840  0.7984
  106MOL    C2221232   1.190   4.522   6.001 -0.0604 -0.2411  0.1520
  106MOL    C2321233   1.322   4.600   5.994 -0.5652  0.6643 -0.3244
  106MOL    C2421234   1.435   4.560   6.054 -0.2063 -0.4461 -0.1105
  106MOL    C2521235   1.560   4.642   6.046  0.1568 -0.9129 -0.4055
  106MOL    H2621236   1.139   4.531   5.905  1.9359  1.9211 -0.7573
  106MOL    H2721237   1.119   4.577   6.062 -1.0920 -0.6737 -0.6315
  106MOL    H2821238   1.321   4.687   5.930 -0.8898 -0.4883 -1.9085
  106MOL    H2921239   1.441   4.470   6.115 -1.0059  0.5090  1.4163
  106MOL    H3021240   1.598   4.667   6.145  1.2426  0.8937 -1.2375
  106MOL    H3121241   1.533   4.738   6.000  1.1563  0.6574  2.1698
  106MOL    C3221242   1.674   4.570   5.967  0.6488 -0.0112  0.3363
  106MOL    C3321243   1.735   4.439   6.023 -0.5649  0.7672 -0.7056
  106MOL    C3421244   1.870   4.407   6.010 -0.2422 -0.2458 -0.0802
  106MOL    C3521245   1.915   4.278   6.076 -0.5023  0.1207  0.2258
  106MOL    H3621246   1.638   4.540   5.868 -0.2841 -4.4620  1.8754
  106MOL    H3721247   1.744   4.651   5.948 -0.3750  0.5834 -0.9871
  106MOL    H3821248   1.668   4.370   6.072 -0.8526  0.5259 -1.4258
  106MOL    H3921249   1.942   4.478   5.970 -0.1422  0.2717  0.9992
  106MOL    H4021250   1.860   4.275   6.170  1.4408 -0.8257  1.3692
  106MOL    H4121251   2.016   4.269   6.115 -0.4738 -0.6053 -0.0163
  106MOL    C4221252   1.878   4.147   6.002  0.0895  0.0118  0.0332
  106MOL    C4321253   1.904   4.014   6.078 -0.1233  0.1776  0.5004
  106MOL    C4421254   1.963   4.010   6.199  0.7537 -0.0365  0.2513
  106MOL    C4521255   1.979   3.876   6.273 -0.9281 -0.8308 -0.2902
  106MOL    H4621256   1.770   4.153   5.983  0.1066  4.7162  0.7669
  106MOL    H4721257   1.943   4.146   5.914  0.7751 -0.4734  0.5424
  106MOL    H4821258   1.866   3.925   6.029  1.7018 -1.3604  1.8456
  106MOL    H4921259   1.999   4.101   6.244  1.4709  1.1601 -2.6392
  106MOL    H5021260   1.907   3.805   6.233 -0.9879 -0.5817 -0.6293
  106MOL    H5121261   1.954   3.895   6.378  0.2121  1.3798 -0.3906
  106MOL    C5221262   2.119   3.828   6.262 -0.4399  0.0611 -0.4142
  106MOL    C5321263   2.135   3.700   6.339  0.7342  0.0028 -0.2686
  106MOL    C5421264   2.160   3.696   6.468  0.3369 -0.3374 -0.4799
  106MOL    C5521265   2.186   3.571   6.553 -0.6329  0.0100  0.1528
  106MOL    H5621266   2.153   3.805   6.161 -0.2797 -0.7910 -0.1678
  106MOL    H5721267   2.203   3.893   6.289  0.1407 -0.5322 -0.7695
  106MOL    H5821268   2.111   3.605   6.294  1.2626 -2.4267  4.2425
  106MOL    H5921269   2.170   3.788   6.525  0.3228  0.0188 -1.0497
  106MOL    H6021270   2.195   3.598   6.659 -3.0266 -1.0840  0.6807
  106MOL    H6121271   2.280   3.522   6.530 -0.5717 -0.2479  0.9162
  106MOL    C6221272   2.064   3.478   6.554 -0.1699  0.3609 -0.0424
  106MOL    C6321273   2.091   3.367   6.651 -0.3655 -0.2543  0.3725
  106MOL    C6421274   2.094   3.239   6.627 -0.3025  0.3354  0.4600
  106MOL    C6521275   2.111   3.139   6.734 -0.5588 -0.6844 -0.8007
  106MOL    H6621276   1.980   3.539   6.588  0.5382  1.6143 -0.5381
  106MOL    H6721277   2.040   3.447   6.452 -0.2688  2.1448 -0.5784
  106MOL    H6821278   2.119   3.405   6.748 -0.3766 -0.4000  0.4324
  106MOL    H6921279   2.078   3.197   6.529 -0.6926  0.1825  0.5874
  106MOL    H7021280   2.017   3.087   6.751 -0.5358 -0.6564 -0.5845
  106MOL    H7121281   2.137   3.191   6.826  1.2538 -0.7546 -1.2630
  106MOL    C7221282   2.220   3.028   6.705  0.0740 -0.4107 -0.3680
  106MOL    C7321283   2.262   2.938   6.817  0.4735 -0.4676  0.2912
  106MOL    C7421284   2.246   2.805   6.816 -0.2369 -0.6814  0.1396
  106MOL    C7521285   2.306   2.704   6.909 -0.5000  0.6320  0.0036
  106MOL    H7621286   2.186   2.972   6.618 -3.0492  1.6469 -0.5598
  106MOL    H7721287   2.312   3.077   6.673  0.7719 -1.2785  0.2724
  106MOL    H7821288   2.327   2.987   6.888 -1.2809  1.5872  0.5192
  106MOL    H7921289   2.193   2.758   6.734  0.8775  0.7121 -1.4204
  106MOL    H8021290   2.231   2.632   6.941 -0.9551  1.2377  0.3024
  106MOL    H8121291   2.340   2.752   7.001 -1.0513  0.5048  0.2750
  106MOL    C8221292   2.432   2.630   6.855 -0.3393  0.8868  0.9474
  106MOL    C8321293   2.377   2.536   6.747  0.0843  0.1850 -0.1531
  106MOL    C8421294   2.429   2.519   6.621  0.3500 -0.5677 -0.7094
  106MOL    C8521295   2.386   2.425   6.508  0.1881 -0.2044 -0.0466
  106MOL    H8621296   2.507   2.703   6.823  0.8639 -0.8553 -0.2684
  106MOL    H8721297   2.462   2.567   6.939 -0.8783  0.9467  1.1854
  106MOL    H8821298   2.285   2.487   6.773  0.0315  0.1650 -0.3788
  106MOL    H8921299   2.516   2.582   6.605 -0.4106  0.7075  0.0364
  106MOL    H9021300   2.344   2.481   6.424 -1.0376 -0.4561  0.3921
  106MOL    H9121301   2.299   2.368   6.541 -0.9634  1.8310  0.4815
  106MOL    C9221302   2.507   2.334   6.475 -0.4987  0.1569 -0.8240
  106MOL    C9321303   2.461   2.239   6.367 -0.5603  0.0236  0.3907
  106MOL    C9421304   2.437   2.111   6.399  0.7259 -0.4284 -0.3045
  106MOL    C9521305   2.394   1.998   6.303 -0.2677  0.1555 -0.3419
  106MOL    H9621306   2.596   2.389   6.444 -0.5932  0.0315 -1.3313
  106MOL    H9721307   2.526   2.276   6.566  0.0785  0.8634 -0.4878
  106MOL    H9821308   2.454   2.273   6.265 -0.6666  2.7361  1.2484
  106MOL    H9921309   2.439   2.091   6.505 -0.8303 -0.7279 -0.3255
  106MOL   H10021310   2.409   2.036   6.201 -0.9453  0.4703 -0.3259
  106MOL   H10121311   2.295   1.959   6.325  0.1326  0.7780  2.7468
  106MOL   C10221312   2.482   1.879   6.308  0.1493 -0.1209  0.0133
  106MOL   C10321313   2.445   1.780   6.197  0.0517 -0.1563 -0.1695
  106MOL   C10421314   2.536   1.738   6.112  0.0736  0.3405 -0.2851
  106MOL   C10521315   2.514   1.630   6.010 -0.1588 -0.5842 -0.0772
  106MOL   H10621316   2.582   1.919   6.292  0.2054 -0.7684 -1.3033
  106MOL   H10721317   2.485   1.832   6.407 -0.3891  0.7274  0.4405
  106MOL   H10821318   2.347   1.735   6.197  1.2164 -2.8453  2.0174
  106MOL   H10921319   2.633   1.785   6.103 -0.7319  2.2139  0.5741
  106MOL   H11021320   2.528   1.672   5.910 -1.3145 -0.3103 -0.1396
  106MOL   H11121321   2.413   1.591   6.026 -0.0623 -0.7941  0.0206
  106MOL   C11221322   2.607   1.512   6.037  0.2607  0.8599  0.5699
  106MOL   C11321323   2.736   1.549   5.972 -0.0842 -1.1312  0.3734
  106MOL   C11421324   2.849   1.592   6.031  0.0183 -1.2443  0.4992
  106MOL   C11521325   2.960   1.650   5.947 -0.1693 -0.6953 -1.0244
  106MOL   H11621326   2.627   1.494   6.143  0.5509  1.3154  0.5918
  106MOL   H11721327   2.567   1.419   5.998  1.2528 -0.0275  1.6183
  106MOL   H11821328   2.737   1.551   5.864  1.2882 -0.4039  0.3836
  106MOL   H11921329   2.844   1.602   6.138 -1.3810 -0.3762  0.3692
  106MOL   H12021330   2.932   1.651   5.841  2.3958 -2.2982 -1.7692
  106MOL   H12121331   3.051   1.590   5.953  0.6684  0.7582  1.1465
  106MOL   C12221332   3.006   1.788   6.002  0.0011 -0.2422 -0.1291
  106MOL   C12321333   3.114   1.854   5.926  0.4317 -0.5996 -0.9690
  106MOL   C12421334   3.186   1.819   5.819  0.8905  0.2030  0.6703
  106MOL   C12521335   3.303   1.900   5.771  0.0822 -0.5972  0.7016
  106MOL   H12621336   2.915   1.848   5.999 -0.1247 -0.4369 -0.2133
  106MOL   H12721337   3.041   1.790   6.105  1.2466 -0.3492 -0.5470
  106MOL   H12821338   3.153   1.940   5.977  0.0280 -1.2115  0.3916
  106MOL   H12921339   3.170   1.731   5.757  1.8381  0.4878  0.0027
  106MOL   H13021340   3.377   1.823   5.751 -0.7860 -1.0100 -1.0206
  106MOL   H13121341   3.332   1.972   5.848  2.6566 -0.4154 -0.4040
  106MOL   C13221342   3.275   1.974   5.643  0.3291  0.2365  0.7111
  106MOL   C13321343   3.407   2.009   5.570 -0.6951  0.2615 -0.1283
  106MOL   C13421344   3.434   1.960   5.451  0.4790 -0.3112 -0.0497
  106MOL   C13521345   3.570   1.973   5.384 -0.0710  0.0437  0.0093
  106MOL   H13621346   3.221   1.915   5.569  0.6036 -0.4592  1.0636
  106MOL   H13721347   3.216   2.063   5.666  1.4257  0.3590  3.2483
  106MOL   H13821348   3.476   2.076   5.618  0.3598 -0.4590 -0.6370
  106MOL   H13921349   3.369   1.891   5.399 -0.2934 -0.2858  0.8670
  106MOL   H14021350   3.641   2.016   5.455  3.3649  1.0995 -3.8469
  106MOL   H14121351   3.570   2.029   5.290  0.1922 -0.4374 -0.2758
  106MOL   C14221352   3.625   1.825   5.363  0.2955 -0.8095  0.0026
  106MOL   C14321353   3.777   1.831   5.322 -0.3999  0.5020 -1.0937
  106MOL   C14421354   3.871   1.745   5.365  0.4246  0.1896  0.4426
  106MOL   C14521355   4.012   1.741   5.318  0.0626 -0.3130 -0.3605
  106MOL   H14621356   3.606   1.765   5.451 -1.5041 -1.2032 -0.6341
  106MOL   H14721357   3.568   1.773   5.286  0.9364  1.3894 -2.0279
  106MOL   H14821358   3.799   1.916   5.259 -1.0335 -0.4133 -2.5808
  106MOL   H14921359   3.840   1.664   5.430 -0.9909  0.3511  0.0037
  106MOL   H15021360   4.082   1.748   5.401 -0.3531 -0.9172  0.0479
  106MOL   H15121361   4.027   1.833   5.262 -0.1254  0.6121  1.0587
  106MOL   C15221362   4.051   1.617   5.232  0.0945 -0.4479  0.2189
  106MOL   C15321363   3.942   1.578   5.134  0.3043 -0.3355 -0.0944
  106MOL   C15421364   3.841   1.500   5.163  0.5070 -0.5373  0.0196
  106MOL   C15521365   3.719   1.481   5.076 -0.3255 -0.5139  0.1043
  106MOL   H15621366   4.138   1.646   5.174 -0.1417 -1.9399 -0.9294
  106MOL   H15721367   4.097   1.537   5.290 -1.3337 -0.7801  0.9327
  106MOL   H15821368   3.935   1.636   5.043  1.1888 -3.0565 -1.9522
  106MOL   H15921369   3.833   1.439   5.253  0.4927 -0.4134  0.1017
  106MOL   H16021370   3.730   1.538   4.984  1.1190 -0.8632  0.0561
  106MOL   H16121371   3.630   1.525   5.123 -0.7407  0.7880 -1.8305
  106MOL   C16221372   3.688   1.338   5.057 -0.1938  0.2423  0.2844
  106MOL   C16321373   3.568   1.319   4.970  0.4600  0.1592 -0.8030
  106MOL   C16421374   3.449   1.278   5.017  0.1116 -0.1438  0.2514
  106MOL   C16521375   3.322   1.282   4.930  0.1771  0.0966  0.2151
  106MOL   H16621376   3.755   1.281   4.993 -2.1106  0.7539 -2.2463
  106MOL   H16721377   3.683   1.284   5.152  0.0802 -2.1084 -1.0044
  106MOL   H16821378   3.584   1.351   4.868  2.5282  1.4000 -0.1102
  106MOL   H16921379   3.437   1.251   5.121 -2.2560  0.2960  0.1366
  106MOL   H17021380   3.358   1.326   4.837  2.4768 -0.7031  0.6894
  106MOL   H17121381   3.250   1.348   4.977 -0.2501 -0.3714  0.2278
  106MOL   C17221382   3.263   1.135   4.914  0.0098  0.3972  0.7898
  106MOL   C17321383   3.197   1.083   5.046  0.1225  0.0182 -1.1558
  106MOL   C17421384   3.139   0.961   5.055 -0.9770  0.3753  0.3623
  106MOL   C17521385   3.066   0.914   5.177  0.1823 -0.4203  0.4134
  106MOL   H17621386   3.188   1.131   4.835  0.0814 -0.2509  0.7542
  106MOL   H17721387   3.343   1.066   4.888 -0.4416 -0.3250  1.3112
  106MOL   H17821388   3.195   1.148   5.132  1.8232  0.1466 -1.1988
  106MOL   H17921389   3.123   0.892   4.974 -0.1535  0.7809 -0.1497
  106MOL   H18021390   2.981   0.848   5.161 -1.7910  2.0233  0.3770
  106MOL   H18121391   3.024   1.000   5.231  1.0412 -0.6860  1.5334
  106MOL   C18221392   3.160   0.837   5.270 -0.4446 -0.5308 -0.0469
  106MOL   C18321393   3.094   0.799   5.400 -0.2029 -0.9914 -0.8981
  106MOL   C18421394   3.128   0.823   5.529 -0.0240 -0.0039 -0.6925
  106MOL   C18521395   3.053   0.775   5.651  0.4437  0.1698 -0.0361
  106MOL   H18621396   3.187   0.743   5.221  0.0729 -0.7724  0.6877
  106MOL   H18721397   3.248   0.891   5.304  1.1292 -1.4387 -2.4670
  106MOL   H18821398   3.010   0.733   5.379 -0.7451 -1.1195  1.4975
  106MOL   H18921399   3.222   0.871   5.551 -0.0483 -0.3287  0.1336
  106MOL   H19021400   2.966   0.713   5.628 -0.0676  0.8284  0.1141
  106MOL   H19121401   3.005   0.870   5.676  1.7572  0.5828  0.9375
  106MOL   C19221402   3.138   0.713   5.756 -0.4013  0.3228 -0.1520
  106MOL   C19321403   3.058   0.674   5.876  0.5355 -0.1158  0.1967
  106MOL   C19421404   3.084   0.712   5.999 -0.4800  0.0281  0.6729
  106MOL   C19521405   2.984   0.686   6.109  0.1582 -0.1784 -0.0684
  106MOL   H19621406   3.186   0.622   5.721 -1.5959 -0.2789 -0.2422
  106MOL   H19721407   3.219   0.778   5.788  0.4613 -1.5245  1.5255
  106MOL   H19821408   2.971   0.616   5.850 -0.1376  0.7395  0.5351
  106MOL   H19921409   3.162   0.782   6.024  1.0868 -0.7460 -1.8454
  106MOL   H20021410   2.890   0.641   6.077 -0.7265  0.2873  1.8350
  106MOL   H20121411   2.941   0.779   6.146 -0.7864 -0.9203  0.6924
  106MOL   H20221412   3.029   0.642   6.198  1.4050  0.3285 -0.4281
  107MOL     C121413   7.584   5.397   6.701 -0.3762 -0.0101 -0.5204
  107MOL     C221414   7.693   5.414   6.804 -0.7330  0.0912  0.1240
  107MOL     C321415   7.704   5.524   6.882  0.4716 -0.0751  0.5505
  107MOL     C421416   7.814   5.552   6.980 -0.5936 -0.0911  0.6896
  107MOL     H521417   7.511   5.328   6.745  0.2869  0.1802  0.9013
  107MOL     H621418   7.608   5.353   6.604 -0.0589 -0.4809 -0.2290
  107MOL     H721419   7.774   5.343   6.812 -0.3828  0.4686 -0.0204
  107MOL     H821420   7.620   5.593   6.886 -0.8358 -1.6039  0.1298
  107MOL     H921421   7.852   5.649   6.946  0.2821 -0.7965 -0.3761
  107MOL    H1021422   7.905   5.495   6.963  0.1876  1.6497 -1.1907
  107MOL    H1121423   7.538   5.496   6.695 -0.0352  0.0783 -1.9325
  107MOL    C1221424   7.766   5.566   7.130  0.4492  0.1658 -0.2865
  107MOL    C1321425   7.866   5.637   7.226  0.1890  0.4243 -0.1720
  107MOL    C1421426   0.019   5.662   7.204 -0.4355 -0.5634 -0.2544
  107MOL    C1521427   0.118   5.716   7.311  0.8634  0.4408 -0.2048
  107MOL    H1621428   7.682   5.636   7.124 -1.3380 -1.9750 -0.6808
  107MOL    H1721429   7.735   5.466   7.160  0.8065 -0.3147 -1.4805
  107MOL    H1821430   7.825   5.659   7.324  1.4358 -0.5401  0.5976
  107MOL    H1921431   0.053   5.631   7.106 -0.3084 -0.6591 -0.1802
  107MOL    H2021432   0.097   5.664   7.404  0.0858  0.3700 -0.4163
  107MOL    H2121433   0.089   5.820   7.327  1.8483  0.7751 -0.5512
  107MOL    C2221434   0.270   5.708   7.268 -0.6450 -0.4569  0.2802
  107MOL    C2321435   0.321   5.568   7.243  0.3723 -0.3783  0.4975
  107MOL    C2421436   0.436   5.523   7.297 -0.2052 -0.3138 -0.6001
  107MOL    C2521437   0.477   5.376   7.293 -0.0527 -0.2597 -0.2861
  107MOL    H2621438   0.289   5.763   7.176  0.3848 -0.8060  0.2864
  107MOL    H2721439   0.334   5.754   7.344  2.9285  0.3892 -3.1154
  107MOL    H2821440   0.258   5.499   7.189  0.2887 -0.8075  1.1449
  107MOL    H2921441   0.502   5.578   7.363 -0.4902  0.2360 -0.7672
  107MOL    H3021442   0.581   5.369   7.261 -0.1878 -2.1279 -0.3537
  107MOL    H3121443   0.415   5.329   7.217 -0.5895  1.8620 -1.1879
  107MOL    C3221444   0.463   5.306   7.434  0.2634  0.2895 -0.4456
  107MOL    C3321445   0.320   5.293   7.493 -0.6115 -0.6574  0.2205
  107MOL    C3421446   0.260   5.178   7.528  1.0403  0.1268  0.0981
  107MOL    C3521447   0.120   5.163   7.586  1.0576  0.1360  0.2704
  107MOL    H3621448   0.512   5.209   7.429  1.8159  1.0182  0.2899
  107MOL    H3721449   0.516   5.372   7.503  1.2068  0.1883 -1.0660
  107MOL    H3821450   0.268   5.387   7.497  1.9052  0.6936  4.7164
  107MOL    H3921451   0.313   5.084   7.517 -1.2357 -1.4620  2.0780
  107MOL    H4021452   0.118   5.247   7.655  0.1462  0.4253 -0.1036
  107MOL    H4121453   0.118   5.067   7.637  2.2323 -0.4824 -0.8140
  107MOL    C4221454   0.022   5.175   7.468 -0.2554 -0.1273  0.3135
  107MOL    C4321455   7.859   5.141   7.503 -0.3492  0.2622 -0.6833
  107MOL    C4421456   7.754   5.174   7.424  0.0220 -0.8024 -0.1617
  107MOL    C4521457   7.613   5.129   7.442 -0.0293 -0.2062  0.4398
  107MOL    H4621458   0.008   5.276   7.429  1.2582 -1.3601 -3.6090
  107MOL    H4721459   0.043   5.105   7.387  1.9419 -0.2772  0.9734
  107MOL    H4821460   7.852   5.071   7.585 -0.3711 -0.1005 -0.9985
  107MOL    H4921461   7.772   5.235   7.337  0.2039 -0.2301  0.2697
  107MOL    H5021462   7.560   5.219   7.472  1.8496  1.7464 -1.9382
  107MOL    H5121463   7.604   5.057   7.523  1.1601  0.4817  1.1914
  107MOL    C5221464   7.547   5.072   7.317  0.3328 -0.1290  0.3214
  107MOL    C5321465   7.532   5.173   7.203 -0.2527  0.0162  0.3230
  107MOL    C5421466   7.405   5.206   7.164 -0.9138  0.3182  0.5718
  107MOL    C5521467   7.379   5.326   7.071 -0.1908  0.2662 -0.6471
  107MOL    H5621468   7.606   4.987   7.285 -0.5608 -0.4141 -0.6152
  107MOL    H5721469   7.450   5.038   7.353  0.4855  0.9599  1.7923
  107MOL    H5821470   7.623   5.220   7.169  0.8766 -2.4470 -0.1687
  107MOL    H5921471   7.318   5.152   7.198  0.6750 -3.2126 -0.7502
  107MOL    H6021472   7.476   5.363   7.037 -1.3392  1.4753 -2.7673
  107MOL    H6121473   7.333   5.415   7.115 -0.2991 -0.3327  0.4660
  107MOL    C6221474   7.298   5.305   6.944 -0.6376  0.2788 -0.3656
  107MOL    C6321475   7.152   5.282   6.960  0.2133 -0.5241  0.1090
  107MOL    C6421476   7.055   5.341   6.882 -0.4059 -0.2568  0.0483
  107MOL    C6521477   6.910   5.322   6.917  0.3689 -0.1697 -0.3293
  107MOL    H6621478   7.302   5.391   6.878  1.6368  0.1319 -0.4706
  107MOL    H6721479   7.341   5.225   6.884 -0.2541 -2.1959  3.0428
  107MOL    H6821480   7.133   5.209   7.037  1.9244  0.8023  1.8130
  107MOL    H6921481   7.080   5.407   6.801 -0.6872  0.2498  0.3687
  107MOL    H7021482   6.900   5.272   7.014 -0.2994 -2.4017 -1.5168
  107MOL    H7121483   6.878   5.269   6.828  0.5564 -0.2927 -0.3231
  107MOL    C7221484   6.836   5.458   6.919 -0.2405  0.1578  0.3501
  107MOL    C7321485   6.689   5.451   6.896 -1.3229 -0.1615 -0.5877
  107MOL    C7421486   6.617   5.341   6.913 -0.0081 -0.0016  0.0571
  107MOL    C7521487   6.467   5.336   6.921 -0.8986  0.4885 -0.4111
  107MOL    H7621488   6.866   5.509   7.011 -1.2776 -0.3408  0.9780
  107MOL    H7721489   6.880   5.518   6.839  0.3112 -0.1319  0.4355
  107MOL    H7821490   6.636   5.543   6.879 -3.7331 -1.3379  0.2760
  107MOL    H7921491   6.655   5.243   6.939 -1.8965 -1.3158 -1.9244
  107MOL    H8021492   6.432   5.246   6.870 -3.7096  1.5296 -0.4237
  107MOL    H8121493   6.438   5.430   6.873  1.1452 -0.5244 -3.8623
  107MOL    C8221494   6.426   5.322   7.070  0.4332 -0.3087  0.0696
  107MOL    C8321495   6.281   5.311   7.086  0.2043 -0.4018 -0.0038
  107MOL    C8421496   6.207   5.391   7.164 -0.1275  0.5592  0.3921
  107MOL    C8521497   6.056   5.393   7.192  0.0407 -0.1688 -0.4267
  107MOL    H8621498   6.482   5.245   7.123 -0.0597  1.0048  2.6269
  107MOL    H8721499   6.466   5.404   7.130  1.7259 -0.4167 -0.6439
  107MOL    H8821500   6.227   5.231   7.038  0.0658 -0.0414 -0.4512
  107MOL    H8921501   6.262   5.465   7.220  1.5477  1.3708 -2.2209
  107MOL    H9021502   5.997   5.313   7.145 -1.2725 -0.3809  1.5342
  107MOL    H9121503   6.015   5.490   7.163  0.6378  0.7115  1.5991
  107MOL    C9221504   6.033   5.365   7.342 -0.3109 -0.1876 -0.1907
  107MOL    C9321505   5.887   5.343   7.375  0.5607 -0.2237  0.1946
  107MOL    C9421506   5.815   5.417   7.465  0.2673 -0.4563 -0.1715
  107MOL    C9521507   5.678   5.388   7.503 -0.4861 -0.0339 -0.0243
  107MOL    H9621508   6.093   5.287   7.389  1.5762  0.9923 -0.5928
  107MOL    H9721509   6.069   5.454   7.395  0.5261  0.1037 -1.2443
  107MOL    H9821510   5.848   5.256   7.323  0.3117 -0.3280  0.5515
  107MOL    H9921511   5.859   5.506   7.509 -0.3511  0.2253 -0.9260
  107MOL   H10021512   5.689   5.340   7.601  2.7873 -0.5865 -0.6051
  107MOL   H10121513   5.647   5.305   7.439 -2.4156 -0.2765  1.1639
  107MOL   C10221514   5.583   5.507   7.502 -0.1428  0.2670  0.2306
  107MOL   C10321515   5.440   5.483   7.526  0.5874  0.6437 -0.2879
  107MOL   C10421516   5.346   5.494   7.430 -0.5553 -0.0792  0.0443
  107MOL   C10521517   5.204   5.477   7.463  0.2197  0.0158  0.2377
  107MOL   H10621518   5.616   5.571   7.583 -0.3976 -0.9202  1.2892
  107MOL   H10721519   5.594   5.559   7.407 -1.2598 -1.6676 -1.0059
  107MOL   H10821520   5.409   5.444   7.622 -1.5891  2.1309 -0.3624
  107MOL   H10921521   5.354   5.527   7.328  1.7114  0.4766  0.3712
  107MOL   H11021522   5.188   5.464   7.570  0.5553  0.4290  0.3438
  107MOL   H11121523   5.176   5.384   7.415 -0.0578  0.7508 -1.0551
  107MOL   C11221524   5.119   5.587   7.400  0.3341  0.2173  0.1579
  107MOL   C11321525   4.967   5.568   7.420  0.0765 -0.1918  0.7119
  107MOL   C11421526   4.911   5.453   7.468  0.0256 -0.4515 -0.1845
  107MOL   C11521527   4.762   5.432   7.477 -0.5078 -0.2463 -0.0961
  107MOL   H11621528   5.151   5.683   7.440  0.9553 -0.3868  1.1230
  107MOL   H11721529   5.145   5.592   7.294  1.3083 -1.3745  0.3063
  107MOL   H11821530   4.894   5.644   7.398  4.1435  3.4228 -0.9985
  107MOL   H11921531   4.968   5.365   7.496  0.4900  0.7467  2.8158
  107MOL   H12021532   4.745   5.367   7.391 -1.5665 -0.3705  0.1966
  107MOL   H12121533   4.716   5.529   7.459  0.7333  0.3606 -0.0285
  107MOL   C12221534   4.719   5.384   7.625 -0.3346 -0.3972  0.4730
  107MOL   C12321535   4.570   5.408   7.657 -0.3539  0.1966 -0.4629
  107MOL   C12421536   4.467   5.323   7.648 -0.3084  0.1073 -0.0744
  107MOL   C12521537   4.320   5.369   7.660 -0.1618  0.1847 -1.0537
  107MOL   H12621538   4.742   5.279   7.647  1.3927 -0.1840 -0.2831
  107MOL   H12721539   4.766   5.444   7.703  1.4239 -1.9684  0.6716
  107MOL   H12821540   4.553   5.515   7.658 -0.7857  0.1244  0.8664
  107MOL   H12921541   4.481   5.218   7.630 -0.4403  0.1084 -0.1854
  107MOL   H13021542   4.272   5.379   7.562  0.3761 -2.3598 -1.6055
  107MOL   H13121543   4.320   5.465   7.711  1.1302  0.6025 -1.8382
  107MOL   C13221544   4.233   5.272   7.750  0.0169 -0.1005  0.4904
  107MOL   C13321545   4.092   5.333   7.772 -0.1104 -0.1804  0.0258
  107MOL   C13421546   3.984   5.285   7.714  0.2935  0.4766 -0.1795
  107MOL   C13521547   3.844   5.350   7.736  0.1761  0.0278  0.3215
  107MOL   H13621548   4.232   5.172   7.707  0.6142  0.1564 -0.1227
  107MOL   H13721549   4.266   5.255   7.853 -2.0992 -0.5775  1.1370
  107MOL   H13821550   4.090   5.416   7.842 -0.3783 -1.1100  1.1335
  107MOL   H13921551   3.996   5.198   7.650 -3.3792  0.4583 -0.9936
  107MOL   H14021552   3.853   5.445   7.789 -1.9717 -0.8891  2.4088
  107MOL   H14121553   3.789   5.284   7.803 -0.3514 -1.4526 -1.5277
  107MOL   C14221554   3.758   5.356   7.610 -1.0784  0.2014 -0.6817
  107MOL   C14321555   3.611   5.377   7.640  0.7228 -0.7236  0.7457
  107MOL   C14421556   3.512   5.319   7.563  0.0502  0.5930 -0.1617
  107MOL   C14521557   3.369   5.361   7.588 -0.1133 -0.0783  0.2383
  107MOL   H14621558   3.811   5.428   7.548 -0.9035  0.5645 -0.1112
  107MOL   H14721559   3.772   5.271   7.543 -0.2192 -0.0940 -0.1403
  107MOL   H14821560   3.581   5.436   7.725 -1.3903 -1.8594  0.8320
  107MOL   H14921561   3.534   5.249   7.484  2.1066  0.3211  0.6330
  107MOL   H15021562   3.358   5.458   7.539 -1.0608  0.4915  1.5456
  107MOL   H15121563   3.348   5.368   7.694  0.3657  0.1723  0.3197
  107MOL   C15221564   3.258   5.261   7.526 -0.5391  0.0650 -0.4008
  107MOL   C15321565   3.282   5.115   7.562 -0.4091  0.5178 -0.0693
  107MOL   C15421566   3.251   5.015   7.477 -0.2657  0.0204 -0.4940
  107MOL   C15521567   3.273   4.872   7.523 -0.3181  0.4453  0.4205
  107MOL   H15621568   3.165   5.292   7.573 -1.0065  1.4461 -2.1596
  107MOL   H15721569   3.245   5.277   7.419 -2.3491  1.2983 -0.0065
  107MOL   H15821570   3.338   5.080   7.648  0.6498 -1.8935 -1.6641
  107MOL   H15921571   3.206   5.022   7.379 -0.5121 -2.1158 -0.5608
  107MOL   H16021572   3.183   4.813   7.506  0.0869 -0.1527  0.3420
  107MOL   H16121573   3.287   4.857   7.630 -1.0397 -0.7324  0.3523
  107MOL   C16221574   3.396   4.806   7.456 -0.2599  0.3617 -0.0262
  107MOL   C16321575   3.513   4.897   7.471 -0.4154  0.0883  0.1297
  107MOL   C16421576   3.620   4.862   7.549  0.5715  1.3503  0.1924
  107MOL   C16521577   3.744   4.942   7.554 -0.4801 -0.1425  0.1652
  107MOL   H16621578   3.410   4.709   7.503  0.7925  0.7480  0.4774
  107MOL   H16721579   3.388   4.792   7.348  0.5926 -0.3428  0.0007
  107MOL   H16821580   3.519   4.985   7.410  2.0435 -2.0541 -2.8947
  107MOL   H16921581   3.616   4.764   7.595 -1.5140  1.2735 -0.0646
  107MOL   H17021582   3.782   4.959   7.655  1.5120 -0.0935 -0.5801
  107MOL   H17121583   3.739   5.042   7.510 -1.7495 -0.7712 -1.1794
  107MOL   C17221584   3.859   4.880   7.475 -0.0954  0.8149 -0.2065
  107MOL   C17321585   3.974   4.977   7.473  0.1480 -0.0763  0.6354
  107MOL   C17421586   3.995   5.076   7.383  0.3180  0.8264 -0.6282
  107MOL   C17521587   4.117   5.150   7.360 -0.4880 -0.7011 -0.5489
  107MOL   H17621588   3.892   4.794   7.533 -2.9014 -0.3226 -0.2407
  107MOL   H17721589   3.823   4.849   7.377  0.1207 -0.2636  0.0487
  107MOL   H17821590   4.054   4.952   7.541  0.5849  1.6360  0.7700
  107MOL   H17921591   3.916   5.089   7.311 -0.4687  0.1596  0.0948
  107MOL   H18021592   4.159   5.090   7.279  0.6919 -0.3443 -0.2058
  107MOL   H18121593   4.179   5.150   7.449  0.2466  0.0270 -1.0548
  107MOL   C18221594   4.095   5.298   7.304  0.1132 -0.8583  0.4600
  107MOL   C18321595   4.224   5.352   7.252  0.7357  0.3825 -0.1998
  107MOL   C18421596   4.241   5.467   7.183 -0.3063  0.6522 -0.5200
  107MOL   C18521597   4.369   5.518   7.125  0.1929 -0.5630 -0.0240
  107MOL   H18621598   4.030   5.291   7.216  1.4438 -0.2583 -0.5879
  107MOL   H18721599   4.037   5.375   7.356 -0.6585 -0.3179 -1.1449
  107MOL   H18821600   4.306   5.284   7.267 -1.5693 -2.2240  1.0423
  107MOL   H18921601   4.151   5.524   7.165 -1.9524 -2.0214 -1.1914
  107MOL   H19021602   4.356   5.543   7.020  0.1823 -2.5710 -0.5238
  107MOL   H19121603   4.437   5.433   7.134  0.3077 -0.2455  2.6668
  107MOL   C19221604   4.438   5.635   7.211  0.5247 -0.1220  0.7078
  107MOL   C19321605   4.571   5.682   7.154  0.4987 -1.1299  0.0646
  107MOL   C19421606   4.592   5.805   7.106 -0.4241  0.6010 -0.2137
  107MOL   C19521607   4.730   5.861   7.063 -0.5135  0.6244  0.1450
  107MOL   H19621608   4.365   5.716   7.213  2.5275  1.8292 -2.2377
  107MOL   H19721609   4.454   5.605   7.315 -0.1245 -1.6855  0.3755
  107MOL   H19821610   4.653   5.613   7.171  3.9242  3.5605  3.9585
  107MOL   H19921611   4.509   5.872   7.118 -2.0061 -1.4958  0.8737
  107MOL   H20021612   4.799   5.781   7.089 -0.2762  0.7804  0.0037
  107MOL   H20121613   4.761   5.951   7.117  0.2134  0.3971  0.1037
  107MOL   H20221614   4.726   5.895   6.959 -0.5846 -0.8511 -0.3394
  108MOL     C121615   5.388   4.139   7.834  0.1438  0.6335 -0.4702
  108MOL     C221616   5.260   4.134   7.758  0.0025  0.6004  0.3240
  108MOL     C321617   5.148   4.059   7.784  0.2212  0.1625 -0.3183
  108MOL     C421618   5.028   4.053   7.696  0.1024 -0.2538 -0.1323
  108MOL     H521619   5.403   4.239   7.875  1.8020  1.3266 -2.6768
  108MOL     H621620   5.474   4.106   7.776  0.3625 -0.6497  0.5467
  108MOL     H721621   5.264   4.196   7.669  0.0095 -0.9767 -0.7897
  108MOL     H821622   5.151   3.998   7.873 -0.6953 -2.0369 -1.7466
  108MOL     H921623   5.061   4.089   7.599  1.0631  0.4813  0.4638
  108MOL    H1021624   4.941   4.115   7.720 -0.9811 -1.0603 -1.8502
  108MOL    H1121625   5.399   4.063   7.911 -0.8969  0.1382 -0.7881
  108MOL    C1221626   4.988   3.905   7.682 -0.3270  0.0555  0.4939
  108MOL    C1321627   4.848   3.896   7.611 -0.2031 -0.3898  0.0605
  108MOL    C1421628   4.817   3.805   7.519 -0.5358  0.3217  0.1813
  108MOL    C1521629   4.686   3.781   7.454  0.2389 -0.7683  0.1285
  108MOL    H1621630   5.065   3.870   7.614 -0.2684  1.9242 -0.4548
  108MOL    H1721631   4.976   3.845   7.772 -0.1770 -0.1558  0.3730
  108MOL    H1821632   4.777   3.968   7.649 -0.5408 -2.0429  2.6604
  108MOL    H1921633   4.890   3.730   7.493  1.3815  1.3749  2.3471
  108MOL    H2021634   4.694   3.806   7.349 -1.4578 -3.8057 -0.7918
  108MOL    H2121635   4.610   3.839   7.507 -0.2355  0.6339 -2.0558
  108MOL    C2221636   4.658   3.631   7.462  0.0625 -0.0739  0.0379
  108MOL    C2321637   4.525   3.613   7.392 -0.2215 -0.6050  0.7537
  108MOL    C2421638   4.498   3.526   7.296  0.7264  0.2929 -0.5232
  108MOL    C2521639   4.363   3.514   7.230 -0.9588  0.3823  0.0944
  108MOL    H2621640   4.734   3.576   7.407 -0.1461 -0.4013  0.0786
  108MOL    H2721641   4.626   3.608   7.563 -0.5912  2.1360  0.3642
  108MOL    H2821642   4.448   3.683   7.417  0.2031 -0.1977  0.9303
  108MOL    H2921643   4.571   3.460   7.253  0.0839 -1.4585  1.0197
  108MOL    H3021644   4.373   3.540   7.125  0.1446  1.4704  0.4554
  108MOL    H3121645   4.288   3.583   7.269 -0.5622  2.3359 -2.4782
  108MOL    C3221646   4.299   3.374   7.248  0.5430  0.3448  0.6161
  108MOL    C3321647   4.161   3.364   7.194 -0.1595 -0.1817 -0.0368
  108MOL    C3421648   4.129   3.309   7.077  0.2325  0.0053 -0.2523
  108MOL    C3521649   3.987   3.298   7.019  0.2399  0.6846 -0.5380
  108MOL    H3621650   4.369   3.306   7.200  0.0760 -0.0924  0.5503
  108MOL    H3721651   4.291   3.368   7.356 -0.3417  1.3396  0.6243
  108MOL    H3821652   4.085   3.406   7.258  0.6622  2.4761 -0.7334
  108MOL    H3921653   4.207   3.266   7.015  0.1692  0.5786 -0.7357
  108MOL    H4021654   3.967   3.374   6.944 -0.4956 -0.1659 -1.2047
  108MOL    H4121655   3.928   3.318   7.108  1.1332  0.6218  0.0850
  108MOL    C4221656   3.968   3.154   6.963 -0.4643 -0.5058 -0.7160
  108MOL    C4321657   3.819   3.135   6.926 -0.0771 -0.6438 -0.3815
  108MOL    C4421658   3.780   3.133   6.799  0.1346  0.4827 -0.5930
  108MOL    C4521659   3.637   3.135   6.756  0.0169  0.6132 -0.1673
  108MOL    H4621660   4.036   3.136   6.880  1.4238 -0.0694  0.7071
  108MOL    H4721661   3.996   3.083   7.040  0.3035  1.4083  0.8014
  108MOL    H4821662   3.744   3.119   7.002 -0.1275  0.5460 -0.1674
  108MOL    H4921663   3.855   3.147   6.722 -0.2693  1.2390 -0.8535
  108MOL    H5021664   3.621   3.231   6.708  1.4502  0.0093 -1.9114
  108MOL    H5121665   3.583   3.147   6.850  1.0870  2.9865  0.1732
  108MOL    C5221666   3.582   3.012   6.684  0.6783  0.2038  0.0240
  108MOL    C5321667   3.439   3.031   6.636 -0.3509 -0.7496  0.3820
  108MOL    C5421668   3.327   2.987   6.696 -0.2970 -0.0151 -0.0813
  108MOL    C5521669   3.184   2.989   6.638 -0.0734 -0.6493  0.2149
  108MOL    H5621670   3.636   2.982   6.594  0.5744 -0.6339  0.2334
  108MOL    H5721671   3.572   2.936   6.761 -0.2517 -0.5000 -0.7775
  108MOL    H5821672   3.439   3.079   6.539 -0.6273 -1.0976  0.2094
  108MOL    H5921673   3.347   2.939   6.791  0.9844 -1.9946 -1.3210
  108MOL    H6021674   3.108   3.015   6.712 -1.5934 -2.2929 -0.7337
  108MOL    H6121675   3.155   2.889   6.605  0.0271 -0.9993  1.1575
  108MOL    C6221676   3.175   3.074   6.512 -0.1182 -0.0835  0.0826
  108MOL    C6321677   3.034   3.060   6.458 -0.4134  0.6456  1.0326
  108MOL    C6421678   2.953   3.162   6.477 -0.4880 -0.4813 -0.3718
  108MOL    C6521679   2.806   3.152   6.435  0.3792  0.0671 -0.0076
  108MOL    H6621680   3.200   3.176   6.538 -0.9326 -0.8977  4.3801
  108MOL    H6721681   3.249   3.053   6.435 -0.7372  1.7639 -1.0646
  108MOL    H6821682   3.004   2.972   6.403  0.0562 -1.0272  3.3677
  108MOL    H6921683   2.984   3.252   6.527  1.4866 -1.0527 -0.5356
  108MOL    H7021684   2.743   3.143   6.523  0.0656 -2.1653 -0.4178
  108MOL    H7121685   2.802   3.056   6.384  1.0258 -0.8923  1.7066
  108MOL    C7221686   2.754   3.261   6.339  0.0784 -0.1125 -0.3684
  108MOL    C7321687   2.613   3.237   6.287 -0.0092 -0.2571  0.2875
  108MOL    C7421688   2.506   3.290   6.341  0.4195  0.0089  0.6326
  108MOL    C7521689   2.363   3.260   6.279  1.0156  0.9649  0.1146
  108MOL    H7621690   2.762   3.358   6.389  0.0826  0.4026 -1.3745
  108MOL    H7721691   2.820   3.278   6.255  0.4528 -0.5953 -0.1731
  108MOL    H7821692   2.593   3.188   6.193 -1.0251  0.0974  0.3237
  108MOL    H7921693   2.512   3.342   6.435  0.5440 -1.9223  1.7237
  108MOL    H8021694   2.305   3.229   6.366  2.8698 -1.2850  0.5929
  108MOL    H8121695   2.365   3.175   6.211 -1.5515  1.6838 -0.9136
  108MOL    C8221696   2.304   3.382   6.213 -0.0156  0.0486  0.0234
  108MOL    C8321697   2.164   3.350   6.163  0.5337 -0.7486 -0.8080
  108MOL    C8421698   2.122   3.378   6.042 -0.4411 -0.4243 -0.4807
  108MOL    C8521699   1.978   3.372   5.998  0.2999 -0.3022 -0.0842
  108MOL    H8621700   2.302   3.454   6.295 -0.4596 -0.5692  0.5639
  108MOL    H8721701   2.363   3.430   6.135  0.8035 -0.3679  0.3742
  108MOL    H8821702   2.094   3.317   6.238 -0.7308  0.6798 -1.3392
  108MOL    H8921703   2.184   3.429   5.970 -1.2830 -0.1019 -0.9937
  108MOL    H9021704   1.922   3.328   6.081 -1.7521 -1.8645 -2.2273
  108MOL    H9121705   1.973   3.304   5.913  1.2148  0.7400 -0.9846
  108MOL    C9221706   1.917   3.513   5.968 -0.1788 -0.0894  0.2908
  108MOL    C9321707   1.777   3.515   5.908  0.1600 -0.0408 -0.1380
  108MOL    C9421708   1.677   3.588   5.954  0.2412  0.1634  0.5176
  108MOL    C9521709   1.550   3.614   5.882  0.7458  0.4008 -0.0395
  108MOL    H9621710   1.919   3.569   6.061  0.5152  0.5893 -0.1287
  108MOL    H9721711   1.981   3.568   5.899 -3.0128  2.3833 -0.4626
  108MOL    H9821712   1.767   3.452   5.821 -3.1777  1.2867 -0.7727
  108MOL    H9921713   1.694   3.649   6.042  0.6635 -0.3193  0.7739
  108MOL   H10021714   1.541   3.546   5.798  1.2971 -0.0482  0.2637
  108MOL   H10121715   1.552   3.713   5.837 -0.8784  0.7879  0.6878
  108MOL   C10221716   1.425   3.618   5.970  0.3814 -0.3497  0.3929
  108MOL   C10321717   1.387   3.480   6.003  0.1990  0.1266  0.2008
  108MOL   C10421718   1.375   3.434   6.130 -0.0957 -0.1470  0.1775
  108MOL   C10521719   1.315   3.299   6.171 -0.1736  0.7473 -0.5291
  108MOL   H10621720   1.437   3.681   6.058  0.4421 -0.2220  0.2935
  108MOL   H10721721   1.337   3.649   5.913  1.0088  0.7990  0.0348
  108MOL   H10821722   1.358   3.426   5.914 -1.9903  0.8356  0.4664
  108MOL   H10921723   1.404   3.493   6.215  1.2831  0.0155 -0.3904
  108MOL   H11021724   1.387   3.219   6.186 -0.9648  0.0932 -0.1629
  108MOL   H11121725   1.264   3.280   6.077  4.1933 -0.5987 -2.7451
  108MOL   C11221726   1.220   3.308   6.291  0.7766 -0.1799 -0.4379
  108MOL   C11321727   1.132   3.436   6.283 -0.7519  0.9933  0.6102
  108MOL   C11421728   1.124   3.538   6.365 -0.1054 -0.5585 -0.1800
  108MOL   C11521729   1.025   3.647   6.352  0.4785 -0.0690 -0.4624
  108MOL   H11621730   1.170   3.214   6.316  2.5473 -0.9650  0.2645
  108MOL   H11721731   1.278   3.315   6.383  1.3130  0.0453 -0.7953
  108MOL   H11821732   1.055   3.444   6.206 -1.3801 -0.1849  1.1081
  108MOL   H11921733   1.187   3.539   6.452  0.4866 -1.9153 -0.5622
  108MOL   H12021734   0.974   3.635   6.255 -2.7023 -0.0526  1.1328
  108MOL   H12121735   1.083   3.738   6.359  0.1354  0.0597  0.8338
  108MOL   C12221736   0.934   3.660   6.472  0.6693 -0.0054 -0.3675
  108MOL   C12321737   0.823   3.560   6.478  0.7611 -0.8316  0.6281
  108MOL   C12421738   0.805   3.458   6.568  0.4684 -0.6905 -0.3843
  108MOL   C12521739   0.688   3.365   6.564 -0.2637  0.5935 -0.2379
  108MOL   H12621740   0.998   3.660   6.560  1.7956 -0.3090 -1.1795
  108MOL   H12721741   0.884   3.756   6.458 -0.2009 -0.3675  0.1785
  108MOL   H12821742   0.755   3.573   6.395  0.7005  0.9761  0.9368
  108MOL   H12921743   0.866   3.446   6.656 -0.5034 -1.0309  0.2615
  108MOL   H13021744   0.726   3.265   6.544 -0.6127  0.3358  0.3630
  108MOL   H13121745   0.615   3.389   6.487 -1.3615  0.7919  0.8574
  108MOL   C13221746   0.621   3.359   6.703  0.3884  0.1056  0.0292
  108MOL   C13321747   0.526   3.248   6.708 -0.3415  0.1446 -0.7172
  108MOL   C13421748   0.399   3.255   6.760  0.8830 -0.4112  0.0032
  108MOL   C13521749   0.307   3.137   6.761  0.3735 -1.0956  0.0483
  108MOL   H13621750   0.694   3.347   6.783  0.7092 -2.5060 -0.6020
  108MOL   H13721751   0.577   3.459   6.709  0.5858  0.3026 -1.5150
  108MOL   H13821752   0.559   3.159   6.657  1.7167  0.1104  0.6320
  108MOL   H13921753   0.347   3.342   6.798  0.2675 -0.7646 -0.0337
  108MOL   H14021754   0.354   3.045   6.728 -2.4872 -2.6478  0.0707
  108MOL   H14121755   0.227   3.166   6.693  0.1509  0.4154  0.9125
  108MOL   C14221756   0.234   3.096   6.888  0.3556 -0.4291 -0.2138
  108MOL   C14321757   0.167   2.960   6.865  0.1870  0.4039 -0.3870
  108MOL   C14421758   0.201   2.847   6.934 -0.1236 -0.2157 -0.0671
  108MOL   C14521759   0.155   2.710   6.891 -0.2121 -0.4393 -0.2092
  108MOL   H14621760   0.302   3.084   6.972  2.3254  0.7730 -1.5720
  108MOL   H14721761   0.165   3.173   6.920 -0.9262 -0.6067 -2.4414
  108MOL   H14821762   0.101   2.948   6.780  0.3177  2.8506 -0.8848
  108MOL   H14921763   0.267   2.858   7.019 -3.2383  0.5244  2.3559
  108MOL   H15021764   0.093   2.724   6.803 -2.0258 -0.7731  0.9836
  108MOL   H15121765   0.089   2.668   6.967  0.1335 -1.8665 -0.6826
  108MOL   C15221766   0.265   2.615   6.854  1.3948 -0.2567 -0.1275
  108MOL   C15321767   0.218   2.484   6.792  0.1014  0.0682  0.3520
  108MOL   C15421768   0.193   2.486   6.659 -0.1383  0.3224  0.6030
  108MOL   C15521769   0.135   2.370   6.588 -0.4789  0.0300 -0.2558
  108MOL   H15621770   0.328   2.667   6.782  0.4520 -0.1710 -0.9018
  108MOL   H15721771   0.336   2.589   6.932  0.0356  1.7642  1.8367
  108MOL   H15821772   0.198   2.403   6.861  0.0723  1.2636  1.7727
  108MOL   H15921773   0.224   2.565   6.592 -1.1210  0.2809  0.0829
  108MOL   H16021774   0.059   2.413   6.523 -1.6004 -0.1078  0.9568
  108MOL   H16121775   0.099   2.290   6.652 -0.5483  0.6807  0.5359
  108MOL   C16221776   0.242   2.295   6.499 -0.4089  0.5394  0.1963
  108MOL   C16321777   0.202   2.155   6.449 -0.4013  0.6343 -0.0344
  108MOL   C16421778   0.278   2.047   6.464 -0.3444  0.5464 -0.5661
  108MOL   C16521779   0.248   1.909   6.411  0.2283  0.2307  0.6075
  108MOL   H16621780   0.272   2.349   6.409  0.8992  0.4483  0.5612
  108MOL   H16721781   0.331   2.276   6.560 -0.9417 -1.7376  0.3312
  108MOL   H16821782   0.107   2.147   6.399 -0.7107  3.2192  0.0862
  108MOL   H16921783   0.371   2.066   6.516 -0.9848  0.9133  0.4543
  108MOL   H17021784   0.166   1.914   6.340 -0.3644 -2.2145  1.0597
  108MOL   H17121785   0.219   1.830   6.480  1.8760 -0.3888  0.6089
  108MOL   C17221786   0.361   1.851   6.323 -0.2591  0.5613  0.4845
  108MOL   C17321787   0.336   1.707   6.278  0.4593  0.5335  0.0122
  108MOL   C17421788   0.353   1.664   6.154  0.8907 -0.1389 -0.3681
  108MOL   C17521789   0.328   1.528   6.106  0.0271  0.4142 -0.8564
  108MOL   H17621790   0.376   1.917   6.238 -0.5737  0.4795  0.3671
  108MOL   H17721791   0.450   1.861   6.386 -0.6968  0.0987  1.1763
  108MOL   H17821792   0.305   1.635   6.353  1.6951 -2.1853 -1.9874
  108MOL   H17921793   0.388   1.726   6.073 -1.0848  0.6977 -0.6184
  108MOL   H18021794   0.272   1.542   6.013 -0.1267  0.2969 -0.7805
  108MOL   H18121795   0.264   1.478   6.178 -0.2101 -0.9485 -1.9916
  108MOL   C18221796   0.452   1.449   6.083 -1.4294  0.8951  0.3334
  108MOL   C18321797   0.428   1.315   6.013  0.6223 -0.0139  0.1218
  108MOL   C18421798   0.505   1.271   5.905  0.7423 -0.3192 -0.2884
  108MOL   C18521799   0.473   1.155   5.813  0.2311 -0.4078  0.6002
  108MOL   H18621800   0.525   1.511   6.032  0.4365 -1.1738  0.4350
  108MOL   H18721801   0.493   1.433   6.183 -1.2140 -0.6038  0.0157
  108MOL   H18821802   0.339   1.267   6.050  0.2758 -0.0177 -0.6940
  108MOL   H18921803   0.591   1.330   5.880  0.2775  1.2735  1.7307
  108MOL   H19021804   0.446   1.194   5.715  0.4946  0.8652  1.0282
  108MOL   H19121805   0.392   1.096   5.856  0.5305 -1.0524  0.2903
  108MOL   C19221806   0.605   1.078   5.795 -0.3789 -0.3565 -0.4069
  108MOL   C19321807   0.597   0.989   5.671 -0.6779 -0.6966  0.0917
  108MOL   C19421808   0.670   0.879   5.648  0.9978  1.1412 -0.3165
  108MOL   C19521809   0.662   0.802   5.517 -0.1042 -0.4292  0.5036
  108MOL   H19621810   0.685   1.150   5.778 -1.0246  0.3094 -0.6655
  108MOL   H19721811   0.627   1.008   5.875 -0.6531 -1.9113 -1.6694
  108MOL   H19821812   0.525   1.018   5.595 -0.8279 -1.1801  0.0455
  108MOL   H19921813   0.737   0.845   5.725 -0.5111  0.3472  0.6739
  108MOL   H20021814   0.761   0.783   5.476  0.0507  1.6583 -0.1614
  108MOL   H20121815   0.600   0.846   5.439  1.2442 -0.9509 -0.8910
  108MOL   H20221816   0.640   0.698   5.537  1.4638 -0.7119  0.8162
  109MOL     C121817   3.995   1.518   0.772 -0.5585 -0.0280 -0.0922
  109MOL     C221818   4.035   1.374   0.773  0.2543 -0.3203  0.2615
  109MOL     C321819   4.105   1.320   0.871 -0.1560  0.6526 -0.3169
  109MOL     C421820   4.157   1.178   0.877 -0.2072 -0.1004 -0.0587
  109MOL     H521821   4.033   1.579   0.690 -0.7766 -2.9459 -2.4798
  109MOL     H621822   4.039   1.564   0.860 -1.0477 -0.0551  0.1648
  109MOL     H721823   4.015   1.328   0.677  0.9592 -0.5459  0.2131
  109MOL     H821824   4.133   1.384   0.953  0.4146 -1.8683  1.4806
  109MOL     H921825   4.262   1.190   0.906  0.3789 -0.0042 -2.1789
  109MOL    H1021826   4.152   1.136   0.777  1.1082  0.5222 -0.3995
  109MOL    H1121827   3.887   1.511   0.784 -0.3392 -1.1952  1.2947
  109MOL    C1221828   4.080   1.084   0.967 -0.4217 -0.3369 -0.0212
  109MOL    C1321829   4.165   0.986   1.038  0.0655  0.3797 -0.0550
  109MOL    C1421830   4.162   0.962   1.171 -0.4091  0.1582  0.1579
  109MOL    C1521831   4.241   0.859   1.243 -0.1905 -0.8916  0.5544
  109MOL    H1621832   4.010   1.128   1.038  0.1773  0.5042  0.0560
  109MOL    H1721833   4.009   1.031   0.903  0.2747  0.0156 -1.0972
  109MOL    H1821834   4.231   0.929   0.974 -1.0208 -0.4480 -0.4580
  109MOL    H1921835   4.095   1.016   1.236  1.0701  2.0173  0.2138
  109MOL    H2021836   4.303   0.903   1.320  0.8064  0.6696 -1.1131
  109MOL    H2121837   4.299   0.805   1.168  0.8526 -0.1182  0.8118
  109MOL    C2221838   4.148   0.768   1.320  0.5375 -0.7249  0.0283
  109MOL    C2321839   4.225   0.652   1.378 -0.9126  0.1142  0.0081
  109MOL    C2421840   4.217   0.581   1.495 -0.1748 -0.9337  0.1509
  109MOL    C2521841   4.297   0.469   1.552  0.5649  0.3962 -0.0761
  109MOL    H2621842   4.099   0.825   1.399 -0.3231 -0.0475 -0.9917
  109MOL    H2721843   4.071   0.723   1.258  0.8360 -1.5665  0.2503
  109MOL    H2821844   4.299   0.613   1.309 -1.2311 -0.0050 -0.2659
  109MOL    H2921845   4.138   0.616   1.561 -0.1007  1.0292 -0.7623
  109MOL    H3021846   4.373   0.449   1.477  1.9945 -1.7803  1.8770
  109MOL    H3121847   4.236   0.384   1.584 -0.2590  0.2889 -1.8911
  109MOL    C3221848   4.373   0.531   1.663 -0.4189  0.3396  0.2410
  109MOL    C3321849   4.465   0.438   1.727  0.8676 -0.1528 -0.0971
  109MOL    C3421850   4.463   0.384   1.847  0.2105 -0.0365  0.0012
  109MOL    C3521851   4.565   0.286   1.907  0.3137  0.1217 -1.1713
  109MOL    H3621852   4.436   0.603   1.612 -0.3691 -0.5348 -0.9460
  109MOL    H3721853   4.325   0.592   1.740 -2.6297 -1.8838  0.6955
  109MOL    H3821854   4.548   0.407   1.665  0.8123  0.5442 -0.5250
  109MOL    H3921855   4.383   0.411   1.914 -0.6928 -0.4896 -0.8925
  109MOL    H4021856   4.578   0.320   2.009 -0.5317  0.6058 -1.2173
  109MOL    H4121857   4.662   0.290   1.858  0.2464 -1.2065 -1.4258
  109MOL    C4221858   4.516   0.144   1.894  0.8767  0.2660  0.2583
  109MOL    C4321859   4.582   0.049   1.995  0.1525 -0.2532 -0.5794
  109MOL    C4421860   4.528   7.908   2.023  0.5236  0.1591  0.7962
  109MOL    C4521861   4.603   7.823   2.120 -0.1657  0.1294  0.1135
  109MOL    H4621862   4.410   0.144   1.920  1.5437  2.1166  3.2739
  109MOL    H4721863   4.525   0.096   1.797 -0.6512 -0.9797  0.7065
  109MOL    H4821864   4.678   0.077   2.035  0.2422  1.2033 -1.7713
  109MOL    H4921865   4.433   7.878   1.983  1.1063 -3.5090  1.9647
  109MOL    H5021866   4.706   7.854   2.133  0.8734 -3.6186  1.2741
  109MOL    H5121867   4.609   7.719   2.088 -1.0571 -0.2370  1.1125
  109MOL    C5221868   4.551   7.834   2.264  1.1478  0.5147  0.0201
  109MOL    C5321869   4.619   7.748   2.364  0.0494 -0.2302  0.0700
  109MOL    C5421870   4.572   7.631   2.406 -0.5188 -0.1104  0.5594
  109MOL    C5521871   4.641   7.543   2.508 -0.1376 -0.0134 -0.0487
  109MOL    H5621872   4.556   7.931   2.312  0.7591 -0.1165  1.3652
  109MOL    H5721873   4.444   7.811   2.259  1.1229  0.3994  1.0652
  109MOL    H5821874   4.712   7.784   2.405  0.8009 -1.5292 -0.4432
  109MOL    H5921875   4.493   7.584   2.349  1.5463 -1.6484 -1.0859
  109MOL    H6021876   4.730   7.498   2.464  1.0643  1.5903  0.7018
  109MOL    H6121877   4.579   7.462   2.545 -0.8371  0.7204  0.3900
  109MOL    C6221878   4.688   7.627   2.626 -0.0873 -0.3197 -0.3334
  109MOL    C6321879   4.716   7.539   2.747  0.3777 -0.0394  0.5794
  109MOL    C6421880   4.704   7.595   2.864  0.3052 -0.5078 -0.7733
  109MOL    C6521881   4.734   7.525   2.997 -0.6228 -0.3607  0.4101
  109MOL    H6621882   4.781   7.674   2.595 -1.3111  2.1502 -0.3270
  109MOL    H6721883   4.610   7.702   2.636 -0.8456 -1.0682 -0.5505
  109MOL    H6821884   4.746   7.436   2.735  0.1420  0.0896 -1.2221
  109MOL    H6921885   4.659   7.692   2.877 -0.5587 -0.7868 -1.5757
  109MOL    H7021886   4.641   7.530   3.054  0.5627  1.8161  2.2611
  109MOL    H7121887   4.810   7.574   3.058  1.3247 -1.1100 -1.3608
  109MOL    C7221888   4.769   7.376   3.000  0.2806  0.1749  0.6318
  109MOL    C7321889   4.795   7.333   3.140 -0.9387 -0.0346  0.1079
  109MOL    C7421890   4.905   7.268   3.171 -0.0045  0.1618 -0.5936
  109MOL    C7521891   4.929   7.209   3.308 -0.2711 -0.0375 -0.2221
  109MOL    H7621892   4.688   7.313   2.965 -0.9228  0.3001  3.0910
  109MOL    H7721893   4.851   7.358   2.931  0.1258 -2.8240  1.1743
  109MOL    H7821894   4.713   7.339   3.210 -1.0971  2.8960 -0.2561
  109MOL    H7921895   4.979   7.255   3.094 -0.2646 -0.9019 -0.6645
  109MOL    H8021896   4.978   7.116   3.277  0.4168  0.0080  0.7115
  109MOL    H8121897   4.840   7.179   3.365  0.1011 -1.8396 -0.5526
  109MOL    C8221898   5.028   7.297   3.385  0.2177  0.6093  0.1276
  109MOL    C8321899   5.083   7.223   3.506  0.1223  0.4679  0.8732
  109MOL    C8421900   5.212   7.192   3.515  0.3480 -0.0720 -0.0185
  109MOL    C8521901   5.278   7.128   3.641 -0.7241  0.3614 -0.0946
  109MOL    H8621902   5.111   7.331   3.323  0.4706  0.2020  0.2450
  109MOL    H8721903   4.970   7.383   3.418 -2.0757 -1.2752  1.1642
  109MOL    H8821904   5.026   7.183   3.589 -0.5563 -0.9047 -0.2178
  109MOL    H8921905   5.281   7.226   3.440 -0.2672  1.6436  0.1629
  109MOL    H9021906   5.213   7.101   3.724 -0.1956  0.6230  0.4150
  109MOL    H9121907   5.339   7.205   3.688  0.6049  0.2728 -1.6242
  109MOL    C9221908   5.381   7.023   3.596 -0.6196 -0.2443 -0.1120
  109MOL    C9321909   5.454   6.952   3.706  0.3170  0.2065 -0.7807
  109MOL    C9421910   5.578   6.904   3.694  0.4922  0.2411 -0.1445
  109MOL    C9521911   5.640   6.815   3.803  0.0815 -0.6058  0.5960
  109MOL    H9621912   5.343   6.944   3.532 -3.5238  0.2435  0.9228
  109MOL    H9721913   5.461   7.077   3.545  0.3528 -0.5348  1.0817
  109MOL    H9821914   5.397   6.938   3.797  0.7455  0.3412 -0.4924
  109MOL    H9921915   5.631   6.931   3.604  0.9090  0.0811  0.0548
  109MOL   H10021916   5.619   6.712   3.774 -2.0583  0.1988 -0.9028
  109MOL   H10121917   5.585   6.830   3.895  1.5963  0.5961  1.3251
  109MOL   C10221918   5.794   6.836   3.827  0.2217  0.3666  0.1827
  109MOL   C10321919   5.853   6.761   3.933  0.0027  0.6964  0.0580
  109MOL   C10421920   5.785   6.679   4.021  0.1964  0.4377  0.1756
  109MOL   C10521921   5.860   6.605   4.134 -0.0517 -0.3749  0.0474
  109MOL   H10621922   5.851   6.825   3.734 -0.1327  1.7045 -0.1966
  109MOL   H10721923   5.802   6.943   3.843 -1.1785  0.6104 -0.6722
  109MOL   H10821924   5.959   6.779   3.942  0.5089 -2.0758  0.2151
  109MOL   H10921925   5.677   6.677   4.012  0.0390 -2.3005  2.3099
  109MOL   H11021926   5.968   6.621   4.132  0.0736 -1.1756  0.0244
  109MOL   H11121927   5.851   6.502   4.101  0.8815 -0.2076 -0.7621
  109MOL   C11221928   5.805   6.630   4.279  0.1381  0.7779  0.6635
  109MOL   C11321929   5.661   6.598   4.302 -0.1384  0.2517 -0.3000
  109MOL   C11421930   5.570   6.693   4.324  0.4134  0.0818  0.0993
  109MOL   C11521931   5.425   6.659   4.343 -0.1814  0.3306 -0.2649
  109MOL   H11621932   5.868   6.582   4.354  0.9117  2.1745  0.9288
  109MOL   H11721933   5.817   6.738   4.291 -1.6428  1.2600 -1.7098
  109MOL   H11821934   5.625   6.497   4.291 -0.0139  0.2874 -1.0833
  109MOL   H11921935   5.597   6.798   4.326  0.7871 -0.0117  0.0604
  109MOL   H12021936   5.416   6.552   4.323 -2.1054  0.8477 -2.3956
  109MOL   H12121937   5.372   6.699   4.257 -2.9958 -2.3896  0.1307
  109MOL   C12221938   5.377   6.716   4.475  0.2949 -0.1093  0.2600
  109MOL   C12321939   5.237   6.673   4.498 -0.3155  0.1443  0.5197
  109MOL   C12421940   5.191   6.646   4.621 -0.3734 -0.1327  0.0376
  109MOL   C12521941   5.054   6.601   4.658  0.6969  0.4162  0.2077
  109MOL   H12621942   5.451   6.685   4.549  0.0551 -0.8959  0.1750
  109MOL   H12721943   5.379   6.824   4.472  2.8622 -0.1185 -0.0757
  109MOL   H12821944   5.168   6.672   4.415  0.7933  0.2480 -0.4202
  109MOL   H12921945   5.251   6.658   4.711  0.0027 -2.1218  0.0657
  109MOL   H13021946   4.995   6.587   4.567 -0.8555  2.4357  0.8762
  109MOL   H13121947   4.987   6.674   4.703 -0.1290 -0.8085  0.9926
  109MOL   C13221948   5.053   6.477   4.746 -0.7334  0.2949  0.2057
  109MOL   C13321949   5.091   6.511   4.885 -0.1820  0.2938 -0.1577
  109MOL   C13421950   5.179   6.441   4.960  0.2111 -0.2058 -0.3637
  109MOL   C13521951   5.231   6.480   5.099 -0.2070  0.3379  0.0370
  109MOL   H13621952   4.952   6.437   4.748 -1.3732  1.7527 -1.5027
  109MOL   H13721953   5.130   6.407   4.711  0.6910  2.1090 -0.3602
  109MOL   H13821954   5.064   6.607   4.927 -0.8049  0.7339 -1.5399
  109MOL   H13921955   5.222   6.355   4.913 -1.5017 -0.3099 -1.8288
  109MOL   H14021956   5.180   6.429   5.180 -1.6941  1.0331 -0.4406
  109MOL   H14121957   5.230   6.589   5.110  2.3455  0.3492  0.5010
  109MOL   C14221958   5.383   6.456   5.112 -0.0734  0.1631 -0.3535
  109MOL   C14321959   5.446   6.488   5.244 -0.2244  0.8410 -0.1138
  109MOL   C14421960   5.569   6.548   5.262  0.3028  0.3369  0.2290
  109MOL   C14521961   5.623   6.580   5.398 -0.0758  0.1851 -0.3882
  109MOL   H14621962   5.389   6.348   5.098  1.0448  0.2927 -0.9239
  109MOL   H14721963   5.442   6.496   5.030  1.2135 -0.0513  0.4575
  109MOL   H14821964   5.386   6.438   5.319 -2.3941  2.5225 -0.6682
  109MOL   H14921965   5.612   6.596   5.175 -1.9989  0.0799 -1.1109
  109MOL   H15021966   5.729   6.557   5.407 -0.3973 -0.7187  1.1854
  109MOL   H15121967   5.565   6.515   5.462  0.9809 -0.6702 -0.2833
  109MOL   C15221968   5.615   6.732   5.428 -0.2028 -0.0448  0.5039
  109MOL   C15321969   5.732   6.817   5.369 -0.3800  0.0058 -0.8635
  109MOL   C15421970   5.714   6.934   5.308  0.1183  0.5522 -0.3714
  109MOL   C15521971   5.826   7.013   5.248  0.4370 -0.4803 -0.1582
  109MOL   H15621972   5.518   6.759   5.387  0.3852  1.4675  0.0669
  109MOL   H15721973   5.612   6.739   5.536  4.8633 -2.4131  0.9683
  109MOL   H15821974   5.834   6.785   5.389 -0.6611 -0.8666 -0.8278
  109MOL   H15921975   5.615   6.973   5.290  0.4887  2.0908  0.8446
  109MOL   H16021976   5.917   6.955   5.259 -0.1143 -1.1281  1.0225
  109MOL   H16121977   5.838   7.107   5.302 -2.3655 -1.1337  1.7392
  109MOL   C16221978   5.809   7.039   5.094  0.3555 -0.2849 -0.1230
  109MOL   C16321979   5.907   7.130   5.034  0.2370 -0.6873 -0.1465
  109MOL   C16421980   5.888   7.226   4.943  0.1931  0.3234  0.1000
  109MOL   C16521981   5.998   7.310   4.888 -0.0578 -0.2598  0.2273
  109MOL   H16621982   5.806   6.945   5.040 -1.1513  0.2871 -1.0695
  109MOL   H16721983   5.712   7.089   5.084  0.2358 -0.1698  1.3825
  109MOL   H16821984   6.006   7.114   5.073 -0.0541  0.1324  0.9548
  109MOL   H16921985   5.792   7.236   4.896 -0.1000 -0.1140  0.6097
  109MOL   H17021986   5.963   7.331   4.787 -0.3903 -0.0645  0.3854
  109MOL   H17121987   6.086   7.247   4.874  0.0581  0.1279 -0.8760
  109MOL   C17221988   6.037   7.435   4.968 -0.3675 -0.0161 -0.6070
  109MOL   C17321989   6.152   7.513   4.914 -0.6030  0.6448  0.5227
  109MOL   C17421990   6.146   7.642   4.880 -0.5775  0.4433  0.2978
  109MOL   C17521991   6.259   7.719   4.825 -0.3447  0.5293 -0.5309
  109MOL   H17621992   5.954   7.505   4.965 -2.3416 -2.3431 -2.4265
  109MOL   H17721993   6.033   7.417   5.075 -1.4734 -0.9021 -0.7892
  109MOL   H17821994   6.244   7.459   4.896 -0.1585  1.5318  0.0785
  109MOL   H17921995   6.057   7.697   4.909 -0.7172  0.4375 -0.1139
  109MOL   H18021996   6.254   7.721   4.716  2.1017  1.1260 -0.6601
  109MOL   H18121997   6.357   7.682   4.853 -2.0105 -3.3441  0.5710
  109MOL   C18221998   6.253   7.866   4.879 -0.1989 -1.0254 -0.4603
  109MOL   C18321999   6.384   7.944   4.864 -0.5968  0.4132  0.3879
  109MOL   C18422000   6.432   0.038   4.965 -0.0480  0.7017 -0.8516
  109MOL   C18522001   6.559   0.125   4.964  0.2744 -0.2649 -0.4336
  109MOL   H18622002   6.162   7.915   4.843 -1.1295 -1.5575  1.1046
  109MOL   H18722003   6.227   7.872   4.985 -1.0475 -3.1116 -0.5338
  109MOL   H18822004   6.438   7.939   4.771 -1.6357 -1.2536 -0.1348
  109MOL   H18922005   6.385   0.054   5.061  1.3388  1.4456 -0.2664
  109MOL   H19022006   6.625   0.081   4.889 -0.4177 -1.1433 -0.5353
  109MOL   H19122007   6.600   0.095   5.060 -0.3567  0.4265  0.0670
  109MOL   C19222008   6.534   0.282   4.957 -0.3379 -0.6279 -0.5023
  109MOL   C19322009   6.429   0.304   4.855 -0.2198  0.4657  0.1570
  109MOL   C19422010   6.448   0.373   4.743  0.3927  0.0255 -0.4515
  109MOL   C19522011   6.342   0.398   4.643  0.0300  0.0897 -0.0919
  109MOL   H19622012   6.513   0.306   5.061 -0.6521 -0.6895 -0.5525
  109MOL   H19722013   6.627   0.336   4.938 -0.5465  0.6493  1.9098
  109MOL   H19822014   6.333   0.263   4.883  1.8657 -3.9743  1.3208
  109MOL   H19922015   6.542   0.415   4.712  0.1710 -0.2905 -1.5869
  109MOL   H20022016   6.295   0.496   4.640  0.3818  0.2381 -2.5147
  109MOL   H20122017   6.255   0.332   4.642  0.4563 -0.4881  0.8966
  109MOL   H20222018   6.390   0.385   4.545 -1.7077  1.4856 -1.1648
  110MOL     C122019   7.486   3.253   2.864  0.1293 -0.1470 -0.0061
  110MOL     C222020   7.396   3.353   2.937 -0.8828 -0.0614  0.1012
  110MOL     C322021   7.431   3.443   3.027  0.2769 -0.0630 -0.4741
  110MOL     C422022   7.330   3.541   3.074 -0.1750 -0.0166 -0.4862
  110MOL     H522023   7.470   3.262   2.756  0.0458  1.9505  0.1653
  110MOL     H622024   7.474   3.147   2.885 -0.8225  0.0909  0.6723
  110MOL     H722025   7.296   3.350   2.898  0.0566 -0.2941 -2.4603
  110MOL     H822026   7.532   3.452   3.065  0.0524 -0.3318  0.1873
  110MOL     H922027   7.226   3.516   3.052 -0.4989  0.9745 -0.1236
  110MOL    H1022028   7.339   3.643   3.035  0.3978  0.3519  0.6002
  110MOL    H1122029   7.589   3.273   2.893  0.5193  0.3851 -1.6785
  110MOL    C1222030   7.340   3.557   3.234  0.5119 -0.2714 -0.2380
  110MOL    C1322031   7.241   3.674   3.276  0.1315  0.6959  0.4218
  110MOL    C1422032   7.283   3.784   3.336 -0.4686 -0.1425  0.1901
  110MOL    C1522033   7.189   3.888   3.379  0.0782 -0.5097 -0.0125
  110MOL    H1622034   7.321   3.460   3.281  1.5932 -0.4021 -0.0439
  110MOL    H1722035   7.441   3.587   3.262  0.4829 -0.6150  0.2410
  110MOL    H1822036   7.134   3.670   3.260  0.2725  0.2765 -0.4201
  110MOL    H1922037   7.383   3.809   3.370 -1.2335  1.0335  1.6273
  110MOL    H2022038   7.085   3.878   3.345 -1.1056  2.0741  2.6918
  110MOL    H2122039   7.226   3.974   3.324  1.5483  0.3348  2.2295
  110MOL    C2222040   7.183   3.910   3.529  0.1184 -0.0206  0.6309
  110MOL    C2322041   7.079   4.013   3.577 -0.0623 -0.0833  0.1480
  110MOL    C2422042   7.013   4.093   3.489 -0.2683  0.5976 -0.0124
  110MOL    C2522043   6.915   4.196   3.527 -0.0611  0.0441 -0.4102
  110MOL    H2622044   7.140   3.819   3.570  1.2895 -0.7789  0.1833
  110MOL    H2722045   7.286   3.926   3.561  0.2093 -2.0339  1.4086
  110MOL    H2822046   7.059   4.012   3.683 -2.3241 -0.1442 -0.2617
  110MOL    H2922047   7.036   4.094   3.383  2.7266  0.3920  0.6000
  110MOL    H3022048   6.952   4.292   3.492  0.8451  0.7850  2.3962
  110MOL    H3122049   6.910   4.194   3.636 -1.4195  1.3882 -0.4399
  110MOL    C3222050   6.772   4.159   3.484 -0.1079  0.2544  0.5742
  110MOL    C3322051   6.672   4.226   3.569 -0.4122 -0.2615 -0.3826
  110MOL    C3422052   6.574   4.166   3.642 -0.1565 -0.0296  0.7459
  110MOL    C3522053   6.476   4.253   3.723 -0.6639 -0.5250 -0.0317
  110MOL    H3622054   6.759   4.195   3.383  2.5781 -1.5620 -0.4813
  110MOL    H3722055   6.758   4.050   3.487  1.8061  0.0003  0.7441
  110MOL    H3822056   6.679   4.332   3.587  0.1788  0.2306 -3.2974
  110MOL    H3922057   6.565   4.059   3.642 -0.3324 -0.0291 -0.7767
  110MOL    H4022058   6.378   4.248   3.677 -0.3468 -1.1483 -0.6511
  110MOL    H4122059   6.494   4.360   3.713 -1.7757 -0.4103 -0.9064
  110MOL    C4222060   6.464   4.212   3.868  0.6721  0.0573  0.3567
  110MOL    C4322061   6.379   4.312   3.949 -0.2630  0.2313 -0.0501
  110MOL    C4422062   6.243   4.298   3.951 -1.2133  0.3040 -0.1845
  110MOL    C4522063   6.145   4.405   4.003  0.7725 -0.3284  0.6376
  110MOL    H4622064   6.409   4.118   3.876 -0.8230  0.9319  0.4760
  110MOL    H4722065   6.558   4.213   3.924  0.8646  1.3444  0.0307
  110MOL    H4822066   6.427   4.402   3.982  2.2275 -0.4363 -1.7139
  110MOL    H4922067   6.196   4.205   3.925  1.4147 -0.7276 -1.4224
  110MOL    H5022068   6.052   4.404   3.946  1.0028 -0.1311  0.2544
  110MOL    H5122069   6.191   4.500   3.977 -0.9063  0.6168  1.0714
  110MOL    C5222070   6.121   4.383   4.155  0.0877  0.1253  0.1175
  110MOL    C5322071   5.996   4.464   4.201  0.2174  0.4941  1.1017
  110MOL    C5422072   6.004   4.575   4.280  1.2406  0.9652  0.0856
  110MOL    C5522073   5.887   4.641   4.345  0.1447 -0.8366  0.2807
  110MOL    H5622074   6.092   4.280   4.179 -1.1978  0.1648 -1.1819
  110MOL    H5722075   6.208   4.409   4.214  0.8227 -0.2489 -0.7791
  110MOL    H5822076   5.903   4.418   4.170  1.4403 -0.3974 -1.3427
  110MOL    H5922077   6.103   4.614   4.299  0.6395  2.9714 -0.8177
  110MOL    H6022078   5.917   4.693   4.436 -1.2935  1.7762 -0.6758
  110MOL    H6122079   5.815   4.565   4.374  0.2049 -1.2196 -0.5553
  110MOL    C6222080   5.828   4.751   4.260  0.2459 -0.9032 -0.3390
  110MOL    C6322081   5.716   4.824   4.327  0.5873 -0.0410  0.0774
  110MOL    C6422082   5.704   4.958   4.333 -0.3746  0.4921 -0.0099
  110MOL    C6522083   5.596   5.031   4.404 -0.8184 -0.0966 -0.7458
  110MOL    H6622084   5.907   4.819   4.229  0.4539 -1.0676 -0.1709
  110MOL    H6722085   5.797   4.715   4.162 -1.6091  1.7808 -0.7905
  110MOL    H6822086   5.636   4.762   4.365 -0.2685  1.4146  0.6717
  110MOL    H6922087   5.774   5.021   4.280 -0.9604 -0.1438 -1.5817
  110MOL    H7022088   5.522   5.049   4.326 -0.3653 -1.3719 -1.4959
  110MOL    H7122089   5.638   5.127   4.431  1.0792 -1.1372  0.0983
  110MOL    C7222090   5.520   4.959   4.519  0.1065 -0.1483 -0.5354
  110MOL    C7322091   5.385   5.021   4.544  0.3022  0.4796 -0.1763
  110MOL    C7422092   5.355   5.091   4.655 -0.5361  0.2062  0.9853
  110MOL    C7522093   5.215   5.152   4.693 -0.3792  0.7822  0.0865
  110MOL    H7622094   5.493   4.857   4.490  0.4398 -0.8561  1.5329
  110MOL    H7722095   5.589   4.967   4.603  0.3018  2.1256 -0.8687
  110MOL    H7822096   5.304   4.998   4.476  1.1010 -0.0516 -0.9688
  110MOL    H7922097   5.430   5.108   4.731  0.1595  0.3427  0.2723
  110MOL    H8022098   5.136   5.130   4.621 -0.1538  1.4585 -0.3720
  110MOL    H8122099   5.226   5.260   4.688  0.3507  0.6899 -0.3067
  110MOL    C8222100   5.176   5.128   4.841 -0.3066  0.0826  0.3832
  110MOL    C8322101   5.039   5.175   4.872  0.4308  0.2639  0.6352
  110MOL    C8422102   5.019   5.271   4.968 -0.1556 -0.0568 -0.2559
  110MOL    C8522103   4.881   5.325   5.004  0.1118  0.1621 -0.1071
  110MOL    H8622104   5.189   5.025   4.874  1.7911  0.4603  0.7626
  110MOL    H8722105   5.243   5.183   4.908 -0.1547  0.8089 -0.3488
  110MOL    H8822106   4.958   5.133   4.815 -0.3530  1.7917  0.6021
  110MOL    H8922107   5.107   5.311   5.016  0.3846 -0.7037 -0.7059
  110MOL    H9022108   4.887   5.318   5.112  3.0936 -0.5722 -0.2897
  110MOL    H9122109   4.808   5.252   4.969  0.6551 -0.8523  0.8617
  110MOL    C9222110   4.851   5.469   4.949  0.2509  0.1925 -0.1591
  110MOL    C9322111   4.901   5.584   5.039 -0.2062  0.1516 -0.0134
  110MOL    C9422112   4.824   5.680   5.090 -0.1037 -0.0855 -0.6814
  110MOL    C9522113   4.864   5.798   5.186 -0.5280  0.4095  0.4511
  110MOL    H9622114   4.905   5.470   4.854 -0.5365  0.0321 -0.6071
  110MOL    H9722115   4.744   5.485   4.935  0.1420  2.3026  2.6633
  110MOL    H9822116   5.006   5.574   5.062  0.0427  0.6433 -0.9047
  110MOL    H9922117   4.718   5.668   5.071 -0.5842  2.3917  0.1545
  110MOL   H10022118   4.967   5.782   5.218 -0.4036 -0.6853 -0.4329
  110MOL   H10122119   4.793   5.792   5.268  0.3905  0.1115  1.2326
  110MOL   C10222120   4.834   5.938   5.135 -0.5054 -0.2105  0.1550
  110MOL   C10322121   4.893   6.043   5.225 -0.0150  0.0200  0.0807
  110MOL   C10422122   4.822   6.141   5.274  0.3325 -0.2139 -0.4675
  110MOL   C10522123   4.876   6.242   5.372 -0.0495  0.8006 -0.3534
  110MOL   H10622124   4.877   5.967   5.039  0.4702 -0.7378  0.4215
  110MOL   H10722125   4.728   5.957   5.122 -0.6266 -1.0704 -0.1341
  110MOL   H10822126   4.996   6.030   5.256  1.0007 -0.8260 -3.4098
  110MOL   H10922127   4.717   6.151   5.252  0.7664 -0.6865 -2.9064
  110MOL   H11022128   4.979   6.218   5.397 -0.1128  1.2304  0.3285
  110MOL   H11122129   4.832   6.240   5.472  0.2437 -2.0751 -0.2568
  110MOL   C11222130   4.850   6.383   5.321  0.0432 -0.1846 -0.1506
  110MOL   C11322131   4.906   6.476   5.429  0.1784  0.3578 -0.4741
  110MOL   C11422132   5.001   6.572   5.411 -0.5390 -0.0229 -0.2951
  110MOL   C11522133   5.049   6.663   5.520 -0.2275 -0.5456  0.0695
  110MOL   H11622134   4.901   6.405   5.227  2.3930 -0.8373  0.9325
  110MOL   H11722135   4.744   6.406   5.310  0.1943  0.1023 -1.0743
  110MOL   H11822136   4.863   6.457   5.526 -3.5274 -0.6102 -2.1742
  110MOL   H11922137   5.043   6.596   5.315 -0.8619  2.1002  0.0736
  110MOL   H12022138   4.986   6.639   5.605 -1.4139  0.5457 -0.4807
  110MOL   H12122139   5.025   6.769   5.514 -0.5099 -0.6767 -1.5238
  110MOL   C12222140   5.193   6.640   5.565  0.2993 -0.3719 -0.1018
  110MOL   C12322141   5.231   6.496   5.576  0.2195  0.2965 -0.1107
  110MOL   C12422142   5.252   6.434   5.692  0.6970 -0.1841 -1.1433
  110MOL   C12522143   5.271   6.289   5.702 -0.1614 -0.3583  0.5668
  110MOL   H12622144   5.267   6.682   5.496  1.1096 -0.7535  0.5317
  110MOL   H12722145   5.213   6.697   5.655 -2.0374  0.6893 -0.2244
  110MOL   H12822146   5.233   6.428   5.493 -1.1825  0.0688  0.0400
  110MOL   H12922147   5.251   6.497   5.780  0.4650 -1.4625 -0.2352
  110MOL   H13022148   5.211   6.250   5.619  0.9739  1.2482 -1.0387
  110MOL   H13122149   5.226   6.252   5.794 -2.0243  2.5544  0.8994
  110MOL   C13222150   5.420   6.238   5.697  0.0385 -1.2275  0.3033
  110MOL   C13322151   5.422   6.100   5.638  0.8144 -1.0161  0.0475
  110MOL   C13422152   5.510   6.058   5.550 -0.2292 -0.6015  0.3527
  110MOL   C13522153   5.502   5.918   5.489 -0.2585 -0.3953  0.0487
  110MOL   H13622154   5.478   6.312   5.643 -1.4171 -0.3290 -0.0595
  110MOL   H13722155   5.463   6.230   5.797  0.5623 -1.7351  0.0379
  110MOL   H13822156   5.337   6.047   5.678  1.0706 -1.1567  0.4109
  110MOL   H13922157   5.578   6.132   5.513  0.5493 -1.2395  0.4941
  110MOL   H14022158   5.444   5.920   5.396 -1.2087 -0.8979  0.6220
  110MOL   H14122159   5.458   5.850   5.561  0.0484  0.2508  0.8533
  110MOL   C14222160   5.639   5.845   5.490 -0.2193  0.4481 -0.2980
  110MOL   C14322161   5.627   5.699   5.431  1.0177  0.2752 -0.2561
  110MOL   C14422162   5.631   5.581   5.501  0.2277 -0.0194  0.4269
  110MOL   C14522163   5.621   5.439   5.444 -0.1166 -1.1207  0.0575
  110MOL   H14622164   5.706   5.895   5.420 -0.1021  1.7390  0.7235
  110MOL   H14722165   5.689   5.846   5.586  0.2329 -1.6954 -0.4947
  110MOL   H14822166   5.615   5.706   5.324 -0.3367  0.1801 -0.1219
  110MOL   H14922167   5.660   5.575   5.605  2.1782  2.9544  0.1181
  110MOL   H15022168   5.553   5.447   5.359  0.4090 -0.9517 -0.3440
  110MOL   H15122169   5.573   5.374   5.517  1.2286 -2.2320 -0.0361
  110MOL   C15222170   5.764   5.394   5.399 -0.4392 -0.6363 -0.5317
  110MOL   C15322171   5.805   5.460   5.265  0.4053 -0.1878  0.9999
  110MOL   C15422172   5.841   5.386   5.162 -0.2425  0.1771  0.7592
  110MOL   C15522173   5.874   5.425   5.017  0.1224  0.4016 -0.1729
  110MOL   H15622174   5.841   5.417   5.473  2.2348 -1.3583 -2.9912
  110MOL   H15722175   5.776   5.286   5.407  0.8639 -0.4368  0.5824
  110MOL   H15822176   5.811   5.568   5.268 -1.0736 -0.0874  0.5175
  110MOL   H15922177   5.838   5.278   5.170 -1.2623  0.1113 -0.3551
  110MOL   H16022178   5.833   5.526   5.005  0.1987  0.1964 -2.3704
  110MOL   H16122179   5.818   5.351   4.960  0.9731 -1.6272  1.5991
  110MOL   C16222180   6.017   5.412   4.977 -0.1354  0.3244 -0.3248
  110MOL   C16322181   6.075   5.284   5.024  0.2248  0.4331  0.5234
  110MOL   C16422182   6.185   5.261   5.092  0.0910  0.2426  0.3925
  110MOL   C16522183   6.223   5.113   5.117 -0.2507  0.5157  0.1550
  110MOL   H16622184   6.018   5.417   4.868  1.1507  1.3749 -0.2814
  110MOL   H16722185   6.079   5.497   5.006 -1.7436  0.7017  2.2308
  110MOL   H16822186   6.020   5.207   4.971  0.5979  0.5038  0.0331
  110MOL   H16922187   6.249   5.339   5.130 -0.4059  1.0491 -0.4219
  110MOL   H17022188   6.142   5.041   5.101  2.0661 -1.3857 -3.7151
  110MOL   H17122189   6.252   5.104   5.221  1.8520  1.7445 -0.2958
  110MOL   C17222190   6.324   5.070   5.006  0.1661 -0.1457  0.3521
  110MOL   C17322191   6.451   5.156   5.009 -0.9677  0.5825  0.2694
  110MOL   C17422192   6.573   5.104   5.019  0.6173 -0.8551  0.1268
  110MOL   C17522193   6.697   5.187   4.990  0.0426  0.3535  0.0310
  110MOL   H17622194   6.352   4.964   5.002  2.5429  0.5180 -2.8879
  110MOL   H17722195   6.272   5.086   4.912 -0.8200 -1.2004  0.7054
  110MOL   H17822196   6.427   5.259   4.987 -0.9235  0.4158 -0.5887
  110MOL   H17922197   6.599   5.002   5.042  1.1732 -1.0293 -1.2079
  110MOL   H18022198   6.772   5.189   5.069 -1.8974 -0.1045  1.9406
  110MOL   H18122199   6.675   5.292   4.971 -1.7823  0.1177  0.7090
  110MOL   C18222200   6.762   5.126   4.869  0.4314 -0.0290 -0.3790
  110MOL   C18322201   6.888   5.190   4.822 -0.0156  0.1090  0.4665
  110MOL   C18422202   6.912   5.220   4.692 -0.7939 -0.2026  0.1083
  110MOL   C18522203   7.039   5.298   4.658 -0.2597 -0.8354  0.3611
  110MOL   H18622204   6.787   5.023   4.897 -1.0712  0.2015  2.0038
  110MOL   H18722205   6.692   5.125   4.785 -2.2016 -0.5141  1.7459
  110MOL   H18822206   6.971   5.202   4.891  0.2885 -0.6827  0.2474
  110MOL   H18922207   6.835   5.200   4.619 -0.6067  1.5574 -0.5878
  110MOL   H19022208   7.092   5.238   4.585  0.3463  1.0255 -0.7537
  110MOL   H19122209   7.108   5.315   4.741 -0.7687  0.9620  0.4486
  110MOL   C19222210   7.018   5.435   4.605 -0.2270  0.4332  0.4972
  110MOL   C19322211   7.144   5.516   4.569 -0.9765 -0.3134 -0.5006
  110MOL   C19422212   7.196   5.541   4.446 -0.2146  0.3909  0.0333
  110MOL   C19522213   7.323   5.610   4.416 -0.4091  0.3610  0.0994
  110MOL   H19622214   6.949   5.422   4.522  1.0552  1.3607 -0.7594
  110MOL   H19722215   6.954   5.496   4.669 -0.2286 -0.6828  1.5703
  110MOL   H19822216   7.202   5.541   4.656  1.8286 -0.5662 -2.2247
  110MOL   H19922217   7.132   5.522   4.361  0.1151 -1.5205  0.1929
  110MOL   H20022218   7.305   5.702   4.359 -1.3853 -0.5253 -1.0280
  110MOL   H20122219   7.379   5.553   4.342 -0.9337 -2.0640  1.5335
  110MOL   H20222220   7.381   5.633   4.506  1.4653  0.7502 -1.1647
  111MOL     C122221   0.384   2.637   5.356  0.0764  0.4657 -0.3135
  111MOL     C222222   0.475   2.517   5.334 -0.0325 -0.0787  0.5155
  111MOL     C322223   0.593   2.501   5.405  0.8822  0.2370  0.3500
  111MOL     C422224   0.697   2.395   5.396  0.1172 -0.5642 -0.9286
  111MOL     H522225   0.281   2.601   5.354  0.6976 -1.2870 -1.5954
  111MOL     H622226   0.402   2.707   5.274  0.4298 -0.0583 -0.6821
  111MOL     H722227   0.439   2.437   5.271 -0.5018  0.7472 -0.2829
  111MOL     H822228   0.610   2.580   5.476 -0.8537 -0.2750  1.3469
  111MOL     H922229   0.799   2.435   5.396 -0.7196  1.6489 -0.6856
  111MOL    H1022230   0.700   2.347   5.298  0.8798 -0.2261 -1.0779
  111MOL    H1122231   0.410   2.671   5.456  0.1485 -2.3362  0.6506
  111MOL    C1222232   0.669   2.272   5.497  0.1771  0.0614 -0.8491
  111MOL    C1322233   0.786   2.163   5.501  0.0465 -0.2461  1.2271
  111MOL    C1422234   0.777   2.023   5.491 -0.2212 -0.2422 -0.0852
  111MOL    C1522235   0.904   1.945   5.459  0.4338  0.9765  0.4812
  111MOL    H1622236   0.645   2.318   5.593 -0.2819 -2.7882  0.4303
  111MOL    H1722237   0.581   2.217   5.463 -1.0856  0.4516  1.6829
  111MOL    H1822238   0.885   2.207   5.496  0.4932 -1.4220 -0.8981
  111MOL    H1922239   0.685   1.970   5.509  0.3643 -0.3098  2.9556
  111MOL    H2022240   0.936   1.898   5.551 -0.6659 -0.7336  0.0016
  111MOL    H2122241   0.984   2.011   5.426 -0.4256  0.1243 -3.6907
  111MOL    C2222242   0.877   1.838   5.353 -0.0629  0.0586  0.5194
  111MOL    C2322243   1.006   1.765   5.311  0.5002 -0.0739  0.9173
  111MOL    C2422244   1.026   1.631   5.337 -0.0816  0.3855 -0.2704
  111MOL    C2522245   1.153   1.554   5.287 -0.0013 -0.7092 -0.4493
  111MOL    H2622246   0.803   1.766   5.388  0.2928  0.1587  1.4771
  111MOL    H2722247   0.832   1.885   5.265  0.1178  0.0885  0.4433
  111MOL    H2822248   1.073   1.824   5.249 -3.0670  0.5416 -2.5670
  111MOL    H2922249   0.945   1.582   5.388 -1.3231  1.9158 -0.7478
  111MOL    H3022250   1.209   1.523   5.375  0.0754  0.1004 -0.2153
  111MOL    H3122251   1.221   1.626   5.241 -1.6278  1.8352  1.0049
  111MOL    C3222252   1.123   1.447   5.187  0.2195  0.0258  0.9793
  111MOL    C3322253   1.248   1.377   5.142 -0.2201  0.4167 -0.2028
  111MOL    C3422254   1.267   1.242   5.146 -0.4347 -0.9763 -0.9056
  111MOL    C3522255   1.401   1.177   5.110 -0.6875 -0.0084 -0.2966
  111MOL    H3622256   1.052   1.379   5.233  0.8958 -2.4771 -1.5416
  111MOL    H3722257   1.067   1.489   5.104 -1.9001 -2.4252  1.0983
  111MOL    H3822258   1.327   1.437   5.100  0.2797 -0.7940 -1.0338
  111MOL    H3922259   1.188   1.182   5.188 -1.0096  0.7370  0.5704
  111MOL    H4022260   1.432   1.129   5.203 -2.4990 -0.9682 -0.1478
  111MOL    H4122261   1.479   1.249   5.089 -0.6815  0.5385  1.5061
  111MOL    C4222262   1.388   1.074   4.995  0.9314 -0.8811 -0.6600
  111MOL    C4322263   1.377   1.139   4.860  0.0975 -0.5893  0.2813
  111MOL    C4422264   1.464   1.106   4.763 -1.0474  0.1644  0.8131
  111MOL    C4522265   1.474   1.165   4.620 -0.2876 -0.8584  0.7297
  111MOL    H4622266   1.475   1.011   5.015 -1.1368 -3.4725  0.4889
  111MOL    H4722267   1.296   1.017   5.011  0.4655 -0.1756 -0.7911
  111MOL    H4822268   1.302   1.216   4.848  1.8607  0.9137 -1.3694
  111MOL    H4922269   1.535   1.028   4.787  1.3633  2.2651  0.7421
  111MOL    H5022270   1.568   1.218   4.613 -1.2337  0.9388  1.3960
  111MOL    H5122271   1.393   1.234   4.596  0.0323 -0.1193  1.7840
  111MOL    C5222272   1.484   1.056   4.518  0.0897 -0.1423  0.4673
  111MOL    C5322273   1.495   1.129   4.385  0.1162 -0.1201  0.0345
  111MOL    C5422274   1.404   1.123   4.286 -0.7829 -0.2832  0.4838
  111MOL    C5522275   1.422   1.180   4.143 -0.3013  0.2127  0.3876
  111MOL    H5622276   1.563   0.982   4.527  0.3434 -0.2355 -2.1864
  111MOL    H5722277   1.386   1.009   4.508  0.4860 -1.1825  1.4313
  111MOL    H5822278   1.589   1.173   4.355 -0.9349  0.4308 -2.5821
  111MOL    H5922279   1.312   1.073   4.311 -1.3109  1.3967  1.9107
  111MOL    H6022280   1.523   1.220   4.141  0.2042 -1.0875 -0.4044
  111MOL    H6122281   1.353   1.265   4.138  0.6676  0.9427 -0.9689
  111MOL    C6222282   1.417   1.071   4.034 -0.5727  0.0523 -0.3500
  111MOL    C6322283   1.371   1.139   3.905 -0.9166 -0.3348  0.1828
  111MOL    C6422284   1.269   1.090   3.829 -0.0538  0.1701 -0.1944
  111MOL    C6522285   1.231   1.162   3.703  0.0006  0.0648  0.1974
  111MOL    H6622286   1.518   1.033   4.028 -0.0063  1.3525  0.6339
  111MOL    H6722287   1.351   0.994   4.075  2.2452 -1.9995  0.4477
  111MOL    H6822288   1.437   1.221   3.881 -2.9549  1.1097 -0.6038
  111MOL    H6922289   1.216   1.006   3.872  2.1769 -1.9059 -1.3943
  111MOL    H7022290   1.198   1.082   3.637  1.5326 -0.4070 -0.0183
  111MOL    H7122291   1.318   1.219   3.667 -1.1724  0.9881 -1.2392
  111MOL    C7222292   1.130   1.273   3.715  0.3731 -0.5915 -0.3364
  111MOL    C7322293   1.112   1.363   3.594  0.8548 -0.3097 -0.2195
  111MOL    C7422294   1.119   1.503   3.603 -0.3075  0.8137 -0.8124
  111MOL    C7522295   1.099   1.593   3.493  0.6900  0.1172  0.4065
  111MOL    H7622296   1.036   1.249   3.766  0.6439 -0.8750  0.0338
  111MOL    H7722297   1.169   1.329   3.800 -0.8267 -0.6589  0.2731
  111MOL    H7822298   1.078   1.306   3.509 -0.2938 -0.3689  0.2692
  111MOL    H7922299   1.149   1.561   3.689  0.4263 -1.1360  0.2785
  111MOL    H8022300   1.114   1.543   3.398 -1.0279  0.0407  0.1652
  111MOL    H8122301   1.173   1.673   3.494 -0.6957  1.4624 -1.6782
  111MOL    C8222302   0.955   1.648   3.496 -0.1266  0.4145 -1.0874
  111MOL    C8322303   0.914   1.740   3.381  0.2129 -0.6296  0.3019
  111MOL    C8422304   0.850   1.699   3.267 -0.4368 -0.6078  0.1401
  111MOL    C8522305   0.833   1.794   3.154  0.0799 -0.4577  0.0800
  111MOL    H8622306   0.890   1.561   3.499  0.0606  0.2459 -1.7544
  111MOL    H8722307   0.927   1.694   3.590 -1.8694 -1.5352 -0.6230
  111MOL    H8822308   0.955   1.840   3.390 -0.2445 -0.0907 -3.0228
  111MOL    H8922309   0.819   1.595   3.266 -2.3591 -0.1422  3.2415
  111MOL    H9022310   0.892   1.759   3.069  1.0053 -1.0611  0.9563
  111MOL    H9122311   0.862   1.896   3.177 -1.6925 -0.4228  2.2868
  111MOL    C9222312   0.688   1.809   3.103 -0.3091 -0.4145 -0.6056
  111MOL    C9322313   0.685   1.888   2.978  0.1242 -0.5269  0.7344
  111MOL    C9422314   0.675   1.840   2.853 -0.5781 -0.0672 -0.1223
  111MOL    C9522315   0.660   1.921   2.728  0.0014  0.2939  0.0891
  111MOL    H9622316   0.654   1.709   3.076 -0.3162 -1.4459  2.9185
  111MOL    H9722317   0.620   1.854   3.175 -1.3183 -0.5706 -1.4533
  111MOL    H9822318   0.706   1.994   2.987 -0.4613 -0.1558 -1.9132
  111MOL    H9922319   0.666   1.735   2.830  2.0298 -1.0252  2.8932
  111MOL   H10022320   0.695   1.853   2.651 -0.5989  0.5500 -0.4229
  111MOL   H10122321   0.733   2.002   2.723  1.1374 -0.8476 -2.0758
  111MOL   C10222322   0.519   1.980   2.697  0.0197  0.1991 -0.2011
  111MOL   C10322323   0.526   2.084   2.584 -0.7353 -0.3714 -0.8941
  111MOL   C10422324   0.474   2.208   2.605 -0.2052 -0.0574  0.6548
  111MOL   C10522325   0.463   2.313   2.497  0.1241  1.1173 -0.2479
  111MOL   H10622326   0.455   1.897   2.666 -0.9503  0.6746  0.5067
  111MOL   H10722327   0.480   2.027   2.787  0.6049 -0.0782  0.2000
  111MOL   H10822328   0.578   2.052   2.495 -0.0856  1.7470 -1.3057
  111MOL   H10922329   0.419   2.215   2.698 -1.3798 -1.8513  0.1183
  111MOL   H11022330   0.508   2.271   2.407  2.8078  0.9422  1.1314
  111MOL   H11122331   0.529   2.389   2.538 -0.9733  0.7980  2.2140
  111MOL   C11222332   0.323   2.363   2.470 -0.2078  0.0367 -0.7949
  111MOL   C11322333   0.308   2.465   2.363 -0.5288 -0.0277  0.4757
  111MOL   C11422334   0.236   2.432   2.254  0.0096 -0.6468 -0.3445
  111MOL   C11522335   0.222   2.522   2.130 -0.3782  0.1562 -0.6180
  111MOL   H11622336   0.254   2.284   2.441 -0.4205 -0.0220 -0.1429
  111MOL   H11722337   0.301   2.413   2.564  3.4206  0.3365 -0.0004
  111MOL   H11822338   0.369   2.554   2.367  2.2104 -1.7845 -0.7431
  111MOL   H11922339   0.188   2.337   2.236  0.5525 -1.3709  1.9973
  111MOL   H12022340   0.287   2.608   2.146  1.5252 -1.6704  2.0040
  111MOL   H12122341   0.118   2.554   2.129 -0.6898 -0.8518 -0.6092
  111MOL   C12222342   0.264   2.452   2.000 -0.3571 -0.0260 -0.1135
  111MOL   C12322343   0.161   2.348   1.966  0.5602  0.7618  0.3526
  111MOL   C12422344   0.102   2.343   1.844 -0.5254  0.2789  0.6453
  111MOL   C12522345   7.976   2.234   1.809 -0.5347 -0.0642  0.0542
  111MOL   H12622346   0.291   2.522   1.921 -0.6207 -0.6858 -0.8047
  111MOL   H12722347   0.356   2.397   2.019  0.9678  2.6528  1.4695
  111MOL   H12822348   0.140   2.276   2.045  0.9746  0.3134  0.0526
  111MOL   H12922349   0.125   2.414   1.766 -0.1024  0.6089  1.0681
  111MOL   H13022350   7.876   2.269   1.836  0.3748  2.5248  0.1470
  111MOL   H13122351   0.014   2.141   1.864 -1.4077 -0.2261  0.0354
  111MOL   C13222352   7.973   2.192   1.663 -0.2513 -0.1205 -0.0685
  111MOL   C13322353   7.848   2.113   1.625  0.5451  0.3013 -0.6385
  111MOL   C13422354   7.786   2.027   1.701 -0.3454  0.3290  0.0332
  111MOL   C13522355   7.672   1.934   1.667  0.8154 -0.4930 -0.4436
  111MOL   H13622356   0.005   2.280   1.599  0.7940  1.9033  2.7879
  111MOL   H13722357   0.082   2.131   1.636 -0.9664 -0.6659 -1.1736
  111MOL   H13822358   7.815   2.126   1.523  0.1543  0.7828 -0.4579
  111MOL   H13922359   7.818   2.011   1.803 -0.0202  2.1022  0.2296
  111MOL   H14022360   7.703   1.839   1.712  0.2629 -0.3129  0.3189
  111MOL   H14122361   7.659   1.914   1.560  0.5579 -1.1635 -0.2897
  111MOL   C14222362   7.532   1.969   1.728  0.4915 -0.1458  0.4839
  111MOL   C14322363   7.461   1.837   1.739 -1.1682  0.1401 -0.5345
  111MOL   C14422364   7.364   1.804   1.652  0.7402  0.0881 -0.6389
  111MOL   C14522365   7.268   1.691   1.679  0.1833 -1.0450 -0.5233
  111MOL   H14622366   7.540   2.020   1.824  1.6577  0.1773  0.2174
  111MOL   H14722367   7.474   2.025   1.655  1.3055  0.0758 -0.0068
  111MOL   H14822368   7.488   1.776   1.823  0.3111  1.4068 -0.0719
  111MOL   H14922369   7.336   1.861   1.565 -0.3249  0.1317 -0.2797
  111MOL   H15022370   7.171   1.739   1.694  0.4215 -0.2356 -1.5205
  111MOL   H15122371   7.297   1.643   1.772  0.4743 -0.7343 -0.4540
  111MOL   C15222372   7.260   1.577   1.578 -0.0328  0.3344 -0.0330
  111MOL   C15322373   7.188   1.451   1.641 -0.1542 -0.9800 -0.0812
  111MOL   C15422374   7.234   1.326   1.631 -0.4188 -0.0825 -0.4620
  111MOL   C15522375   7.162   1.201   1.690  0.7889  0.4562 -0.1020
  111MOL   H15622376   7.210   1.601   1.484 -1.2151 -0.1076  0.4785
  111MOL   H15722377   7.359   1.546   1.545 -0.8962  0.4646 -2.8908
  111MOL   H15822378   7.095   1.462   1.694  0.4135 -2.1735  1.1996
  111MOL   H15922379   7.324   1.297   1.579 -0.8578  1.5049 -2.1374
  111MOL   H16022380   7.110   1.147   1.611 -2.4570  2.4628  0.5401
  111MOL   H16122381   7.089   1.227   1.768 -0.8166 -2.4392 -0.5814
  111MOL   C16222382   7.266   1.107   1.757 -0.9946  0.0848  0.9663
  111MOL   C16322383   7.329   1.183   1.872 -0.7282  0.6472 -0.1563
  111MOL   C16422384   7.259   1.195   1.985 -0.0852 -0.0475 -0.1825
  111MOL   C16522385   7.302   1.293   2.094 -0.7891 -0.7141 -0.1423
  111MOL   H16622386   7.215   1.016   1.790 -1.7629 -0.4086 -1.4791
  111MOL   H16722387   7.342   1.102   1.679 -0.8666  1.5696  0.9788
  111MOL   H16822388   7.418   1.244   1.866 -0.0916  0.1628  3.0103
  111MOL   H16922389   7.166   1.144   2.005  1.9283 -3.3399  1.1854
  111MOL   H17022390   7.383   1.351   2.050 -0.4487  0.3128  1.7480
  111MOL   H17122391   7.345   1.241   2.180  1.3920 -0.9898 -1.3814
  111MOL   C17222392   7.188   1.384   2.145  0.2034  0.3190  0.7332
  111MOL   C17322393   7.139   1.491   2.044 -0.0271 -0.4213  0.2283
  111MOL   C17422394   7.102   1.618   2.078 -0.6078 -0.0259  0.2983
  111MOL   C17522395   7.067   1.731   1.984 -0.6470 -0.5531 -0.0194
  111MOL   H17622396   7.099   1.324   2.166  0.9211 -0.9803  0.1010
  111MOL   H17722397   7.217   1.433   2.238  0.6972  2.6937 -0.6295
  111MOL   H17822398   7.132   1.464   1.940 -0.7989  0.2006  0.1144
  111MOL   H17922399   7.110   1.643   2.183 -0.6926  1.4119 -0.0307
  111MOL   H18022400   7.069   1.680   1.888  1.1126 -0.3986 -0.0756
  111MOL   H18122401   7.144   1.808   1.981  0.8458 -2.0353 -0.2551
  111MOL   C18222402   6.925   1.790   2.016  0.7963  0.3201  0.3696
  111MOL   C18322403   6.924   1.848   2.159 -0.2241  0.1682  0.3992
  111MOL   C18422404   6.917   1.977   2.195 -0.1682 -0.3505 -0.3068
  111MOL   C18522405   6.922   2.022   2.338  0.0183  0.1608  0.2024
  111MOL   H18622406   6.890   1.873   1.954 -0.7477  0.6849  1.7030
  111MOL   H18722407   6.851   1.711   2.005  2.8132 -1.4351 -1.0583
  111MOL   H18822408   6.935   1.771   2.235  2.1653 -0.1943 -0.2695
  111MOL   H18922409   6.903   2.057   2.123  0.4848 -0.0585 -0.1138
  111MOL   H19022410   6.938   1.937   2.404 -1.8872  0.8190  1.5662
  111MOL   H19122411   6.819   2.053   2.359  0.1739  0.7109  0.1611
  111MOL   C19222412   7.019   2.140   2.359 -0.6075 -0.0918 -0.0245
  111MOL   C19322413   7.026   2.196   2.498 -1.2906  0.0240  0.8007
  111MOL   C19422414   6.984   2.313   2.541 -0.1973 -0.4427  0.5065
  111MOL   C19522415   7.004   2.356   2.679 -0.9025  0.4069  0.1130
  111MOL   H19622416   7.121   2.110   2.336 -0.5562  0.9869 -1.3008
  111MOL   H19722417   6.991   2.215   2.285 -3.2577 -0.7322  0.2617
  111MOL   H19822418   7.072   2.126   2.566  2.5513  0.8945 -0.7764
  111MOL   H19922419   6.935   2.388   2.481  1.4968  0.0552 -0.2805
  111MOL   H20022420   7.019   2.267   2.741  1.2879  0.5768 -0.1417
  111MOL   H20122421   6.926   2.421   2.718  1.3004  2.6339  0.9556
  111MOL   H20222422   7.103   2.401   2.682 -0.9845  0.7600 -1.6933
  112MOL     C122423   4.284   2.188   3.788  0.6141 -0.9301  0.1495
  112MOL     C222424   4.246   2.288   3.898 -0.3177  0.5285  0.1321
  112MOL     C322425   4.321   2.388   3.954  0.6649  0.1061  0.1299
  112MOL     C422426   4.262   2.484   4.057 -0.1069  0.3398 -0.8067
  112MOL     H522427   4.390   2.200   3.766  0.3074 -0.3573 -1.0641
  112MOL     H622428   4.233   2.216   3.696 -0.7514 -1.5703  0.6962
  112MOL     H722429   4.151   2.272   3.946 -0.8761  0.1538 -1.0989
  112MOL     H822430   4.419   2.419   3.922 -0.1007  0.6456 -1.7427
  112MOL     H922431   4.183   2.429   4.110  0.5333  0.5506  0.3641
  112MOL    H1022432   4.214   2.558   3.993  1.8570  1.6904 -0.7575
  112MOL    H1122433   4.257   2.084   3.806 -2.2829 -0.0686  1.0697
  112MOL    C1222434   4.358   2.554   4.151  0.1177  0.3079  0.2920
  112MOL    C1322435   4.294   2.642   4.259 -0.1194  0.1268  0.1966
  112MOL    C1422436   4.251   2.768   4.232  1.3863  0.2296  0.2383
  112MOL    C1522437   4.188   2.867   4.328  0.4904 -0.3297  0.1315
  112MOL    H1622438   4.419   2.485   4.208 -0.9973 -1.3075 -0.4211
  112MOL    H1722439   4.424   2.625   4.100  2.1908  0.9756  3.7545
  112MOL    H1822440   4.280   2.596   4.356  0.8507  0.5706  0.5554
  112MOL    H1922441   4.254   2.799   4.129 -2.4049  1.2226  0.3875
  112MOL    H2022442   4.261   2.942   4.359  0.4509  0.3074 -1.2729
  112MOL    H2122443   4.155   2.813   4.416 -0.4524 -2.0310 -1.2355
  112MOL    C2222444   4.060   2.922   4.266 -0.0756 -0.0547 -0.3339
  112MOL    C2322445   4.014   3.052   4.337  0.2967  0.4067 -0.0679
  112MOL    C2422446   3.936   3.133   4.273  0.6133  0.1081  0.1804
  112MOL    C2522447   3.859   3.249   4.335 -0.8311 -0.0685  0.0658
  112MOL    H2622448   4.081   2.939   4.160  0.6102 -1.5632 -0.4514
  112MOL    H2722449   3.992   2.839   4.280  0.0276  0.3691  3.1549
  112MOL    H2822450   4.055   3.068   4.436 -0.9376  1.2010  0.3231
  112MOL    H2922451   3.901   3.106   4.174  0.4087 -1.7842  0.7347
  112MOL    H3022452   3.877   3.338   4.275 -0.8929 -1.6153 -2.3263
  112MOL    H3122453   3.896   3.273   4.434 -0.4132 -0.6297  0.0453
  112MOL    C3222454   3.705   3.220   4.336  0.0958  0.1060 -0.3175
  112MOL    C3322455   3.668   3.154   4.476 -0.5931 -0.6762  0.5632
  112MOL    C3422456   3.555   3.185   4.544  0.0406  0.2238  0.0254
  112MOL    C3522457   3.512   3.127   4.671 -0.4949 -0.4588  0.8232
  112MOL    H3622458   3.663   3.317   4.309  0.1269  1.1052  3.0693
  112MOL    H3722459   3.673   3.155   4.255  0.6514 -0.4333 -0.1081
  112MOL    H3822460   3.730   3.075   4.515  1.3425  0.8718  0.7123
  112MOL    H3922461   3.484   3.256   4.505 -1.1063 -0.1266  1.4414
  112MOL    H4022462   3.431   3.056   4.659 -0.6328 -0.2544  0.5255
  112MOL    H4122463   3.476   3.218   4.720  0.1273  0.8613 -1.0952
  112MOL    C4222464   3.622   3.066   4.766 -0.4368 -0.3966  0.3250
  112MOL    C4322465   3.573   3.037   4.907 -0.1846  0.4205 -0.5015
  112MOL    C4422466   3.637   3.068   5.020 -0.1021  0.1278 -0.9696
  112MOL    C4522467   3.598   3.037   5.172 -0.1260  0.4466 -0.5801
  112MOL    H4622468   3.649   2.969   4.725 -1.5843 -0.2241 -0.8712
  112MOL    H4722469   3.710   3.130   4.764 -0.2633 -0.6725 -1.9205
  112MOL    H4822470   3.479   2.984   4.916 -0.1713  0.4949  0.0717
  112MOL    H4922471   3.731   3.121   5.016  0.2101 -0.1808  1.3360
  112MOL    H5022472   3.672   2.980   5.229 -2.1566 -1.0295  0.6583
  112MOL    H5122473   3.511   2.972   5.167 -1.9106  2.4559  3.0331
  112MOL    C5222474   3.570   3.160   5.258 -0.2653 -0.7611 -0.6121
  112MOL    C5322475   3.539   3.136   5.409 -0.1656 -0.3044 -0.0705
  112MOL    C5422476   3.511   3.019   5.461  0.2965  0.1698 -0.5639
  112MOL    C5522477   3.461   2.999   5.598  0.1854  0.0781 -0.5982
  112MOL    H5622478   3.651   3.233   5.255 -0.3970 -0.5986 -0.2436
  112MOL    H5722479   3.484   3.210   5.216 -0.6324 -1.1873 -0.3756
  112MOL    H5822480   3.526   3.227   5.467  0.6017  0.1946 -0.6699
  112MOL    H5922481   3.526   2.927   5.407 -0.9935 -0.7821  0.6915
  112MOL    H6022482   3.508   2.928   5.665 -0.2745 -0.1992 -0.5679
  112MOL    H6122483   3.365   2.949   5.589 -1.6171  2.8219  2.2647
  112MOL    C6222484   3.437   3.124   5.682 -0.0594 -0.6752  0.2437
  112MOL    C6322485   3.313   3.207   5.642  0.0232 -0.8790 -0.3737
  112MOL    C6422486   3.195   3.207   5.701  0.7828 -1.2240  0.0329
  112MOL    C6522487   3.065   3.277   5.652 -0.0327 -0.2469 -0.3440
  112MOL    H6622488   3.418   3.093   5.785  0.1211  0.0523  0.4981
  112MOL    H6722489   3.520   3.193   5.697 -1.1630  0.7124  0.0402
  112MOL    H6822490   3.326   3.264   5.551 -1.2285  1.5252  0.8724
  112MOL    H6922491   3.192   3.160   5.798  0.1530 -0.3187  0.4518
  112MOL    H7022492   3.082   3.335   5.561  3.7002  0.4035  0.6536
  112MOL    H7122493   3.033   3.350   5.727  0.4760  0.1356 -0.4979
  112MOL    C7222494   2.944   3.186   5.629 -0.1902  0.3814 -0.3738
  112MOL    C7322495   2.827   3.256   5.567  0.6096  0.0933 -0.5189
  112MOL    C7422496   2.756   3.215   5.464  0.2063  0.0925  0.0181
  112MOL    C7522497   2.661   3.298   5.376 -0.3757 -0.6517 -0.5883
  112MOL    H7622498   2.954   3.099   5.565  0.7540 -0.4885  0.9313
  112MOL    H7722499   2.910   3.139   5.722  1.1183 -1.3406 -0.7419
  112MOL    H7822500   2.796   3.350   5.610 -0.2207 -1.3650  2.1678
  112MOL    H7922501   2.771   3.117   5.421 -0.5739 -0.2333  0.4671
  112MOL    H8022502   2.692   3.399   5.401  1.4446 -0.3633 -3.7344
  112MOL    H8122503   2.564   3.288   5.424  0.6059 -2.2375  1.1436
  112MOL    C8222504   2.657   3.254   5.227 -0.8958 -0.4156 -0.0490
  112MOL    C8322505   2.565   3.347   5.151  0.4410 -0.0078  0.9916
  112MOL    C8422506   2.603   3.420   5.050 -0.2190 -0.7621 -0.0690
  112MOL    C8522507   2.525   3.526   4.976  0.1872 -0.9578  0.1436
  112MOL    H8622508   2.760   3.249   5.191 -0.1776  1.6678  1.6141
  112MOL    H8722509   2.604   3.159   5.224  0.4941 -1.1743 -0.9556
  112MOL    H8822510   2.465   3.353   5.190  0.4817  1.0680  0.9461
  112MOL    H8922511   2.705   3.415   5.015 -1.0230  0.9416 -2.8219
  112MOL    H9022512   2.590   3.613   4.969 -1.7799  0.4467 -1.1845
  112MOL    H9122513   2.446   3.558   5.044 -0.3975 -1.4460 -0.3006
  112MOL    C9222514   2.474   3.477   4.840  0.1806 -0.2628  0.4383
  112MOL    C9322515   2.428   3.598   4.761  0.0698  0.4498  0.0182
  112MOL    C9422516   2.332   3.600   4.664  0.1272  0.2829 -0.1027
  112MOL    C9522517   2.294   3.731   4.590  0.6204 -0.4516  0.2397
  112MOL    H9622518   2.565   3.433   4.798  0.4788 -0.4540  1.2533
  112MOL    H9722519   2.398   3.400   4.846 -0.1012  0.0981  1.6855
  112MOL    H9822520   2.474   3.694   4.778  0.6152  0.4622 -1.4491
  112MOL    H9922521   2.268   3.513   4.656 -0.0786  0.5061 -0.8680
  112MOL   H10022522   2.317   3.811   4.661 -0.3813  1.8996 -2.0226
  112MOL   H10122523   2.186   3.748   4.591  0.3417 -1.9889  3.1077
  112MOL   C10222524   2.362   3.756   4.461  0.4478  0.2947  0.1916
  112MOL   C10322525   2.277   3.867   4.392  0.0118  0.7921  0.5185
  112MOL   C10422526   2.269   3.868   4.261  0.4270  0.2732  1.0206
  112MOL   C10522527   2.202   3.977   4.173 -0.5355 -0.3145 -0.5179
  112MOL   H10622528   2.466   3.780   4.482  0.3023  1.7990 -0.8092
  112MOL   H10722529   2.354   3.668   4.398 -0.6369 -0.8924  1.9318
  112MOL   H10822530   2.228   3.937   4.458 -0.0066  0.4197  0.9035
  112MOL   H10922531   2.328   3.798   4.204 -1.4490 -0.4116 -0.1204
  112MOL   H11022532   2.283   4.031   4.123 -0.9437  0.3497 -0.4754
  112MOL   H11122533   2.153   4.042   4.246  0.3899  0.9930 -1.0329
  112MOL   C11222534   2.110   3.908   4.070 -0.1263 -0.0979 -0.1744
  112MOL   C11322535   2.016   4.005   3.995 -0.3576 -0.6298  0.1844
  112MOL   C11422536   1.896   3.976   3.951 -0.2678 -0.3358  0.2857
  112MOL   C11522537   1.790   4.064   3.890  0.6992 -0.2459 -0.0415
  112MOL   H11622538   2.182   3.855   4.008 -0.0030  1.2033 -1.1736
  112MOL   H11722539   2.051   3.827   4.112  1.5962 -0.2036  2.1523
  112MOL   H11822540   2.038   4.111   3.991  0.7934 -0.8526  0.4990
  112MOL   H11922541   1.863   3.874   3.962 -1.7071  0.0096 -0.6987
  112MOL   H12022542   1.759   4.023   3.794  0.4491 -1.9937  0.7540
  112MOL   H12122543   1.842   4.157   3.870 -0.3213  0.3421  0.0205
  112MOL   C12222544   1.678   4.110   3.982  0.1069 -0.6830 -0.3326
  112MOL   C12322545   1.599   4.232   3.937  0.1664 -0.0488  0.3312
  112MOL   C12422546   1.465   4.232   3.914 -0.8538  0.4357  0.0486
  112MOL   C12522547   1.381   4.350   3.886  0.3135  0.2025 -0.4130
  112MOL   H12622548   1.603   4.031   3.997 -1.7273  1.2244  0.8227
  112MOL   H12722549   1.719   4.119   4.082  0.8167 -1.8677 -0.5033
  112MOL   H12822550   1.661   4.319   3.924  0.3024 -0.1258  0.4672
  112MOL   H12922551   1.419   4.135   3.926  0.2799 -0.0148  0.9690
  112MOL   H13022552   1.438   4.442   3.884 -1.9815  1.6865  0.9314
  112MOL   H13122553   1.319   4.356   3.975  2.2867  1.4012  0.9299
  112MOL   C13222554   1.300   4.335   3.760  0.3516 -0.0632 -0.1093
  112MOL   C13322555   1.209   4.218   3.753 -0.5750  0.4526 -0.0774
  112MOL   C13422556   1.079   4.238   3.778 -0.0683 -0.7376  0.3452
  112MOL   C13522557   0.979   4.125   3.789  0.6602  0.1516  0.1558
  112MOL   H13622558   1.247   4.427   3.732  1.1487  0.5066  0.2369
  112MOL   H13722559   1.372   4.330   3.678  0.3416  0.7091 -0.1710
  112MOL   H13822560   1.254   4.123   3.726  1.3428  0.9959  1.1022
  112MOL   H13922561   1.042   4.337   3.801 -3.1804 -1.6709 -0.4046
  112MOL   H14022562   1.014   4.029   3.752  0.6119 -0.1034  0.7601
  112MOL   H14122563   0.901   4.146   3.715 -0.7891 -3.1077  0.6566
  112MOL   C14222564   0.900   4.102   3.923  0.4812  0.1866 -0.0151
  112MOL   C14322565   0.841   3.966   3.919  0.3510  0.5898 -0.7971
  112MOL   C14422566   0.848   3.882   4.024 -0.3649  0.2887 -0.0957
  112MOL   C14522567   0.779   3.748   4.041  0.2060  0.2606 -0.2708
  112MOL   H14622568   0.973   4.114   4.002  0.1961  4.2926 -0.2635
  112MOL   H14722569   0.827   4.181   3.944 -0.0253 -0.5461  1.0290
  112MOL   H14822570   0.777   3.936   3.837 -1.7817 -0.2523  1.1062
  112MOL   H14922571   0.911   3.909   4.108 -0.6592  0.1539  0.1708
  112MOL   H15022572   0.722   3.740   4.134 -0.1550  1.4301 -0.3913
  112MOL   H15122573   0.852   3.667   4.041 -0.0863 -0.0140 -1.5951
  112MOL   C15222574   0.690   3.702   3.933 -0.4216  0.3109  0.1878
  112MOL   C15322575   0.767   3.664   3.807  0.2473  0.4180  0.3039
  112MOL   C15422576   0.744   3.712   3.686  0.4318 -0.7112  0.1478
  112MOL   C15522577   0.828   3.678   3.565  0.9677  1.1112  0.3214
  112MOL   H15622578   0.633   3.613   3.958 -2.2491  1.6501  0.9385
  112MOL   H15722579   0.615   3.778   3.910  0.4190  0.9054 -0.6478
  112MOL   H15822580   0.843   3.589   3.824  0.2550  0.5437  0.8232
  112MOL   H15922581   0.661   3.781   3.676  0.6794 -0.3853  0.3128
  112MOL   H16022582   0.784   3.725   3.478 -1.7115 -1.7724  0.0219
  112MOL   H16122583   0.805   3.571   3.559  0.6472  1.1422  1.0485
  112MOL   C16222584   0.983   3.699   3.581 -0.0289  0.1445 -0.8190
  112MOL   C16322585   1.059   3.630   3.474  0.1386 -0.0009  0.7833
  112MOL   C16422586   1.106   3.688   3.364  0.3318  0.6471  0.1260
  112MOL   C16522587   1.195   3.617   3.265 -0.5098  0.2648 -0.4544
  112MOL   H16622588   1.005   3.803   3.606 -1.7404  0.2284  0.4617
  112MOL   H16722589   1.008   3.646   3.672 -0.3259 -0.2924 -0.9902
  112MOL   H16822590   1.083   3.528   3.500 -0.3229  0.3329  2.5442
  112MOL   H16922591   1.088   3.794   3.359  0.3661  0.6531  0.1349
  112MOL   H17022592   1.142   3.613   3.170 -1.5502  0.3412  0.1231
  112MOL   H17122593   1.207   3.517   3.307 -1.5038  0.1781 -0.3705
  112MOL   C17222594   1.327   3.697   3.242 -1.0249  0.1556  0.4374
  112MOL   C17322595   1.434   3.615   3.176  0.1984 -0.0635  0.2827
  112MOL   C17422596   1.557   3.597   3.231  0.2231  0.3045 -0.4860
  112MOL   C17522597   1.676   3.545   3.158 -0.2296  0.6617 -0.3219
  112MOL   H17622598   1.308   3.785   3.180 -1.0581  0.0105  0.2431
  112MOL   H17722599   1.362   3.732   3.339 -0.5742 -1.0469  0.7080
  112MOL   H17822600   1.413   3.596   3.072 -0.5942  1.6245  0.1085
  112MOL   H17922601   1.585   3.628   3.331  0.9539  1.9148 -1.1566
  112MOL   H18022602   1.651   3.507   3.059  0.7672 -1.0181  0.0572
  112MOL   H18122603   1.699   3.455   3.215  0.1552  1.3356  0.5906
  112MOL   C18222604   1.786   3.648   3.132 -0.0111 -0.0073  0.4559
  112MOL   C18322605   1.896   3.576   3.063  0.1828  0.6182 -0.2071
  112MOL   C18422606   1.946   3.606   2.943  0.3101 -0.3856  0.1129
  112MOL   C18522607   2.073   3.545   2.876 -0.0855 -0.3633  1.2171
  112MOL   H18622608   1.757   3.718   3.054 -1.2413 -0.2743  0.6679
  112MOL   H18722609   1.819   3.688   3.228  0.5453 -0.5587  0.4984
  112MOL   H18822610   1.951   3.494   3.107 -0.6280 -0.2338 -0.7641
  112MOL   H18922611   1.906   3.686   2.883  3.4511  0.8778 -0.3770
  112MOL   H19022612   2.052   3.538   2.769  1.6300 -0.1162  0.8562
  112MOL   H19122613   2.089   3.440   2.901  0.0879 -0.2810  1.4534
  112MOL   C19222614   2.202   3.624   2.898 -0.7420  0.6602 -0.4302
  112MOL   C19322615   2.305   3.598   2.792 -0.0987  1.2617  0.0256
  112MOL   C19422616   2.375   3.697   2.733  0.1253  0.5258 -0.7744
  112MOL   C19522617   2.476   3.693   2.618 -0.3254  0.4559 -1.2314
  112MOL   H19622618   2.181   3.731   2.900 -1.1373  0.5659  3.0321
  112MOL   H19722619   2.241   3.608   2.998 -0.7341 -0.8839 -0.6753
  112MOL   H19822620   2.322   3.495   2.765 -0.0657  1.7927 -2.0313
  112MOL   H19922621   2.342   3.797   2.758 -0.4258  0.4749 -1.3016
  112MOL   H20022622   2.560   3.756   2.647 -0.4264  0.6963 -1.4538
  112MOL   H20122623   2.433   3.730   2.525  0.5794 -1.0895 -2.2829
  112MOL   H20222624   2.509   3.592   2.593  1.7144  0.6527  0.5949
  113MOL     C122625   6.414   1.334   5.360  0.1432 -0.4623  0.0707
  113MOL     C222626   6.463   1.291   5.225  0.0396 -0.0028  0.7370
  113MOL     C322627   6.564   1.351   5.159  0.3040 -0.3614  0.3269
  113MOL     C422628   6.610   1.315   5.014 -0.0343  0.3609  0.8389
  113MOL     H522629   6.490   1.400   5.402  1.8445 -1.1382 -1.8486
  113MOL     H622630   6.393   1.247   5.423  1.6894 -0.9318 -0.0301
  113MOL     H722631   6.409   1.211   5.176  0.1382  0.1227  0.4240
  113MOL     H822632   6.618   1.424   5.218 -1.2292 -0.3142  1.7340
  113MOL     H922633   6.714   1.284   5.026 -0.6829 -2.0559  0.5077
  113MOL    H1022634   6.616   1.407   4.957  0.4330  1.2411  2.2728
  113MOL    H1122635   6.319   1.385   5.348  1.2796  1.3899 -1.2991
  113MOL    C1222636   6.521   1.214   4.939 -0.2117 -0.1077 -0.1160
  113MOL    C1322637   6.396   1.283   4.885  0.0211  0.5436 -0.0782
  113MOL    C1422638   6.375   1.321   4.759 -0.1625  0.7867  0.1656
  113MOL    C1522639   6.250   1.377   4.690 -0.9207 -0.4153 -0.4219
  113MOL    H1622640   6.573   1.196   4.845  1.1008 -1.4649  0.8660
  113MOL    H1722641   6.499   1.116   4.980 -0.2300  0.6101  1.6416
  113MOL    H1822642   6.318   1.295   4.959 -1.4213  1.4270 -1.7172
  113MOL    H1922643   6.458   1.300   4.693  0.4930  0.5632  1.0527
  113MOL    H2022644   6.282   1.476   4.656 -0.5473 -0.9697 -1.7085
  113MOL    H2122645   6.175   1.391   4.768 -1.3214 -2.2895 -0.4430
  113MOL    C2222646   6.190   1.292   4.576  0.1403 -0.2458  0.1581
  113MOL    C2322647   6.061   1.356   4.517  0.0841 -0.9346  0.5088
  113MOL    C2422648   6.000   1.323   4.400 -0.6525 -0.4695 -0.0150
  113MOL    C2522649   5.864   1.377   4.354  0.6284 -0.1191  0.0220
  113MOL    H2622650   6.262   1.267   4.498  1.7423 -0.5536  1.7196
  113MOL    H2722651   6.145   1.201   4.615  0.8833 -0.8340 -0.3564
  113MOL    H2822652   6.009   1.425   4.583 -2.0460  0.0303 -2.0980
  113MOL    H2922653   6.054   1.254   4.337 -0.4383 -0.8542  0.5858
  113MOL    H3022654   5.875   1.421   4.255 -0.8117 -2.1737 -1.0789
  113MOL    H3122655   5.821   1.454   4.418 -0.1791 -1.0225  0.5745
  113MOL    C3222656   5.756   1.269   4.358 -0.0656 -0.9124  0.3233
  113MOL    C3322657   5.721   1.216   4.497 -0.4012 -0.3089 -0.3636
  113MOL    C3422658   5.766   1.102   4.542  0.2632  0.2140 -0.4222
  113MOL    C3522659   5.743   1.039   4.677  0.6355 -0.3201 -0.1730
  113MOL    H3622660   5.664   1.301   4.310  1.2647 -1.4659 -2.6845
  113MOL    H3722661   5.786   1.188   4.292 -0.8539 -0.5401 -0.4940
  113MOL    H3822662   5.664   1.279   4.564 -1.1083 -1.6804  0.3477
  113MOL    H3922663   5.825   1.032   4.484 -0.5247 -1.4685  0.7816
  113MOL    H4022664   5.705   0.938   4.659  1.1981 -0.0690 -2.9561
  113MOL    H4122665   5.662   1.094   4.726  1.8703  0.4038  1.0889
  113MOL    C4222666   5.862   1.006   4.770 -0.0487 -0.5419  0.5416
  113MOL    C4322667   5.923   1.127   4.844  0.1572  0.6401 -0.0034
  113MOL    C4422668   5.932   1.140   4.980 -0.4356 -0.5074 -0.3219
  113MOL    C4522669   6.003   1.261   5.042  0.5752 -0.4780  0.1078
  113MOL    H4622670   5.836   0.937   4.850 -1.0442  0.4209  1.0617
  113MOL    H4722671   5.942   0.962   4.711  0.7148 -0.1531  1.2671
  113MOL    H4822672   5.963   1.199   4.773  1.6864 -0.7913 -0.6213
  113MOL    H4922673   5.898   1.058   5.041  1.4001 -0.7494  0.4241
  113MOL    H5022674   6.005   1.331   4.959 -2.0436  0.1079  0.4846
  113MOL    H5122675   6.103   1.245   5.081  0.1150 -1.7710  0.7888
  113MOL    C5222676   5.932   1.323   5.159 -0.2516  0.2714  0.4648
  113MOL    C5322677   5.967   1.468   5.182  0.2965  0.0039 -0.1938
  113MOL    C5422678   6.057   1.545   5.120 -0.4085 -0.0165 -0.1225
  113MOL    C5522679   6.072   1.690   5.147 -0.7906 -0.0329 -0.1683
  113MOL    H5622680   5.824   1.327   5.146 -0.4748 -0.2087  2.0878
  113MOL    H5722681   5.952   1.260   5.246 -2.2915  1.3896  1.7831
  113MOL    H5822682   5.903   1.516   5.254  1.6594  0.4198  0.7633
  113MOL    H5922683   6.123   1.508   5.043 -1.2150  1.5485 -1.6078
  113MOL    H6022684   6.005   1.711   5.230 -1.6763 -1.7140 -0.4162
  113MOL    H6122685   6.037   1.754   5.066 -0.0829 -1.3618 -1.5711
  113MOL    C6222686   6.218   1.722   5.190 -0.1421 -0.2881 -0.1355
  113MOL    C6322687   6.308   1.733   5.069  0.2728  0.1222 -0.0883
  113MOL    C6422688   6.433   1.675   5.047 -0.0197 -0.0304 -1.0943
  113MOL    C6522689   6.516   1.698   4.926  0.3637  0.1954 -0.4431
  113MOL    H6622690   6.218   1.816   5.246 -0.0454  0.3088 -1.1133
  113MOL    H6722691   6.248   1.646   5.261  2.5096 -0.0699 -0.9896
  113MOL    H6822692   6.278   1.806   4.996  0.8321  1.6235  1.1688
  113MOL    H6922693   6.468   1.602   5.118  2.4460  1.2613 -0.9547
  113MOL    H7022694   6.459   1.746   4.846 -0.3857 -0.7086 -0.4644
  113MOL    H7122695   6.560   1.602   4.899  0.3288 -0.2048  0.9077
  113MOL    C7222696   6.647   1.770   4.950  1.0729 -0.2239  0.6790
  113MOL    C7322697   6.716   1.807   4.819 -0.4133 -0.4196 -0.4157
  113MOL    C7422698   6.843   1.777   4.791  0.0077  0.2714 -0.5951
  113MOL    C7522699   6.921   1.818   4.667 -1.0506 -0.2721  0.1395
  113MOL    H7622700   6.623   1.867   4.994  1.1337  0.3212 -0.4505
  113MOL    H7722701   6.712   1.707   5.011 -0.5340 -0.8267  1.8014
  113MOL    H7822702   6.653   1.859   4.748 -0.1362 -0.2992 -0.5716
  113MOL    H7922703   6.898   1.725   4.869  0.8617  2.0683  0.0184
  113MOL    H8022704   6.946   1.731   4.605 -0.4421 -1.3803  1.9089
  113MOL    H8122705   7.020   1.858   4.689 -0.7856  1.5439 -3.8793
  113MOL    C8222706   6.854   1.920   4.576  0.4043  0.0524 -0.3263
  113MOL    C8322707   6.951   1.970   4.475 -0.1338 -0.4741  0.6206
  113MOL    C8422708   6.969   1.907   4.355 -0.0213 -0.0396 -0.0566
  113MOL    C8522709   7.081   1.936   4.253 -0.1167  0.0131  0.9299
  113MOL    H8622710   6.773   1.868   4.525  1.1769 -1.1037 -0.3873
  113MOL    H8722711   6.806   2.011   4.614  1.1918 -0.1456  1.1897
  113MOL    H8822712   7.018   2.047   4.509  0.0844  0.3539 -1.6219
  113MOL    H8922713   6.903   1.823   4.340  0.0446 -0.3102  1.1120
  113MOL    H9022714   7.175   1.932   4.309 -0.0479 -1.2802  0.7268
  113MOL    H9122715   7.076   2.044   4.235 -0.8356  0.3211  2.9071
  113MOL    C9222716   7.074   1.854   4.122  0.2426 -0.0032  0.8237
  113MOL    C9322717   6.940   1.890   4.055 -0.6737 -0.5774 -0.6508
  113MOL    C9422718   6.924   1.941   3.935 -0.3740 -0.1646  0.3499
  113MOL    C9522719   6.789   1.995   3.867 -0.1560  0.2690  0.1233
  113MOL    H9622720   7.157   1.895   4.063 -0.9340  0.3377 -0.6194
  113MOL    H9722721   7.092   1.747   4.125 -1.8305 -0.3898  0.2044
  113MOL    H9822722   6.850   1.881   4.115  0.5016  3.1857  1.9035
  113MOL    H9922723   7.018   1.951   3.883  0.3331 -2.7311  1.0821
  113MOL   H10022724   6.800   2.100   3.840  2.1936 -0.2916 -1.2894
  113MOL   H10122725   6.700   1.983   3.928 -0.8908  1.2663 -0.7564
  113MOL   C10222726   6.770   1.920   3.725  0.1774 -0.2602  0.4146
  113MOL   C10322727   6.644   1.960   3.644 -0.2889 -0.3380 -0.5312
  113MOL   C10422728   6.646   2.014   3.520  0.0447  0.5687 -0.1688
  113MOL   C10522729   6.525   2.063   3.441  0.0732  0.3057  0.4070
  113MOL   H10622730   6.856   1.929   3.659 -0.6780 -1.1126 -0.8487
  113MOL   H10722731   6.754   1.819   3.762 -1.8419  0.1732  0.8148
  113MOL   H10822732   6.552   1.948   3.698 -0.1177 -0.4150 -0.2560
  113MOL   H10922733   6.741   2.019   3.470  1.2406 -2.3938  1.6950
  113MOL   H11022734   6.439   2.064   3.508  0.0438 -2.0524  0.4544
  113MOL   H11122735   6.503   1.990   3.362 -1.5775  1.2873 -0.0758
  113MOL   C11222736   6.554   2.189   3.370 -0.7050  0.5877 -0.4501
  113MOL   C11322737   6.450   2.212   3.263  0.4334  1.0941  0.3892
  113MOL   C11422738   6.468   2.204   3.132 -0.2617  0.2172 -0.5359
  113MOL   C11522739   6.358   2.215   3.027 -0.1750  0.4610  0.0713
  113MOL   H11622740   6.569   2.274   3.436  0.5609 -0.7298  1.0298
  113MOL   H11722741   6.649   2.186   3.316 -0.3876  0.0908  0.1371
  113MOL   H11822742   6.352   2.216   3.309 -0.1071  1.4024 -0.7823
  113MOL   H11922743   6.569   2.194   3.096 -1.3675 -2.0141 -3.1742
  113MOL   H12022744   6.411   2.256   2.942  1.4295  0.1501  0.9025
  113MOL   H12122745   6.281   2.281   3.066  0.5215  0.0582  2.2028
  113MOL   C12222746   6.298   2.076   2.975 -0.5743  0.0120  0.1224
  113MOL   C12322747   6.202   2.102   2.866 -0.7340 -0.0210  0.4368
  113MOL   C12422748   6.207   2.017   2.758  0.3895 -0.1445 -0.2288
  113MOL   C12522749   6.117   2.036   2.641 -0.1635  0.3049  0.6281
  113MOL   H12622750   6.384   2.024   2.933 -0.0346  1.2329 -0.3252
  113MOL   H12722751   6.251   2.018   3.054 -1.2961  1.8895  1.0910
  113MOL   H12822752   6.126   2.177   2.883 -1.4923 -0.8956  0.9758
  113MOL   H12922753   6.289   1.947   2.757  1.3203  0.9190 -1.3406
  113MOL   H13022754   6.069   2.133   2.631 -1.0375 -0.3000 -1.2812
  113MOL   H13122755   6.037   1.962   2.639  1.4001 -1.4051 -1.2826
  113MOL   C13222756   6.196   2.013   2.506  0.5922 -0.1915  0.9858
  113MOL   C13322757   6.122   2.046   2.381 -0.1972  0.6757 -0.5555
  113MOL   C13422758   5.996   2.008   2.362  0.1469  0.2280  0.8316
  113MOL   C13522759   5.901   2.048   2.254  0.0706 -0.3578 -0.3155
  113MOL   H13622760   6.289   2.069   2.513  0.9532 -0.4572 -1.2914
  113MOL   H13722761   6.228   1.908   2.499 -0.1536 -0.3250 -0.9629
  113MOL   H13822762   6.173   2.122   2.323  0.4080  0.5465 -0.1933
  113MOL   H13922763   5.956   1.931   2.427  0.1633  1.9499  2.9387
  113MOL   H14022764   5.927   2.147   2.219 -0.2660  0.7429  2.4251
  113MOL   H14122765   5.809   2.046   2.314  0.3272 -0.3862  0.0795
  113MOL   C14222766   5.883   1.952   2.143  0.1491 -0.5758 -0.3818
  113MOL   C14322767   5.770   1.988   2.051 -0.3888 -1.4663 -0.4842
  113MOL   C14422768   5.759   1.958   1.922  0.5025  1.0687  0.6514
  113MOL   C14522769   5.640   1.984   1.839  0.1551 -0.2534 -0.5740
  113MOL   H14622770   5.978   1.937   2.091  1.2631  1.3770  1.0097
  113MOL   H14722771   5.866   1.849   2.173  1.2806 -1.1312 -1.6057
  113MOL   H14822772   5.686   2.034   2.100  2.1730  0.6250  2.0861
  113MOL   H14922773   5.843   1.908   1.876 -0.7939 -0.9960  0.4968
  113MOL   H15022774   5.668   2.068   1.774  0.6165 -0.1104 -0.1911
  113MOL   H15122775   5.555   2.011   1.901 -0.6291 -2.3789 -0.7102
  113MOL   C15222776   5.594   1.869   1.758  0.0285  0.5643 -0.0697
  113MOL   C15322777   5.466   1.891   1.686  0.8022 -0.2500  0.1774
  113MOL   C15422778   5.450   1.860   1.558 -0.2834  0.1036 -0.1774
  113MOL   C15522779   5.318   1.884   1.482 -0.4521  0.6315  0.6278
  113MOL   H15622780   5.672   1.857   1.682 -3.0916  0.4054 -3.4020
  113MOL   H15722781   5.580   1.777   1.814 -2.7002  1.8469  1.4253
  113MOL   H15822782   5.379   1.920   1.743  1.0810 -1.2830  1.1648
  113MOL   H15922783   5.536   1.833   1.499 -1.1030  0.0142 -1.3308
  113MOL   H16022784   5.337   1.965   1.412  1.3271 -0.4593 -0.1789
  113MOL   H16122785   5.248   1.932   1.551  0.2551  0.4502  1.4844
  113MOL   C16222786   5.272   1.760   1.403 -0.2505 -0.6951 -0.4592
  113MOL   C16322787   5.156   1.776   1.299  0.0749  0.6077  0.6040
  113MOL   C16422788   5.062   1.871   1.294  0.0379  0.1980 -0.1356
  113MOL   C16522789   4.955   1.872   1.194 -0.5362  0.4315 -0.5649
  113MOL   H16622790   5.359   1.718   1.353 -0.5796 -2.5144  0.4476
  113MOL   H16722791   5.232   1.692   1.479 -3.6594  1.1662 -0.4690
  113MOL   H16822792   5.149   1.696   1.226  1.0699 -0.5484  1.7273
  113MOL   H16922793   5.058   1.946   1.372 -2.4070  0.9747 -0.9638
  113MOL   H17022794   4.862   1.888   1.250  0.0011 -1.7146  1.0115
  113MOL   H17122795   4.943   1.774   1.148 -2.5847 -0.3774  1.5614
  113MOL   C17222796   4.984   1.982   1.084  0.3822  0.2195  0.8454
  113MOL   C17322797   4.868   2.001   0.990  0.4348  0.2196 -0.4587
  113MOL   C17422798   4.844   1.947   0.868  0.6667 -0.2897 -0.1894
  113MOL   C17522799   4.719   1.980   0.785  0.4517  0.1614 -0.4502
  113MOL   H17622800   4.996   2.078   1.135 -2.9322  0.7314  0.7400
  113MOL   H17722801   5.073   1.956   1.027  0.0135  1.6204 -0.3883
  113MOL   H17822802   4.786   2.067   1.016 -1.0567 -1.3851 -0.9810
  113MOL   H17922803   4.918   1.875   0.835 -0.0704 -1.8961  1.5067
  113MOL   H18022804   4.640   2.036   0.834  0.4093  0.7799 -1.2279
  113MOL   H18122805   4.679   1.884   0.754 -1.0531  0.7032 -0.2240
  113MOL   C18222806   4.748   2.055   0.654  0.1546  0.5134 -0.1680
  113MOL   C18322807   4.804   1.963   0.551  0.4809 -0.7728 -0.2027
  113MOL   C18422808   4.934   1.978   0.513  0.2592  0.0642  0.1103
  113MOL   C18522809   4.996   1.876   0.421  0.6721 -0.2822 -0.2684
  113MOL   H18622810   4.651   2.091   0.621 -0.9778 -2.9086 -0.8318
  113MOL   H18722811   4.810   2.140   0.681  0.0283  0.1735  1.2858
  113MOL   H18822812   4.728   1.895   0.514  0.5986 -1.4748  0.8397
  113MOL   H18922813   4.994   2.060   0.550  1.5964 -0.2844 -1.2672
  113MOL   H19022814   4.927   1.792   0.414  0.8989 -0.4466 -0.5362
  113MOL   H19122815   5.088   1.842   0.469  0.2505 -0.1864  0.6066
  113MOL   C19222816   5.018   1.928   0.273 -0.5366  0.2466 -0.1175
  113MOL   C19322817   4.889   1.983   0.220  0.2141  0.1540 -0.1991
  113MOL   C19422818   4.883   2.105   0.173  0.9665  0.7993 -0.7004
  113MOL   C19522819   4.761   2.169   0.101 -0.8042  0.5341 -0.1539
  113MOL   H19622820   5.091   2.009   0.274  1.0743 -1.1574  0.2302
  113MOL   H19722821   5.070   1.854   0.212 -0.8637  0.3375 -0.5030
  113MOL   H19822822   4.804   1.916   0.217  1.3204 -1.2323 -1.3271
  113MOL   H19922823   4.968   2.167   0.196  0.2307  1.2907  0.7479
  113MOL   H20022824   4.732   2.260   0.154 -1.4982  0.2683 -0.0721
  113MOL   H20122825   4.680   2.096   0.097  0.1261 -0.5390  0.1330
  113MOL   H20222826   4.790   2.198   0.001  0.0943  0.3444  0.0487
  114MOL     C122827   0.740   0.096   6.118  0.5238  0.6435 -0.2625
  114MOL     C222828   0.811   0.211   6.180 -0.0196 -0.9677 -0.4963
  114MOL     C322829   0.934   0.259   6.143  0.0599  0.2157 -0.4038
  114MOL     C422830   1.012   0.362   6.217 -0.0440  0.3333 -0.1452
  114MOL     H522831   0.718   0.144   6.023  0.5449  3.6293  1.1630
  114MOL     H622832   0.650   0.061   6.170 -0.0648 -1.7198 -2.7318
  114MOL     H722833   0.770   0.258   6.269  0.8798  0.2917 -0.7306
  114MOL     H822834   0.983   0.217   6.057 -0.5277 -1.8309  0.2104
  114MOL     H922835   1.106   0.317   6.248 -0.2983  0.1562  0.3798
  114MOL    H1022836   0.965   0.391   6.311  0.3520  1.3821 -0.2604
  114MOL    H1122837   0.804   0.011   6.094  1.8781  1.4907  0.3080
  114MOL    C1222838   1.061   0.481   6.128  0.2403  0.4923 -0.7718
  114MOL    C1322839   1.095   0.605   6.211 -0.4267  0.5046 -0.7610
  114MOL    C1422840   1.040   0.728   6.207 -0.0276  0.2382 -0.4124
  114MOL    C1522841   1.076   0.831   6.308  0.4750 -0.4453  0.1329
  114MOL    H1622842   1.150   0.450   6.073 -0.0426 -1.4348 -0.1904
  114MOL    H1722843   0.984   0.508   6.056 -0.0325  0.0876 -0.6331
  114MOL    H1822844   1.151   0.578   6.299 -1.2483  2.0908  0.2783
  114MOL    H1922845   0.969   0.761   6.134 -2.0216 -1.2981  0.7884
  114MOL    H2022846   1.112   0.793   6.404  0.0592 -0.5709  0.2378
  114MOL    H2122847   0.994   0.899   6.333  1.0662  0.0100  0.8727
  114MOL    C2222848   1.191   0.911   6.239  0.2823 -0.3323 -0.3078
  114MOL    C2322849   1.264   1.007   6.334  0.6144  0.2279 -0.0756
  114MOL    C2422850   1.254   1.142   6.326  0.0004  0.3587  0.9104
  114MOL    C2522851   1.302   1.245   6.426 -0.1943  0.6696  0.2491
  114MOL    H2622852   1.259   0.846   6.184  0.6229 -0.5304  0.3488
  114MOL    H2722853   1.154   0.971   6.155  2.2240  1.5731  0.1504
  114MOL    H2822854   1.318   0.956   6.412 -0.4529 -0.1493  0.4315
  114MOL    H2922855   1.207   1.179   6.236  0.6336 -1.3264 -0.1440
  114MOL    H3022856   1.385   1.298   6.380  0.0855  2.1097  2.3498
  114MOL    H3122857   1.338   1.184   6.509 -0.5641  1.6244  1.1163
  114MOL    C3222858   1.186   1.338   6.459  0.5185  0.0744  0.5243
  114MOL    C3322859   1.238   1.445   6.553  0.3368 -0.0074  0.0383
  114MOL    C3422860   1.264   1.568   6.510  1.0103  0.4417  0.4813
  114MOL    C3522861   1.322   1.673   6.602 -0.0554  0.3050  0.2108
  114MOL    H3622862   1.150   1.372   6.362  1.3627 -0.4232  0.0269
  114MOL    H3722863   1.105   1.281   6.505  1.1025 -0.4554  0.9239
  114MOL    H3822864   1.245   1.431   6.660 -0.3293  1.2189  0.2479
  114MOL    H3922865   1.252   1.591   6.405  1.7002  1.7091  0.6659
  114MOL    H4022866   1.325   1.634   6.704  1.7365  0.6037  0.2930
  114MOL    H4122867   1.249   1.753   6.616  0.5666  0.7689  0.8075
  114MOL    C4222868   1.457   1.732   6.547 -0.0594 -0.1493 -0.6222
  114MOL    C4322869   1.553   1.621   6.548  0.6240  0.0021  0.5246
  114MOL    C4422870   1.652   1.609   6.458  0.5803  0.3132 -0.6207
  114MOL    C4522871   1.750   1.493   6.448 -0.2100  0.0258 -0.0632
  114MOL    H4622872   1.454   1.769   6.444  2.8636 -1.1333 -1.1140
  114MOL    H4722873   1.502   1.803   6.615 -0.6228 -1.7008  1.4148
  114MOL    H4822874   1.544   1.538   6.617  0.4380 -0.0911  0.3870
  114MOL    H4922875   1.667   1.693   6.391 -1.6325  1.3208  0.1032
  114MOL    H5022876   1.723   1.432   6.534  1.0407 -2.2742 -1.2459
  114MOL    H5122877   1.855   1.514   6.466 -1.1691  1.3964  4.3444
  114MOL    C5222878   1.740   1.409   6.323 -0.2918  0.1014 -0.1495
  114MOL    C5322879   1.808   1.474   6.202 -0.0110 -0.3393  0.1552
  114MOL    C5422880   1.738   1.532   6.099  0.3779 -0.5571 -0.2966
  114MOL    C5522881   1.801   1.585   5.977  0.4097 -0.0277 -0.3289
  114MOL    H5622882   1.775   1.308   6.345 -0.0040  0.2346 -0.0000
  114MOL    H5722883   1.633   1.404   6.300 -0.1127 -0.4813 -0.8645
  114MOL    H5822884   1.916   1.476   6.198  0.0572 -0.7387  1.6501
  114MOL    H5922885   1.630   1.532   6.095  0.3902 -1.5782 -1.1170
  114MOL    H6022886   1.786   1.512   5.897  1.0306  0.3576 -0.8018
  114MOL    H6122887   1.909   1.595   5.982  0.2540  1.4861  0.5983
  114MOL    C6222888   1.736   1.728   5.943 -0.5840 -1.3227 -0.0286
  114MOL    C6322889   1.808   1.813   5.843  0.1332  0.5355  0.0501
  114MOL    C6422890   1.846   1.938   5.858 -0.5740 -0.4271 -0.5157
  114MOL    C6522891   1.899   2.033   5.745  0.7151  0.2527  0.0865
  114MOL    H6622892   1.630   1.735   5.918 -0.0883  0.8863 -1.6449
  114MOL    H6722893   1.729   1.787   6.035  1.2362 -0.9950 -0.0764
  114MOL    H6822894   1.813   1.771   5.744  2.4588  0.6052  0.1061
  114MOL    H6922895   1.815   1.987   5.949 -1.4796 -0.4796 -0.7951
  114MOL    H7022896   1.990   2.076   5.787  1.2947 -1.4733  0.6505
  114MOL    H7122897   1.841   2.123   5.726  0.0638 -0.2360 -0.2251
  114MOL    C7222898   1.948   1.965   5.616 -0.1591  0.4952 -0.6970
  114MOL    C7322899   2.019   2.064   5.524 -0.0340  0.7427 -0.6611
  114MOL    C7422900   2.149   2.054   5.497  0.6700 -0.5299  0.1800
  114MOL    C7522901   2.235   2.157   5.419  0.0146  1.1379 -0.2962
  114MOL    H7622902   2.002   1.872   5.634  1.1831  1.4852  0.5123
  114MOL    H7722903   1.865   1.921   5.561  0.6057 -2.7439  0.6298
  114MOL    H7822904   1.954   2.148   5.503 -0.3168 -0.1222 -3.3937
  114MOL    H7922905   2.192   1.961   5.532  0.3761  1.0384  5.0440
  114MOL    H8022906   2.326   2.182   5.473  2.0765 -1.6053 -2.3250
  114MOL    H8122907   2.181   2.249   5.397  1.3725  1.9760 -0.2310
  114MOL    C8222908   2.274   2.092   5.284 -0.3448 -0.0467 -0.2301
  114MOL    C8322909   2.363   2.184   5.208 -0.0860 -0.3301 -0.1908
  114MOL    C8422910   2.336   2.233   5.085  0.0234  0.0820 -0.4055
  114MOL    C8522911   2.437   2.317   5.017 -0.4065 -0.3555  0.6601
  114MOL    H8622912   2.325   1.995   5.284 -0.2162 -0.0272  2.2034
  114MOL    H8722913   2.188   2.085   5.219  0.8105 -0.1425 -1.7695
  114MOL    H8822914   2.454   2.215   5.258  0.7883 -1.0028 -1.3193
  114MOL    H8922915   2.237   2.219   5.045 -0.9655  2.9714  0.9062
  114MOL    H9022916   2.531   2.325   5.071 -0.2590  1.5514  0.1731
  114MOL    H9122917   2.401   2.420   5.009  0.0935 -0.2265  0.0558
  114MOL    C9222918   2.473   2.272   4.874 -0.0966  0.9252  0.1374
  114MOL    C9322919   2.594   2.336   4.808 -0.2955 -1.2344  0.3974
  114MOL    C9422920   2.582   2.436   4.719 -0.0332 -0.5970  0.4455
  114MOL    C9522921   2.710   2.510   4.668 -0.4104  0.1628 -0.0614
  114MOL    H9622922   2.480   2.164   4.863 -1.2363  0.6345  2.1583
  114MOL    H9722923   2.385   2.310   4.821 -1.6800  0.2078  2.1807
  114MOL    H9822924   2.690   2.307   4.850 -1.5943  0.8467  5.1068
  114MOL    H9922925   2.485   2.459   4.678  0.6730  1.7140 -0.0077
  114MOL   H10022926   2.740   2.466   4.573  0.7832  1.1670 -0.1517
  114MOL   H10122927   2.802   2.500   4.725  0.7381  0.7824 -1.7703
  114MOL   C10222928   2.686   2.661   4.653  0.7568  0.4230 -0.1226
  114MOL   C10322929   2.794   2.729   4.579  0.5503 -0.1860  0.3204
  114MOL   C10422930   2.782   2.760   4.450  0.6018 -0.9489  0.2918
  114MOL   C10522931   2.890   2.824   4.368  0.1329 -0.1650 -0.2547
  114MOL   H10622932   2.596   2.689   4.598 -0.2261  0.2010  1.3405
  114MOL   H10722933   2.694   2.707   4.751 -0.4182  0.2657  0.0490
  114MOL   H10822934   2.884   2.738   4.639 -1.8099  1.9853  3.6966
  114MOL   H10922935   2.689   2.752   4.396  0.4531 -2.3113  0.7285
  114MOL   H11022936   2.985   2.795   4.412  0.8407  2.9421  0.3725
  114MOL   H11122937   2.875   2.932   4.369 -1.6472 -0.4018  1.5402
  114MOL   C11222938   2.886   2.781   4.219  0.2697  0.5536 -0.7736
  114MOL   C11322939   2.950   2.872   4.118  0.0875  0.4026 -0.3525
  114MOL   C11422940   3.021   2.836   4.012  0.1073  0.1972 -0.3973
  114MOL   C11522941   3.070   2.945   3.912  0.7328  0.4354 -0.0057
  114MOL   H11622942   2.948   2.692   4.208 -0.9678 -0.3587 -0.6052
  114MOL   H11722943   2.783   2.756   4.193 -0.5194  0.4928  2.2096
  114MOL   H11822944   2.919   2.975   4.126  1.0285  0.5483  1.7812
  114MOL   H11922945   3.028   2.730   3.994  0.0942  0.1021  0.1624
  114MOL   H12022946   3.090   3.040   3.962  0.7231  1.5378 -2.0441
  114MOL   H12122947   2.988   2.963   3.842  1.7086  3.7506 -0.3947
  114MOL   C12222948   3.198   2.907   3.834 -0.4529 -0.0482 -0.0632
  114MOL   C12322949   3.217   3.005   3.721 -0.0696 -0.8118 -0.1866
  114MOL   C12422950   3.191   2.977   3.594 -0.4626  0.2914  0.5950
  114MOL   C12522951   3.210   3.067   3.472  0.0564  0.3416 -0.2355
  114MOL   H12622952   3.278   2.906   3.909 -2.2553 -0.8757  1.9100
  114MOL   H12722953   3.187   2.807   3.792 -0.0853  0.1448 -0.6157
  114MOL   H12822954   3.262   3.102   3.736 -1.5069 -0.1346 -0.2306
  114MOL   H12922955   3.161   2.877   3.569 -0.4998  0.1217  1.3035
  114MOL   H13022956   3.269   3.019   3.394  0.5937 -1.2481  1.1196
  114MOL   H13122957   3.267   3.155   3.501 -0.7113  0.7222  0.1399
  114MOL   C13222958   3.066   3.107   3.428  0.5164 -0.4409 -0.3957
  114MOL   C13322959   3.078   3.223   3.330  0.1853  0.1772  1.0388
  114MOL   C13422960   2.990   3.327   3.336 -0.6969 -0.0779  0.2947
  114MOL   C13522961   3.002   3.454   3.260  0.1009  0.6365 -0.1843
  114MOL   H13622962   3.019   3.014   3.395 -0.7692 -0.0838  0.3735
  114MOL   H13722963   3.013   3.136   3.519 -0.4665  0.1574 -1.1498
  114MOL   H13822964   3.158   3.232   3.258 -0.7361  0.2391  0.0089
  114MOL   H13922965   2.910   3.310   3.406  0.0652 -1.6032  0.8277
  114MOL   H14022966   2.910   3.469   3.204 -1.2469  1.2143  2.0936
  114MOL   H14122967   3.080   3.444   3.186 -0.6003 -0.8330 -0.7439
  114MOL   C14222968   3.007   3.574   3.353  0.0768  0.2218 -0.4867
  114MOL   C14322969   3.026   3.704   3.280 -0.2070 -0.3952  0.4870
  114MOL   C14422970   3.138   3.778   3.290 -0.5200 -0.1589 -0.5673
  114MOL   C14522971   3.154   3.911   3.219 -0.2809 -0.0407 -0.0968
  114MOL   H14622972   2.911   3.582   3.404  0.4617  2.9243 -0.1409
  114MOL   H14722973   3.082   3.559   3.431  0.4459 -1.4558 -1.1282
  114MOL   H14822974   2.945   3.720   3.210  0.8785  0.7737 -0.5382
  114MOL   H14922975   3.223   3.754   3.352 -0.7876  0.0380 -0.1246
  114MOL   H15022976   3.168   3.984   3.299  0.9541  0.7975 -1.0678
  114MOL   H15122977   3.060   3.940   3.172 -1.2247 -1.0395  1.1411
  114MOL   C15222978   3.262   3.918   3.114  0.5358 -0.2872 -0.3071
  114MOL   C15322979   3.292   4.069   3.092 -0.3235  0.0239  0.3698
  114MOL   C15422980   3.319   4.127   2.975  0.2670 -0.0702 -0.7398
  114MOL   C15522981   3.350   4.276   2.959  0.2671 -0.1379 -0.1945
  114MOL   H15622982   3.361   3.883   3.143  0.8750  2.1880  1.6917
  114MOL   H15722983   3.229   3.878   3.018 -0.4269  0.7964 -0.4444
  114MOL   H15822984   3.311   4.127   3.180 -0.9217  0.4289  0.2376
  114MOL   H15922985   3.327   4.065   2.887  0.9663 -2.6976  1.1189
  114MOL   H16022986   3.447   4.287   2.909 -0.1331  0.2639 -0.9000
  114MOL   H16122987   3.366   4.333   3.050  0.2628 -2.0252  1.0291
  114MOL   C16222988   3.240   4.327   2.866  0.2981  0.1363  0.3926
  114MOL   C16322989   3.281   4.461   2.808 -0.5181 -0.0775  0.4845
  114MOL   C16422990   3.204   4.563   2.779 -0.2089 -0.3624 -0.4120
  114MOL   C16522991   3.246   4.692   2.708 -0.1441 -0.1667 -0.1939
  114MOL   H16622992   3.237   4.259   2.781  0.5340  0.3888  0.1768
  114MOL   H16722993   3.142   4.332   2.912  1.3785  2.2644  2.6306
  114MOL   H16822994   3.384   4.472   2.775 -0.6918 -0.7292 -0.3031
  114MOL   H16922995   3.102   4.547   2.810  0.3737 -0.4610  1.5589
  114MOL   H17022996   3.196   4.695   2.611  1.3349  0.8859 -0.9336
  114MOL   H17122997   3.353   4.687   2.689  0.4541  0.7711  2.6678
  114MOL   C17222998   3.212   4.822   2.776 -0.4181 -0.1758  0.6616
  114MOL   C17322999   3.242   4.944   2.683 -0.4433 -0.8764  0.1777
  114MOL   C17423000   3.350   5.026   2.714  0.3648 -0.8656 -0.1928
  114MOL   C17523001   3.398   5.140   2.623 -0.5907 -0.5429  0.0540
  114MOL   H17623002   3.106   4.827   2.799 -1.4180  1.4186 -3.8264
  114MOL   H17723003   3.255   4.828   2.876  0.8883  1.3339  0.0419
  114MOL   H17823004   3.187   4.949   2.590  0.8032 -2.5829 -0.6719
  114MOL   H17923005   3.390   5.018   2.813  1.0344 -0.6710 -0.4507
  114MOL   H18023006   3.408   5.226   2.689  0.1280 -1.3064  0.9616
  114MOL   H18123007   3.323   5.156   2.545  1.2122 -0.5363 -1.7275
  114MOL   C18223008   3.543   5.126   2.558  0.1197  0.9877 -0.0662
  114MOL   C18323009   3.594   5.253   2.495  0.2762  0.0812  1.0869
  114MOL   C18423010   3.578   5.284   2.365 -0.5892 -0.5513 -0.8490
  114MOL   C18523011   3.613   5.415   2.303 -0.2300 -1.3282  0.4593
  114MOL   H18623012   3.616   5.091   2.631 -1.6052 -2.9704 -0.1007
  114MOL   H18723013   3.529   5.048   2.483  3.4922 -0.4871  0.7365
  114MOL   H18823014   3.655   5.318   2.555  0.2082  0.0508  1.1879
  114MOL   H18923015   3.532   5.211   2.301 -2.3983  0.6486 -0.9601
  114MOL   H19023016   3.717   5.410   2.272 -0.4897  0.5347 -0.7854
  114MOL   H19123017   3.605   5.504   2.365  1.7087 -1.1243  0.4341
  114MOL   C19223018   3.527   5.445   2.177 -0.4713  0.4552 -0.4527
  114MOL   C19323019   3.555   5.355   2.067  0.3089 -0.1108  0.6509
  114MOL   C19423020   3.460   5.283   2.005 -0.1469  0.6680  0.1037
  114MOL   C19523021   3.481   5.188   1.877 -0.4589 -0.7155  0.0908
  114MOL   H19623022   3.424   5.428   2.207  0.3735 -0.3645  2.1434
  114MOL   H19723023   3.538   5.551   2.156  0.7963  0.5053  0.3869
  114MOL   H19823024   3.658   5.346   2.036 -0.1302 -1.1279 -0.5285
  114MOL   H19923025   3.358   5.306   2.033 -0.6901 -0.9773 -0.4583
  114MOL   H20023026   3.433   5.242   1.795  0.1847 -3.0952 -1.9135
  114MOL   H20123027   3.445   5.087   1.898  0.6734 -0.5620  2.9207
  114MOL   H20223028   3.588   5.176   1.863 -0.4736 -2.7997  1.5763
  115MOL     C123029   4.680   6.252   2.054 -0.6798 -0.0288 -0.4149
  115MOL     C223030   4.639   6.247   2.202  0.8023  0.6631  0.3487
  115MOL     C323031   4.728   6.253   2.305  0.2502 -0.1107  0.2192
  115MOL     C423032   4.693   6.242   2.453  0.6613 -0.3457  0.2757
  115MOL     H523033   4.655   6.155   2.012  0.4059 -0.4867 -0.0230
  115MOL     H623034   4.784   6.268   2.029 -1.1572  0.2557 -2.2505
  115MOL     H723035   4.533   6.238   2.220  1.0016  0.1555  1.2834
  115MOL     H823036   4.834   6.248   2.286  0.2554 -0.8661  0.4297
  115MOL     H923037   4.586   6.230   2.462  0.5552  0.7732  0.6210
  115MOL    H1023038   4.724   6.340   2.490  0.5791 -1.1060  2.4103
  115MOL    H1123039   4.608   6.313   1.999 -2.3116 -1.2289  0.3364
  115MOL    C1223040   4.755   6.121   2.515 -0.7681  0.3113  0.1762
  115MOL    C1323041   4.687   6.075   2.639  0.3630 -1.0655 -0.6897
  115MOL    C1423042   4.629   6.151   2.733  0.1698  0.0106 -0.0591
  115MOL    C1523043   4.586   6.098   2.861  0.2888  0.8206  0.5575
  115MOL    H1623044   4.749   6.045   2.437  1.5740 -0.4861  0.7507
  115MOL    H1723045   4.859   6.144   2.536 -1.5060  2.1272  2.0359
  115MOL    H1823046   4.703   5.971   2.664  0.3435 -0.6531  1.1031
  115MOL    H1923047   4.638   6.259   2.732 -0.6230  0.0735 -0.4642
  115MOL    H2023048   4.571   5.990   2.856  1.7544  0.6199  0.1406
  115MOL    H2123049   4.488   6.136   2.890 -0.0166 -0.7690  1.7154
  115MOL    C2223050   4.682   6.133   2.971 -0.6387 -0.2967 -0.0903
  115MOL    C2323051   4.669   6.041   3.092 -0.0065 -0.3444 -0.4964
  115MOL    C2423052   4.615   6.083   3.207 -0.0227 -0.2916 -1.1062
  115MOL    C2523053   4.570   5.993   3.321  0.6274  0.3042  0.2725
  115MOL    H2623054   4.782   6.137   2.927 -1.0362 -1.2213 -1.0887
  115MOL    H2723055   4.654   6.233   3.005  0.5279 -0.1276  0.4063
  115MOL    H2823056   4.696   5.938   3.073 -1.3878 -0.7649 -0.2201
  115MOL    H2923057   4.600   6.189   3.217 -1.2019 -0.3560 -2.1055
  115MOL    H3023058   4.595   5.893   3.287  0.0733 -0.5349  2.2812
  115MOL    H3123059   4.462   6.010   3.322  0.3927 -0.8761 -1.7716
  115MOL    C3223060   4.643   6.042   3.446  0.1873 -0.2190 -0.1502
  115MOL    C3323061   4.762   5.947   3.472  0.1251  0.2308  0.2008
  115MOL    C3423062   4.804   5.931   3.598 -0.1353  0.2952 -0.2595
  115MOL    C3523063   4.923   5.847   3.640  0.4953  0.3347  0.0665
  115MOL    H3623064   4.666   6.148   3.447 -1.5593  0.1543  0.5425
  115MOL    H3723065   4.575   6.015   3.526 -1.5626  2.5504 -0.6509
  115MOL    H3823066   4.818   5.904   3.391 -2.7686 -0.4504 -1.4944
  115MOL    H3923067   4.756   5.992   3.673 -1.3219 -0.4641 -0.3848
  115MOL    H4023068   5.009   5.912   3.654  0.1550  1.1160 -1.3330
  115MOL    H4123069   4.939   5.760   3.576  1.2141 -0.9011  1.8804
  115MOL    C4223070   4.901   5.801   3.786 -0.0479  0.0971  0.4732
  115MOL    C4323071   5.017   5.720   3.837  0.5526 -0.1034 -0.1363
  115MOL    C4423072   5.035   5.587   3.821 -0.1403 -0.1576  0.2631
  115MOL    C4523073   5.167   5.516   3.858  1.5233 -1.0370  0.1943
  115MOL    H4623074   4.886   5.884   3.855 -1.3656  1.3453 -1.2735
  115MOL    H4723075   4.807   5.746   3.785 -0.2860  0.3628 -3.8112
  115MOL    H4823076   5.106   5.771   3.871 -1.1800  0.5645  3.6212
  115MOL    H4923077   4.960   5.528   3.770  0.6105  0.1798 -1.2547
  115MOL    H5023078   5.146   5.434   3.927  0.0403 -0.5622  0.3090
  115MOL    H5123079   5.231   5.581   3.918 -1.2181  0.0747  2.0190
  115MOL    C5223080   5.231   5.451   3.738  0.2047 -0.2253  0.2454
  115MOL    C5323081   5.369   5.408   3.762  0.7310  0.0171 -0.0076
  115MOL    C5423082   5.417   5.290   3.734 -0.8393 -0.9959  0.2843
  115MOL    C5523083   5.556   5.250   3.770  0.0244  0.1452  0.5090
  115MOL    H5623084   5.163   5.372   3.707 -1.5698  0.5516  2.0285
  115MOL    H5723085   5.242   5.523   3.657 -2.1114 -0.3822 -0.2517
  115MOL    H5823086   5.433   5.473   3.821  0.4055 -0.9344  1.4198
  115MOL    H5923087   5.357   5.214   3.687 -2.4132 -0.4904  1.4486
  115MOL    H6023088   5.560   5.156   3.826  0.1842  0.3353  0.8186
  115MOL    H6123089   5.606   5.322   3.834 -1.8975 -0.1350  2.3863
  115MOL    C6223090   5.644   5.237   3.642  0.0746  0.8924 -0.0593
  115MOL    C6323091   5.787   5.219   3.694  0.3508 -0.0014  0.7226
  115MOL    C6423092   5.863   5.117   3.669 -0.3604  0.8426  0.7356
  115MOL    C6523093   5.992   5.096   3.735 -0.7954  0.2721  0.4721
  115MOL    H6623094   5.612   5.151   3.585  0.7225  0.9383 -0.5047
  115MOL    H6723095   5.635   5.324   3.577 -1.1285 -0.0049 -1.0996
  115MOL    H6823096   5.821   5.304   3.752 -0.7644 -0.1083  1.5445
  115MOL    H6923097   5.825   5.042   3.601  0.9097 -0.4954  1.4567
  115MOL    H7023098   6.019   4.990   3.734 -1.1923  0.1671  0.8835
  115MOL    H7123099   5.993   5.141   3.834 -1.4272 -0.7056  0.9257
  115MOL    C7223100   6.107   5.169   3.663  0.1589  0.0890 -0.6712
  115MOL    C7323101   6.244   5.140   3.717 -1.1488 -0.1466 -0.1302
  115MOL    C7423102   6.351   5.109   3.635  0.3436  0.1280 -0.2722
  115MOL    C7523103   6.493   5.091   3.675 -0.0031  0.8673  0.8549
  115MOL    H7623104   6.098   5.141   3.558  0.5490  1.0967 -0.9748
  115MOL    H7723105   6.096   5.277   3.655  2.1668  0.7196  3.6561
  115MOL    H7823106   6.254   5.146   3.824  0.6293 -0.9985 -0.2311
  115MOL    H7923107   6.337   5.111   3.528 -0.0895  2.4192 -0.1982
  115MOL    H8023108   6.514   4.985   3.663  0.8491  1.1352 -0.0473
  115MOL    H8123109   6.512   5.100   3.782  1.7999  0.7462  0.5633
  115MOL    C8223110   6.592   5.181   3.596  0.0724 -0.4430 -0.0101
  115MOL    C8323111   6.711   5.111   3.538 -0.6637  0.4072  0.4183
  115MOL    C8423112   6.833   5.135   3.579  0.8223  0.6915 -0.4979
  115MOL    C8523113   6.960   5.075   3.519 -0.9028 -0.2403 -0.3741
  115MOL    H8623114   6.547   5.243   3.519  0.7363 -0.0692 -0.1019
  115MOL    H8723115   6.621   5.270   3.652  0.9175 -0.5243 -0.3099
  115MOL    H8823116   6.704   5.048   3.450  0.2022 -0.7964  1.1849
  115MOL    H8923117   6.843   5.213   3.653  1.9718  0.8101 -0.7767
  115MOL    H9023118   6.911   5.027   3.434  3.0347  0.1714 -3.0340
  115MOL    H9123119   7.001   4.995   3.579 -1.9051 -0.3507  0.1688
  115MOL    C9223120   7.061   5.179   3.487  0.5837 -0.2047 -0.0148
  115MOL    C9323121   7.180   5.121   3.419 -0.6322 -0.3108 -0.5285
  115MOL    C9423122   7.278   5.199   3.368 -0.5691 -0.0410  0.3300
  115MOL    C9523123   7.405   5.135   3.315 -0.2082  0.1291 -0.8469
  115MOL    H9623124   7.006   5.263   3.444 -0.7131 -2.3564 -2.6977
  115MOL    H9723125   7.087   5.222   3.584 -1.7320  0.9385  0.1500
  115MOL    H9823126   7.188   5.013   3.418 -0.2562 -0.3947  3.6332
  115MOL    H9923127   7.276   5.307   3.364  0.4629  0.0593  1.8954
  115MOL   H10023128   7.445   5.069   3.391  0.9089  0.8572 -0.7842
  115MOL   H10123129   7.477   5.216   3.302 -0.5625  0.5535 -0.1497
  115MOL   C10223130   7.392   5.066   3.178  0.0336 -1.2132  0.2553
  115MOL   C10323131   7.522   5.011   3.142 -0.5795  0.2287  0.2097
  115MOL   C10423132   7.611   5.086   3.076  0.6588  0.7073  0.4186
  115MOL   C10523133   7.755   5.042   3.048  0.4072 -0.7170 -0.3369
  115MOL   H10623134   7.325   4.980   3.189 -1.6259 -0.1286 -1.0433
  115MOL   H10723135   7.352   5.125   3.095  0.6423 -2.0901 -0.6787
  115MOL   H10823136   7.545   4.911   3.176  1.1940  1.1110  1.6672
  115MOL   H10923137   7.573   5.182   3.044  0.2082 -0.3492 -2.3176
  115MOL   H11023138   7.753   5.057   2.940 -0.8452  1.5844 -0.0345
  115MOL   H11123139   7.768   4.935   3.063  2.4362 -0.1697  2.0121
  115MOL   C11223140   7.859   5.136   3.114 -1.1349  0.1809 -0.3974
  115MOL   C11323141   7.829   5.285   3.110  0.2271 -0.3871  0.7021
  115MOL   C11423142   7.793   5.362   3.215 -0.2682  0.0897 -0.3949
  115MOL   C11523143   7.772   5.520   3.207 -0.2369  0.4620  0.0857
  115MOL   H11623144   7.874   5.114   3.219 -0.6258 -0.2050 -0.5543
  115MOL   H11723145   7.958   5.121   3.072  0.1075  1.0686  2.1409
  115MOL   H11823146   7.863   5.315   3.012  0.9955  1.6489  1.5642
  115MOL   H11923147   7.759   5.318   3.307  0.5649 -0.9963 -0.6067
  115MOL   H12023148   7.782   5.540   3.100  1.4438 -2.4184 -0.3598
  115MOL   H12123149   7.848   5.575   3.262 -0.7956 -0.9810  2.3739
  115MOL   C12223150   7.629   5.554   3.247 -0.2754  0.3596  0.5091
  115MOL   C12323151   7.620   5.705   3.275  0.2933 -0.2646  0.0572
  115MOL   C12423152   7.534   5.789   3.214 -0.3212  0.1583 -0.1387
  115MOL   C12523153   7.533   5.935   3.231 -0.5860 -0.6831 -0.6826
  115MOL   H12623154   7.556   5.517   3.175  1.0650 -1.9425  0.3205
  115MOL   H12723155   7.604   5.502   3.340  0.9657 -0.6136  0.3044
  115MOL   H12823156   7.699   5.745   3.337 -0.3150 -1.4939  1.6472
  115MOL   H12923157   7.462   5.742   3.148 -2.3313 -1.1002  2.8580
  115MOL   H13023158   7.602   5.961   3.312 -1.2872  0.4105 -0.4355
  115MOL   H13123159   7.438   5.967   3.272 -0.1456  0.3936 -0.4941
  115MOL   C13223160   7.574   6.015   3.106  0.3607 -0.5609  0.6750
  115MOL   C13323161   7.697   5.957   3.045 -0.2012 -0.5201 -0.0500
  115MOL   C13423162   7.811   6.027   3.032 -0.2100  0.8846 -0.3021
  115MOL   C13523163   7.935   5.970   2.970  0.4554 -0.1272 -0.1933
  115MOL   H13623164   7.489   6.010   3.040  0.6061  1.1627  0.1998
  115MOL   H13723165   7.590   6.122   3.125  1.1553 -0.4558 -0.5489
  115MOL   H13823166   7.697   5.854   3.014  1.4965 -0.1809 -1.2448
  115MOL   H13923167   7.811   6.130   3.063 -2.3651  1.2658 -1.5341
  115MOL   H14023168   7.917   5.871   2.928 -0.5960  0.0431 -0.1566
  115MOL   H14123169   0.043   5.977   3.037 -1.0049  1.9010  1.5390
  115MOL   C14223170   7.968   6.052   2.848  0.1629  0.3156 -0.2268
  115MOL   C14323171   0.131   6.026   2.796 -0.2107 -0.4511  0.2383
  115MOL   C14423172   0.168   6.029   2.664 -0.5687  0.3791 -0.6237
  115MOL   C14523173   0.303   6.014   2.603 -0.6067  0.1614  0.0683
  115MOL   H14623174   7.884   6.047   2.779 -0.0847 -1.5719  0.1982
  115MOL   H14723175   7.973   6.159   2.867 -1.3418  0.5953 -1.3370
  115MOL   H14823176   0.208   6.007   2.870 -0.4940  0.1456  0.6943
  115MOL   H14923177   0.085   6.045   2.597 -0.1039  2.1697 -0.8097
  115MOL   H15023178   0.379   6.009   2.681 -0.2732 -1.1854 -0.3406
  115MOL   H15123179   0.317   6.102   2.541 -0.0543  2.6377  3.5618
  115MOL   C15223180   0.320   5.880   2.529 -0.3692  0.3966  0.0561
  115MOL   C15323181   0.208   5.864   2.425  0.8203 -0.3800 -0.1758
  115MOL   C15423182   0.107   5.778   2.428  0.6816  0.5317  0.0119
  115MOL   C15523183   0.015   5.757   2.309  0.0487  0.2813 -0.5719
  115MOL   H15623184   0.410   5.880   2.467 -0.3528 -1.7867  0.0384
  115MOL   H15723185   0.318   5.797   2.600  0.8632 -2.1396 -2.7345
  115MOL   H15823186   0.217   5.918   2.332 -0.8884 -0.1837 -0.2314
  115MOL   H15923187   0.088   5.711   2.511  1.1789 -2.3879 -2.1604
  115MOL   H16023188   0.005   5.651   2.286 -0.0128  0.8352 -3.3681
  115MOL   H16123189   0.061   5.799   2.219 -0.7237  2.0496 -0.1661
  115MOL   C16223190   7.845   5.815   2.337 -0.8560 -0.2104  0.1792
  115MOL   C16323191   7.737   5.774   2.238  0.6481 -0.0449  0.3841
  115MOL   C16423192   7.615   5.720   2.272  0.0704  0.0623  0.7966
  115MOL   C16523193   7.525   5.671   2.158  0.2106  0.3345  0.6855
  115MOL   H16623194   7.823   5.782   2.439  3.3580  0.6330  1.4725
  115MOL   H16723195   7.852   5.924   2.327 -0.2504 -0.1309  1.3730
  115MOL   H16823196   7.758   5.772   2.132 -0.6976 -0.5618  0.1120
  115MOL   H16923197   7.572   5.731   2.371 -2.7000 -2.5699 -0.0294
  115MOL   H17023198   7.570   5.683   2.060  1.7838  0.0222  1.3628
  115MOL   H17123199   7.440   5.738   2.144 -0.7179 -0.7871  0.8164
  115MOL   C17223200   7.486   5.515   2.172  0.0133 -0.5691 -0.7451
  115MOL   C17323201   7.405   5.463   2.057  0.0988  0.4522  0.0693
  115MOL   C17423202   7.270   5.479   2.058 -0.1545  0.0859  1.0631
  115MOL   C17523203   7.179   5.440   1.951  0.2692 -0.3053  0.0197
  115MOL   H17623204   7.576   5.454   2.181  1.3923  1.7057  1.4586
  115MOL   H17723205   7.434   5.510   2.268  0.2118 -1.6168 -0.6902
  115MOL   H17823206   7.462   5.408   1.983 -0.1611  2.5091 -1.7093
  115MOL   H17923207   7.230   5.534   2.143 -1.0449 -1.5304  1.7123
  115MOL   H18023208   7.248   5.401   1.876  1.3044  0.2769  0.6396
  115MOL   H18123209   7.143   5.532   1.906  1.8756  0.3266 -0.0069
  115MOL   C18223210   7.078   5.335   1.999  0.6601  0.9134 -0.7912
  115MOL   C18323211   7.138   5.196   2.007  0.5421 -0.6132 -0.4775
  115MOL   C18423212   7.160   5.128   1.898 -0.0946  0.6502  0.0143
  115MOL   C18523213   7.204   4.980   1.898 -0.2513  0.1297 -0.0081
  115MOL   H18623214   7.030   5.367   2.091  0.5348  0.2108 -0.6117
  115MOL   H18723215   7.011   5.341   1.913 -0.2104 -2.6368 -0.4629
  115MOL   H18823216   7.157   5.153   2.104 -0.8560  0.7844  0.4387
  115MOL   H18923217   7.136   5.173   1.803 -0.6588  1.2869  0.4540
  115MOL   H19023218   7.200   4.941   1.999 -0.2679 -0.1448 -0.1131
  115MOL   H19123219   7.308   4.989   1.865 -0.0344  2.3297  1.2231
  115MOL   C19223220   7.132   4.890   1.798 -0.2466 -0.2026  0.7721
  115MOL   C19323221   7.137   4.935   1.656  0.2230  0.5905 -0.0266
  115MOL   C19423222   7.180   4.855   1.558 -1.0085 -0.0407 -0.4079
  115MOL   C19523223   7.182   4.896   1.411  0.4213  0.2296  0.3128
  115MOL   H19623224   7.170   4.788   1.797  0.6074  0.1231 -0.6569
  115MOL   H19723225   7.027   4.883   1.827 -0.5091  1.6566  0.3375
  115MOL   H19823226   7.092   5.027   1.623  1.3149  1.3832  0.6643
  115MOL   H19923227   7.221   4.758   1.578 -1.9050 -0.2132  0.6329
  115MOL   H20023228   7.271   4.951   1.383  0.8334 -0.9943 -0.8335
  115MOL   H20123229   7.094   4.958   1.397 -1.3109 -2.1645  0.1847
  115MOL   H20223230   7.178   4.818   1.335 -1.5068 -0.3648  0.9926
  116MOL     C123231   6.236   4.932   5.724  0.6575  0.2573 -0.1266
  116MOL     C223232   6.252   4.782   5.691  0.5076  0.3051  0.3794
  116MOL     C323233   6.169   4.683   5.722  0.0460  0.1058 -0.2444
  116MOL     C423234   6.182   4.538   5.670  0.0021 -0.2625  0.5309
  116MOL     H523235   6.195   4.987   5.639  0.4019 -2.6684 -1.9881
  116MOL     H623236   6.330   4.971   5.761 -0.0197  0.6823  1.1541
  116MOL     H723237   6.330   4.752   5.623 -0.4072  1.9046 -1.4284
  116MOL     H823238   6.090   4.701   5.792  0.7440 -2.3667  1.2427
  116MOL     H923239   6.267   4.531   5.601 -0.4888 -2.1619  0.1032
  116MOL    H1023240   6.091   4.515   5.614  1.2510  0.0408 -1.7092
  116MOL    H1123241   6.168   4.946   5.808  0.7909 -0.3303  0.0814
  116MOL    C1223242   6.199   4.430   5.775 -1.0692  0.6634 -0.2652
  116MOL    C1323243   6.217   4.286   5.722 -0.7841  0.6855  0.8593
  116MOL    C1423244   6.237   4.255   5.592 -0.4788  0.2736 -0.1200
  116MOL    C1523245   6.261   4.111   5.544  0.9884  0.5472  0.2712
  116MOL    H1623246   6.289   4.455   5.830 -0.3237 -0.4453 -0.9819
  116MOL    H1723247   6.113   4.416   5.841 -2.1328  0.7154 -1.5973
  116MOL    H1823248   6.224   4.204   5.792 -0.4106  0.8914  1.0658
  116MOL    H1923249   6.233   4.333   5.518  3.2946  1.6720  1.0465
  116MOL    H2023250   6.171   4.088   5.487  0.9583 -0.9085  0.8785
  116MOL    H2123251   6.267   4.044   5.630 -1.4179 -0.7733 -0.5299
  116MOL    C2223252   6.393   4.120   5.460  0.8043  0.4132  0.1573
  116MOL    C2323253   6.413   3.983   5.393 -0.1510  0.0979 -1.0024
  116MOL    C2423254   6.531   3.923   5.388  0.0707  0.0269  0.3734
  116MOL    C2523255   6.555   3.783   5.344 -0.8326 -0.0545 -0.5312
  116MOL    H2623256   6.370   4.199   5.389  0.3007 -0.8324 -1.1041
  116MOL    H2723257   6.475   4.141   5.529  2.8030 -0.7731 -1.7780
  116MOL    H2823258   6.322   3.946   5.348 -0.4066  1.3219 -1.5016
  116MOL    H2923259   6.627   3.959   5.421 -0.3518  0.3207  1.3162
  116MOL    H3023260   6.466   3.739   5.299 -0.7702  0.6483 -1.3666
  116MOL    H3123261   6.561   3.723   5.435  1.4136  1.0384  0.0865
  116MOL    C3223262   6.683   3.763   5.249  0.3979  0.5375  0.3834
  116MOL    C3323263   6.659   3.826   5.115  0.2535  0.1997 -0.3719
  116MOL    C3423264   6.739   3.915   5.054  0.1205  0.0312  0.4891
  116MOL    C3523265   6.699   3.987   4.922 -0.8124 -0.7343 -0.3732
  116MOL    H3623266   6.775   3.810   5.286  0.1545  0.8594  0.5762
  116MOL    H3723267   6.683   3.654   5.243  3.0644  0.4868  0.6948
  116MOL    H3823268   6.575   3.787   5.060  1.0452 -3.0661  0.6071
  116MOL    H3923269   6.833   3.943   5.100  0.3648  0.9963 -0.5736
  116MOL    H4023270   6.598   3.961   4.890 -0.0620 -1.7322 -1.9752
  116MOL    H4123271   6.762   3.944   4.845  1.3443 -1.9043  1.9703
  116MOL    C4223272   6.707   4.136   4.925 -0.4864 -0.4735  0.0144
  116MOL    C4323273   6.654   4.205   4.797 -0.1384 -0.5750 -0.3149
  116MOL    C4423274   6.553   4.296   4.789 -0.5972  0.3261 -0.3639
  116MOL    C4523275   6.505   4.368   4.664  0.1419  0.3278  0.7155
  116MOL    H4623276   6.659   4.176   5.014 -0.9782  0.5041 -0.6703
  116MOL    H4723277   6.812   4.160   4.942 -0.0404 -1.8354 -0.7399
  116MOL    H4823278   6.694   4.170   4.703  1.5477 -0.8522  0.5004
  116MOL    H4923279   6.516   4.326   4.886  1.7834  0.2721  0.5995
  116MOL    H5023280   6.570   4.339   4.581  1.9255  1.2874  1.7434
  116MOL    H5123281   6.535   4.472   4.671 -0.6219  0.4722  1.9660
  116MOL    C5223282   6.363   4.350   4.631  0.3452  0.4182 -0.9450
  116MOL    C5323283   6.274   4.429   4.728  0.0397  0.6064 -0.1995
  116MOL    C5423284   6.172   4.511   4.695  0.4915 -0.6305 -0.5896
  116MOL    C5523285   6.081   4.586   4.788  0.4271  0.0776  0.4871
  116MOL    H5623286   6.340   4.387   4.532  1.0172  2.1248 -0.4787
  116MOL    H5723287   6.337   4.244   4.632  0.6720  0.3429  0.2864
  116MOL    H5823288   6.296   4.414   4.832  1.2612 -3.8448 -1.0120
  116MOL    H5923289   6.142   4.504   4.591 -2.3497 -1.4909  0.2426
  116MOL    H6023290   6.147   4.620   4.868  2.5550  0.3711 -1.3434
  116MOL    H6123291   6.013   4.511   4.829 -0.2841  2.5744  4.1413
  116MOL    C6223292   6.011   4.702   4.732  0.4489 -0.4904 -0.2893
  116MOL    C6323293   5.966   4.804   4.831  0.2091  0.3461  0.7102
  116MOL    C6423294   5.840   4.851   4.843 -0.1367 -0.6283  0.7401
  116MOL    C6523295   5.799   4.961   4.941 -0.6430 -0.5666  0.8502
  116MOL    H6623296   6.075   4.747   4.656 -0.8797  1.5034 -0.2661
  116MOL    H6723297   5.928   4.664   4.672  0.0786 -2.1578  1.2098
  116MOL    H6823298   6.040   4.842   4.899 -1.1876  0.6041  2.1160
  116MOL    H6923299   5.764   4.815   4.775  1.0129  0.8246 -1.3924
  116MOL    H7023300   5.778   5.060   4.900 -0.0935 -1.3095 -1.2555
  116MOL    H7123301   5.888   4.969   5.003  0.7093 -0.8744 -1.0344
  116MOL    C7223302   5.680   4.912   5.034 -0.3586  0.6926  0.0280
  116MOL    C7323303   5.626   5.020   5.123  0.1660  0.2585  0.4501
  116MOL    C7423304   5.497   5.044   5.125 -0.0631 -0.4132  0.5254
  116MOL    C7523305   5.423   5.146   5.210 -1.3459  0.5077 -0.1886
  116MOL    H7623306   5.594   4.876   4.979  0.7539 -0.5796 -0.9096
  116MOL    H7723307   5.704   4.825   5.094 -1.8221 -0.5264 -1.1215
  116MOL    H7823308   5.692   5.061   5.198  1.1073 -0.7999  0.2212
  116MOL    H7923309   5.444   4.985   5.051  0.0300  0.4566 -0.2382
  116MOL    H8023310   5.411   5.239   5.155 -2.2196 -0.0625 -0.9815
  116MOL    H8123311   5.477   5.171   5.301 -0.3772  0.4198 -0.7392
  116MOL    C8223312   5.282   5.102   5.252  0.1826  0.2911  0.2008
  116MOL    C8323313   5.188   5.212   5.295  0.0419 -1.2977 -0.4759
  116MOL    C8423314   5.078   5.189   5.360 -0.1834  0.0635  0.1925
  116MOL    C8523315   4.982   5.288   5.415  0.3976 -0.4383 -0.1645
  116MOL    H8623316   5.230   5.065   5.164  2.8076  1.0151 -1.7517
  116MOL    H8723317   5.271   5.022   5.325  1.1531  1.3250  1.5084
  116MOL    H8823318   5.215   5.314   5.272 -2.1156 -0.5305  0.2090
  116MOL    H8923319   5.058   5.086   5.386  2.8952 -0.3852  0.9700
  116MOL    H9023320   4.883   5.279   5.370  0.9162  0.9863 -1.6596
  116MOL    H9123321   5.021   5.386   5.388  0.9870 -0.4028  0.8144
  116MOL    C9223322   4.974   5.289   5.564  0.1464  0.0219  0.0240
  116MOL    C9323323   5.102   5.316   5.635  0.2887  0.3558  0.1322
  116MOL    C9423324   5.119   5.399   5.740 -0.2234  0.2724 -0.0256
  116MOL    C9523325   5.255   5.411   5.807 -0.4821  0.2623  0.2407
  116MOL    H9623326   4.912   5.373   5.595  0.0108 -0.2380  0.4548
  116MOL    H9723327   4.932   5.197   5.605 -0.7080  0.1028 -0.6577
  116MOL    H9823328   5.184   5.253   5.605  1.0884  1.1503  0.6120
  116MOL    H9923329   5.037   5.465   5.761 -1.6901 -1.0691 -1.4191
  116MOL   H10023330   5.323   5.336   5.767 -0.7453  0.5352 -0.7449
  116MOL   H10123331   5.247   5.373   5.909  2.0112 -0.9618  0.0082
  116MOL   C10223332   5.299   5.560   5.803 -0.1533 -0.1348 -0.1195
  116MOL   C10323333   5.442   5.584   5.847 -0.7657  0.5976  0.8501
  116MOL   C10423334   5.533   5.491   5.876 -0.2736 -0.0473  0.1611
  116MOL   C10523335   5.676   5.514   5.914  0.4778 -0.8688  0.1745
  116MOL   H10623336   5.286   5.596   5.701 -2.2188 -2.5308 -0.7608
  116MOL   H10723337   5.227   5.609   5.868 -0.4021 -1.7810  0.8909
  116MOL   H10823338   5.470   5.688   5.845  0.5627  0.2542  1.2124
  116MOL   H10923339   5.509   5.386   5.886 -0.6021  0.1820  2.0740
  116MOL   H11023340   5.698   5.620   5.904 -1.2757 -0.6426 -1.5226
  116MOL   H11123341   5.739   5.455   5.847 -1.2515 -2.2044 -0.3198
  116MOL   C11223342   5.697   5.475   6.060  0.4951  0.0024  0.1778
  116MOL   C11323343   5.798   5.566   6.128 -0.8656 -0.8655  0.1182
  116MOL   C11423344   5.891   5.529   6.218  0.6802  0.3108  0.3436
  116MOL   C11523345   5.995   5.622   6.270 -0.6794  0.1534  0.5031
  116MOL   H11623346   5.606   5.494   6.116  0.9617 -1.1989  1.3709
  116MOL   H11723347   5.726   5.370   6.069 -1.7143 -0.5913  0.4569
  116MOL   H11823348   5.813   5.670   6.100 -1.2291 -0.5202  1.1903
  116MOL   H11923349   5.900   5.426   6.249  0.0294  0.2240  0.2434
  116MOL   H12023350   6.010   5.694   6.189 -2.0734  1.1862  1.1485
  116MOL   H12123351   6.083   5.561   6.292 -1.6824 -2.8712 -3.4033
  116MOL   C12223352   5.957   5.712   6.391  0.0633 -0.3766  0.3572
  116MOL   C12323353   6.071   5.816   6.416 -0.5761 -0.2740  0.2896
  116MOL   C12423354   6.145   5.821   6.526 -0.2506  0.4505 -1.0113
  116MOL   C12523355   6.263   5.905   6.550 -1.2159  0.5986 -0.4671
  116MOL   H12623356   5.877   5.781   6.364  0.8143 -0.2210 -1.4860
  116MOL   H12723357   5.911   5.661   6.476 -1.0012  2.6821  1.6764
  116MOL   H12823358   6.083   5.901   6.349  1.1501  0.1631  1.1169
  116MOL   H12923359   6.128   5.747   6.604  0.0708  1.1939 -0.2344
  116MOL   H13023360   6.239   5.991   6.613  0.3813  1.2253 -0.6715
  116MOL   H13123361   6.292   5.938   6.450 -0.8427 -1.6617 -1.1365
  116MOL   C13223362   6.377   5.838   6.624 -0.6333 -0.0593 -0.2536
  116MOL   C13323363   6.430   5.709   6.554  0.9526 -0.9964 -0.0886
  116MOL   C13423364   6.404   5.588   6.603 -0.5187  0.9744 -0.2768
  116MOL   C13523365   6.435   5.462   6.543  0.8045 -0.2811 -0.0713
  116MOL   H13623366   6.455   5.911   6.647 -1.2464  0.4756  0.1152
  116MOL   H13723367   6.337   5.810   6.721  1.8003 -0.5997  0.6353
  116MOL   H13823368   6.463   5.714   6.451 -3.1790 -0.1200 -1.4838
  116MOL   H13923369   6.361   5.583   6.702 -2.3124  0.8100 -1.0455
  116MOL   H14023370   6.506   5.411   6.608 -0.1535 -3.6453 -1.5388
  116MOL   H14123371   6.488   5.463   6.448 -0.7398 -0.9531 -0.9488
  116MOL   C14223372   6.312   5.366   6.527 -0.5171 -0.0008 -0.4119
  116MOL   C14323373   6.217   5.359   6.646  0.2011  0.2149  0.9514
  116MOL   C14423374   6.084   5.345   6.642 -0.0826  0.5121 -0.0995
  116MOL   C14523375   5.995   5.329   6.765 -0.0477  0.1071 -0.0650
  116MOL   H14623376   6.268   5.384   6.429 -0.0867  0.4950 -0.5216
  116MOL   H14723377   6.349   5.265   6.507  0.4729  0.0965  0.8156
  116MOL   H14823378   6.271   5.347   6.739 -2.9225  1.1918  2.9661
  116MOL   H14923379   6.039   5.359   6.545  0.9337 -2.3747 -1.0163
  116MOL   H15023380   5.945   5.426   6.764  0.3592  0.3158 -0.0841
  116MOL   H15123381   6.047   5.314   6.860 -0.1668  1.7092  0.2651
  116MOL   C15223382   5.895   5.219   6.739 -0.0296  0.0242 -0.0416
  116MOL   C15323383   5.807   5.208   6.863  0.0627  0.8150  0.4404
  116MOL   C15423384   5.683   5.244   6.872  0.2191 -0.4184  0.1627
  116MOL   C15523385   5.598   5.261   6.997  0.2054  0.4373 -0.0663
  116MOL   H15623386   5.838   5.244   6.649  0.9273  1.3984 -0.2921
  116MOL   H15723387   5.933   5.120   6.715  1.0808  0.3399  0.3839
  116MOL   H15823388   5.855   5.161   6.948  1.9772  0.6636 -0.7003
  116MOL   H15923389   5.640   5.296   6.788 -1.6383  0.7297  1.7743
  116MOL   H16023390   5.633   5.186   7.068 -1.1707 -0.2601 -0.1014
  116MOL   H16123391   5.496   5.234   6.972  0.4211 -1.9805  1.4246
  116MOL   C16223392   5.592   5.401   7.061  0.1815 -0.8129 -0.0676
  116MOL   C16323393   5.550   5.510   6.959 -0.2384 -0.1141 -0.2241
  116MOL   C16423394   5.450   5.596   6.973  0.1746 -0.1101  0.3845
  116MOL   C16523395   5.388   5.680   6.868 -0.1797  0.4225  0.1956
  116MOL   H16623396   5.529   5.397   7.150 -2.4707 -3.2444 -1.9892
  116MOL   H16723397   5.692   5.426   7.098  0.1054 -1.5835  0.6588
  116MOL   H16823398   5.579   5.506   6.855  1.4715 -3.3304  0.3073
  116MOL   H16923399   5.402   5.606   7.069  1.3020  1.4528  0.7970
  116MOL   H17023400   5.304   5.630   6.819 -0.3362  1.1806 -0.3152
  116MOL   H17123401   5.462   5.677   6.789  3.3188  0.4755  3.3363
  116MOL   C17223402   5.357   5.817   6.921  0.2697  0.5566  0.5128
  116MOL   C17323403   5.266   5.895   6.828  0.4605 -0.3406 -0.0605
  116MOL   C17423404   5.253   6.029   6.831 -0.3268  0.2689 -0.1314
  116MOL   C17523405   5.159   6.110   6.749  0.0307 -0.4766 -0.2283
  116MOL   H17623406   5.297   5.807   7.012 -3.6044  1.1617 -1.8808
  116MOL   H17723407   5.443   5.874   6.956  1.0532 -1.0601  1.2402
  116MOL   H17823408   5.210   5.836   6.757  0.0576  1.6159 -1.3910
  116MOL   H17923409   5.307   6.076   6.912  0.8658 -1.4322  0.1040
  116MOL   H18023410   5.112   6.042   6.679  0.3757 -1.2634  0.3024
  116MOL   H18123411   5.198   6.194   6.692 -0.6452  0.6393  0.9217
  116MOL   C18223412   5.060   6.155   6.852  0.3513  0.1994  0.1062
  116MOL   C18323413   4.949   6.246   6.802 -0.2417  0.0683 -0.0872
  116MOL   C18423414   4.925   6.372   6.848 -0.2611  0.4650 -0.3521
  116MOL   C18523415   4.803   6.446   6.822  0.3817  0.1437  0.2869
  116MOL   H18623416   5.009   6.074   6.906 -1.4178 -0.2216 -2.0915
  116MOL   H18723417   5.119   6.215   6.921 -1.1439  1.3634  0.3892
  116MOL   H18823418   4.883   6.199   6.731 -0.1150 -0.7385  0.3176
  116MOL   H18923419   4.996   6.418   6.916 -0.8803 -1.0051  1.3101
  116MOL   H19023420   4.738   6.450   6.910 -0.0811  0.1807 -0.0539
  116MOL   H19123421   4.756   6.394   6.739  0.7554  1.6516 -0.8874
  116MOL   C19223422   4.830   6.596   6.792  0.2422 -0.0654  0.4624
  116MOL   C19323423   4.908   6.604   6.669  0.0866 -0.0236  0.2579
  116MOL   C19423424   5.028   6.671   6.671  0.0637  0.1633  0.2595
  116MOL   C19523425   5.124   6.683   6.554 -0.5107 -0.1757  0.4989
  116MOL   H19623426   4.743   6.659   6.773 -0.4878 -0.2439  3.0112
  116MOL   H19723427   4.890   6.634   6.875 -0.5973 -1.0942  1.5681
  116MOL   H19823428   4.876   6.566   6.573 -1.1164 -1.4525  1.2072
  116MOL   H19923429   5.060   6.721   6.761  0.7423  1.3986 -0.6443
  116MOL   H20023430   5.230   6.689   6.582 -0.6482  0.7816  0.8171
  116MOL   H20123431   5.105   6.781   6.511  2.1773 -0.9312 -2.6317
  116MOL   H20223432   5.121   6.618   6.467  0.3245 -0.1529  0.4482
  117MOL     C123433   5.437   0.852   4.882 -0.0452  0.2199  0.0022
  117MOL     C223434   5.530   0.779   4.978 -0.2225  0.1268 -0.3857
  117MOL     C323435   5.599   0.669   4.942 -1.4332 -0.9522  0.7471
  117MOL     C423436   5.704   0.592   5.019  0.1476  0.0194 -0.3879
  117MOL     H523437   5.429   0.807   4.783  1.8043  0.1768 -0.1339
  117MOL     H623438   5.469   0.954   4.861 -0.2831 -0.0047 -1.4933
  117MOL     H723439   5.558   0.828   5.071  1.1369  0.0915 -0.7539
  117MOL     H823440   5.570   0.628   4.846  2.4319  0.2178 -1.0093
  117MOL     H923441   5.734   0.661   5.098 -0.3860  1.3758 -1.3592
  117MOL    H1023442   5.793   0.571   4.959  1.0766  1.7801  0.3322
  117MOL    H1123443   5.340   0.864   4.930  0.9310 -0.5236  2.2159
  117MOL    C1223444   5.643   0.460   5.062  0.4997 -0.5143  0.4779
  117MOL    C1323445   5.733   0.389   5.165  0.7281 -0.3943  0.5200
  117MOL    C1423446   5.706   0.369   5.293 -0.2378  0.5493 -0.0606
  117MOL    C1523447   5.781   0.294   5.400  0.2453  0.3978 -0.1350
  117MOL    H1623448   5.547   0.482   5.109 -0.1447  1.8152 -1.8208
  117MOL    H1723449   5.624   0.397   4.975 -0.2695  1.0424 -0.5076
  117MOL    H1823450   5.825   0.355   5.120 -0.7102  0.7469 -3.4960
  117MOL    H1923451   5.617   0.424   5.319  0.3891  1.6898 -0.3039
  117MOL    H2023452   5.810   0.376   5.466 -2.2724 -0.4893  2.1441
  117MOL    H2123453   5.873   0.257   5.354  1.8121  2.6259  1.0694
  117MOL    C2223454   5.697   0.207   5.478 -0.7611 -0.0798 -0.5935
  117MOL    C2323455   5.784   0.128   5.571  0.0968  0.7161 -0.1602
  117MOL    C2423456   5.791   7.972   5.572 -0.0177 -0.2828  0.3580
  117MOL    C2523457   5.879   7.909   5.666  0.6984 -0.3735  0.5380
  117MOL    H2623458   5.629   0.266   5.539  2.5761  1.8545  1.4047
  117MOL    H2723459   5.636   0.134   5.424 -0.2004 -0.6630 -0.4512
  117MOL    H2823460   5.853   0.175   5.638  1.2867 -1.0002 -0.1371
  117MOL    H2923461   5.738   7.907   5.504  0.5163  1.5308 -1.8333
  117MOL    H3023462   5.842   7.810   5.696 -1.2448 -1.5133 -5.0993
  117MOL    H3123463   5.876   7.966   5.759 -0.7215 -2.7474  2.0280
  117MOL    C3223464   6.027   7.899   5.624  0.3646 -0.3914  0.0463
  117MOL    C3323465   6.044   7.825   5.495 -0.1458 -0.0254 -0.1389
  117MOL    C3423466   6.117   7.857   5.387  0.0467 -0.7097 -0.6057
  117MOL    C3523467   6.135   7.768   5.266  1.0910 -0.3026 -0.6124
  117MOL    H3623468   6.069   0.022   5.609 -0.0382 -0.0607  1.1336
  117MOL    H3723469   6.074   7.838   5.701 -0.4273  0.5579  1.3024
  117MOL    H3823470   5.987   7.735   5.476 -1.9448  0.7341  1.3983
  117MOL    H3923471   6.175   7.948   5.391 -0.9314 -0.0239 -1.6797
  117MOL    H4023472   6.121   7.835   5.181 -1.2161 -0.0387 -0.0590
  117MOL    H4123473   6.057   7.693   5.258  0.5912  0.3648 -2.1146
  117MOL    C4223474   6.267   7.713   5.239  0.3447  0.2160  0.0091
  117MOL    C4323475   6.320   7.609   5.333  0.5850  0.0244 -0.3384
  117MOL    C4423476   6.389   7.501   5.294 -0.1017  0.5959  0.6721
  117MOL    C4523477   6.449   7.396   5.387 -0.0117 -0.8073 -0.0144
  117MOL    H4623478   6.291   7.686   5.136 -0.0782  0.2190 -0.0900
  117MOL    H4723479   6.330   7.801   5.253  0.8841 -0.2591  0.5957
  117MOL    H4823480   6.329   7.626   5.439 -0.3025 -0.3373 -0.2010
  117MOL    H4923481   6.408   7.481   5.190  2.9117 -0.6884  1.4140
  117MOL    H5023482   6.425   7.431   5.488 -2.6290  3.4025 -1.9769
  117MOL    H5123483   6.557   7.395   5.395 -0.0102  1.7882  0.6479
  117MOL    C5223484   6.388   7.261   5.360 -0.6230 -0.5381  0.7337
  117MOL    C5323485   6.245   7.257   5.398 -0.3738 -0.3450 -0.4386
  117MOL    C5423486   6.164   7.345   5.464 -0.2471  0.1867  0.5424
  117MOL    C5523487   6.015   7.320   5.471  0.0637 -0.6102  0.4893
  117MOL    H5623488   6.408   7.233   5.256  0.7647  0.1851  0.7825
  117MOL    H5723489   6.432   7.187   5.427 -0.9283 -0.7454  0.7044
  117MOL    H5823490   6.195   7.173   5.352  2.3523 -2.6135  0.6134
  117MOL    H5923491   6.205   7.434   5.508 -0.0583  0.1184  0.5013
  117MOL    H6023492   5.975   7.300   5.571 -2.6818  1.4241 -0.1238
  117MOL    H6123493   5.978   7.229   5.423  0.4270 -0.6072  0.2075
  117MOL    C6223494   5.939   7.433   5.392 -0.6381 -0.6030 -0.4591
  117MOL    C6323495   5.789   7.391   5.366 -0.3188 -0.6507  0.2385
  117MOL    C6423496   5.734   7.364   5.243 -0.0021  0.0318  0.2977
  117MOL    C6523497   5.587   7.339   5.219 -0.2833  0.0525  0.1591
  117MOL    H6623498   5.936   7.521   5.457  0.3537 -0.9614  0.0877
  117MOL    H6723499   5.980   7.458   5.294 -0.7362 -3.9026 -1.3887
  117MOL    H6823500   5.726   7.379   5.453  1.0922 -2.8766  0.9954
  117MOL    H6923501   5.800   7.365   5.158 -0.3650 -0.8691 -0.0094
  117MOL    H7023502   5.524   7.390   5.291 -1.5502  0.3191 -1.1061
  117MOL    H7123503   5.577   7.232   5.242 -0.5480 -0.2450 -1.2908
  117MOL    C7223504   5.549   7.370   5.075  0.2509 -0.2453 -1.4558
  117MOL    C7323505   5.396   7.382   5.056 -0.3307  0.1933 -0.0319
  117MOL    C7423506   5.337   7.489   5.013 -0.2992  0.1243 -0.0769
  117MOL    C7523507   5.185   7.505   4.989  0.4700 -0.0358  0.8712
  117MOL    H7623508   5.590   7.464   5.038  1.2093  0.5801  1.5419
  117MOL    H7723509   5.584   7.287   5.015  0.7838 -0.0087 -1.4710
  117MOL    H7823510   5.340   7.297   5.091  1.0435 -0.3979  0.7923
  117MOL    H7923511   5.388   7.581   4.987 -2.8369  1.8600  0.8706
  117MOL    H8023512   5.186   7.581   4.911  1.0530 -0.1053  0.8118
  117MOL    H8123513   5.139   7.551   5.076 -1.1500 -1.5482  0.8557
  117MOL    C8223514   5.109   7.382   4.945  0.2296  1.0484  0.1472
  117MOL    C8323515   4.968   7.420   4.917 -0.6239 -0.1138  0.2942
  117MOL    C8423516   4.893   7.359   4.825 -0.6130  0.0339  0.1507
  117MOL    C8523517   4.743   7.381   4.808 -0.0330  0.3192  0.1716
  117MOL    H8623518   5.156   7.335   4.859  0.0832  1.3004 -0.0711
  117MOL    H8723519   5.099   7.313   5.028 -1.2948 -0.9092 -1.5938
  117MOL    H8823520   4.923   7.485   4.990  0.0768  0.3542  0.3100
  117MOL    H8923521   4.933   7.286   4.756 -0.8288 -0.1082  0.1754
  117MOL    H9023522   4.721   7.462   4.878 -0.1132  0.5983 -0.1756
  117MOL    H9123523   4.691   7.290   4.839 -0.0781 -0.1192 -1.1676
  117MOL    C9223524   4.702   7.402   4.663 -0.1050  0.3619  0.2940
  117MOL    C9323525   4.701   7.271   4.583  0.5747 -0.0211  0.0931
  117MOL    C9423526   4.785   7.251   4.480  0.1517 -0.1907  0.2887
  117MOL    C9523527   4.794   7.134   4.389 -0.5125  0.0037 -0.1723
  117MOL    H9623528   4.606   7.453   4.665 -0.5523 -0.4856  2.6074
  117MOL    H9723529   4.774   7.470   4.617  1.4335 -0.6988  1.0699
  117MOL    H9823530   4.632   7.192   4.607 -0.7665  0.9644 -0.4541
  117MOL    H9923531   4.855   7.329   4.453  1.6910 -1.9094 -0.8244
  117MOL   H10023532   4.727   7.164   4.309  1.3228  0.6024 -1.4969
  117MOL   H10123533   4.743   7.046   4.427  0.3270 -0.4259 -0.0347
  117MOL   C10223534   4.934   7.110   4.328  0.4035 -0.5389 -0.1523
  117MOL   C10323535   4.935   7.015   4.203 -0.6479  0.2303  0.0862
  117MOL   C10423536   4.984   6.890   4.205 -0.4729  0.1362 -0.3273
  117MOL   C10523537   4.979   6.804   4.080 -0.2679  0.4705  0.0610
  117MOL   H10623538   4.981   7.205   4.304  3.0627 -2.2276 -1.9497
  117MOL   H10723539   5.010   7.071   4.396  0.4994  0.0366  0.0700
  117MOL   H10823540   4.903   7.065   4.113 -1.9139  0.8686  0.8789
  117MOL   H10923541   5.036   6.852   4.292  2.5670 -0.0480 -2.1606
  117MOL   H11023542   4.893   6.831   4.019 -1.8124 -1.6937  1.2308
  117MOL   H11123543   4.951   6.701   4.098  2.2890 -0.4981 -1.2095
  117MOL   C11223544   5.119   6.791   4.000 -0.3338  0.1415  0.0067
  117MOL   C11323545   5.129   6.685   3.896  0.5695  0.3116 -0.5171
  117MOL   C11423546   5.166   6.697   3.765  1.2407 -0.8478 -0.1498
  117MOL   C11523547   5.225   6.574   3.691 -0.0494 -0.5544  0.5521
  117MOL   H11623548   5.144   6.887   3.954  3.8604 -0.3290  1.1818
  117MOL   H11723549   5.203   6.766   4.064  0.5732 -1.7210 -1.8489
  117MOL   H11823550   5.114   6.585   3.935  1.0733 -0.1696 -1.5116
  117MOL   H11923551   5.189   6.795   3.726  1.8571 -0.6288  0.7564
  117MOL   H12023552   5.196   6.594   3.588  1.9479  1.5920  0.3476
  117MOL   H12123553   5.175   6.481   3.718  0.3042 -1.1036 -0.6920
  117MOL   C12223554   5.375   6.566   3.695 -0.0240  0.2617  0.0630
  117MOL   C12323555   5.425   6.532   3.837 -0.1330  0.1186  0.6903
  117MOL   C12423556   5.511   6.433   3.871 -0.2565  0.4847 -0.2917
  117MOL   C12523557   5.550   6.406   4.016  0.8505 -0.1360 -0.1103
  117MOL   H12623558   5.409   6.485   3.631 -1.6000  0.6521 -1.2894
  117MOL   H12723559   5.432   6.647   3.650 -1.2004  0.8618 -0.3719
  117MOL   H12823560   5.376   6.599   3.907 -0.1904  0.2899  0.4888
  117MOL   H12923561   5.553   6.370   3.794  3.0393  0.4697  1.4135
  117MOL   H13023562   5.537   6.487   4.087  1.9359 -1.5540  1.7660
  117MOL   H13123563   5.658   6.390   4.009  0.8532  0.2885 -1.0977
  117MOL   C13223564   5.486   6.280   4.078  0.6270 -0.7472  0.2318
  117MOL   C13323565   5.512   6.144   4.008  0.7197  0.2496  0.2373
  117MOL   C13423566   5.415   6.088   3.926 -0.5082 -0.1587  0.7632
  117MOL   C13523567   5.432   5.967   3.843  0.2321 -0.7362  0.3059
  117MOL   H13623568   5.533   6.271   4.176 -0.3246  3.3910  1.1515
  117MOL   H13723569   5.379   6.298   4.084  0.7732  0.0899  0.3295
  117MOL   H13823570   5.608   6.094   4.018 -0.1044 -1.1939  1.1861
  117MOL   H13923571   5.323   6.138   3.902 -1.4264 -1.1675  2.1172
  117MOL   H14023572   5.415   5.883   3.911 -2.9286 -0.0352  0.4652
  117MOL   H14123573   5.534   5.969   3.807  0.0930 -0.0484 -0.0599
  117MOL   C14223574   5.330   5.950   3.733  0.5952 -0.3003 -0.0154
  117MOL   C14323575   5.347   6.060   3.630 -0.0051 -0.2647 -0.6364
  117MOL   C14423576   5.453   6.132   3.598 -0.6339  0.5180  0.0652
  117MOL   C14523577   5.445   6.239   3.490 -0.0125  0.9942  0.8189
  117MOL   H14623578   5.338   5.852   3.686  0.1118  0.5452 -1.9217
  117MOL   H14723579   5.236   5.956   3.787  0.6558 -2.0665  0.3312
  117MOL   H14823580   5.251   6.090   3.590  0.1387  1.5129  0.3348
  117MOL   H14923581   5.551   6.124   3.642 -0.8082  1.5914  0.6594
  117MOL   H15023582   5.538   6.293   3.506 -0.0295  1.1858  0.2798
  117MOL   H15123583   5.372   6.318   3.510 -2.0494 -0.5568 -0.3868
  117MOL   C15223584   5.442   6.191   3.336 -0.7255 -0.2695 -0.9737
  117MOL   C15323585   5.561   6.105   3.297  0.1436 -0.3547 -0.3536
  117MOL   C15423586   5.653   6.146   3.211 -0.0073  0.3062  0.2147
  117MOL   C15523587   5.764   6.053   3.171  0.7912 -0.9113  0.1066
  117MOL   H15623588   5.353   6.134   3.310 -1.4174  0.5428 -0.4314
  117MOL   H15723589   5.446   6.279   3.271  1.0027  0.5819  0.2311
  117MOL   H15823590   5.567   6.003   3.334  0.2764  0.5928  2.3834
  117MOL   H15923591   5.646   6.245   3.167  2.0021  0.0591 -0.7081
  117MOL   H16023592   5.755   6.058   3.062  0.4254  0.4092  0.1921
  117MOL   H16123593   5.727   5.952   3.188 -0.3018 -0.4253  0.6641
  117MOL   C16223594   5.901   6.079   3.229 -0.0840 -0.1186 -0.6228
  117MOL   C16323595   5.902   6.026   3.373  0.4108 -0.3867  0.7211
  117MOL   C16423596   5.978   6.068   3.476  0.0473 -0.3259  0.1352
  117MOL   C16523597   5.961   6.026   3.619 -0.1786  0.2541 -1.0760
  117MOL   H16623598   5.982   6.016   3.193  1.2370  2.3683 -2.1490
  117MOL   H16723599   5.926   6.185   3.224  3.4128 -0.9140 -1.2523
  117MOL   H16823600   5.819   5.961   3.399 -0.0412 -0.8227 -1.6777
  117MOL   H16923601   6.062   6.132   3.451 -0.7016  1.7794  2.7391
  117MOL   H17023602   6.021   5.939   3.647 -0.3899 -0.1409 -1.8459
  117MOL   H17123603   5.862   5.982   3.628  0.5532 -0.8475  2.2261
  117MOL   C17223604   5.956   6.140   3.722 -0.7507 -0.1236  0.3287
  117MOL   C17323605   5.856   6.250   3.683  0.4799  0.1258 -0.4260
  117MOL   C17423606   5.886   6.382   3.653 -0.1136  0.9112  0.1671
  117MOL   C17523607   5.789   6.495   3.621 -0.2764  0.3133 -0.9476
  117MOL   H17623608   5.930   6.105   3.822 -0.8628 -2.3758 -0.4551
  117MOL   H17723609   6.051   6.194   3.732 -1.1101  0.5737  0.0097
  117MOL   H17823610   5.754   6.220   3.701  0.7051  0.2272  1.0706
  117MOL   H17923611   5.989   6.412   3.645  0.0051  0.2752 -0.7882
  117MOL   H18023612   5.821   6.582   3.679  1.3878 -0.1844 -1.0925
  117MOL   H18123613   5.691   6.462   3.655  0.7008 -1.6922 -0.0101
  117MOL   C18223614   5.789   6.530   3.470  0.8016  0.2934  0.1176
  117MOL   C18323615   5.703   6.650   3.439 -0.1068 -0.3136 -0.8528
  117MOL   C18423616   5.736   6.748   3.358  0.4638 -0.0982 -0.8453
  117MOL   C18523617   5.641   6.860   3.324 -0.4833  0.1255  0.5180
  117MOL   H18623618   5.884   6.566   3.431  1.1858 -0.1643  0.6212
  117MOL   H18723619   5.763   6.443   3.411 -1.6261  0.1958  1.2818
  117MOL   H18823620   5.607   6.655   3.489  0.4470 -0.5925  0.2651
  117MOL   H18923621   5.828   6.755   3.303 -0.0433  1.3754 -1.5067
  117MOL   H19023622   5.690   6.947   3.366 -0.6536  0.1150  0.7390
  117MOL   H19123623   5.551   6.825   3.376 -0.5424 -2.1988 -1.0640
  117MOL   C19223624   5.620   6.861   3.172  0.4450  0.3330  0.0604
  117MOL   C19323625   5.507   6.952   3.127  0.0172  0.3816  0.5753
  117MOL   C19423626   5.423   7.031   3.196 -0.2508  0.1572 -0.0996
  117MOL   C19523627   5.331   7.136   3.134  0.6751 -0.0036 -0.2700
  117MOL   H19623628   5.715   6.891   3.127  0.6948 -0.3193  0.1517
  117MOL   H19723629   5.597   6.761   3.137  0.4595  0.3721 -0.0642
  117MOL   H19823630   5.509   6.960   3.019  2.0969 -1.7837  0.4132
  117MOL   H19923631   5.422   7.030   3.304  0.6630  0.1731 -0.0886
  117MOL   H20023632   5.350   7.141   3.027 -1.8178 -1.0284 -0.7989
  117MOL   H20123633   5.362   7.225   3.189  0.1775 -0.7152  1.1832
  117MOL   H20223634   5.224   7.124   3.149  0.4822  1.0254 -0.7316
  118MOL     C123635   4.633   1.770   6.444  0.1039  0.6142  0.8916
  118MOL     C223636   4.633   1.626   6.497 -0.6840 -1.2470  0.2814
  118MOL     C323637   4.696   1.597   6.605 -0.1166 -0.5389 -0.2125
  118MOL     C423638   4.686   1.460   6.670 -0.4510  0.1040 -0.1652
  118MOL     H523639   4.695   1.837   6.504  0.3413  0.7562  0.4891
  118MOL     H623640   4.531   1.809   6.439 -0.4462 -0.9216 -0.1719
  118MOL     H723641   4.577   1.552   6.442 -0.7159 -0.3435 -0.9010
  118MOL     H823642   4.745   1.676   6.659  1.0601 -0.8991 -0.7346
  118MOL     H923643   4.625   1.393   6.609  0.7766 -1.7059  0.5260
  118MOL    H1023644   4.636   1.478   6.765 -0.6015 -0.1700 -0.1907
  118MOL    H1123645   4.678   1.769   6.345 -1.2127 -0.4823  0.2884
  118MOL    C1223646   4.829   1.387   6.685  1.2523  0.2604 -0.2329
  118MOL    C1323647   4.819   1.240   6.712  0.2772 -0.2883  0.2907
  118MOL    C1423648   4.904   1.168   6.790  0.0741  0.3191  0.2936
  118MOL    C1523649   4.913   1.025   6.809  0.8540 -0.0534  0.1061
  118MOL    H1623650   4.875   1.388   6.586  2.1966 -0.6970  0.1845
  118MOL    H1723651   4.896   1.433   6.757 -0.6051  0.1563  1.6174
  118MOL    H1823652   4.737   1.185   6.667  0.2483 -1.4761  1.7202
  118MOL    H1923653   4.985   1.227   6.829  1.4736  0.3735 -2.5296
  118MOL    H2023654   4.983   0.993   6.732 -0.0085  0.8225 -1.0501
  118MOL    H2123655   4.823   0.972   6.778  1.1443  0.4380 -1.6567
  118MOL    C2223656   4.946   0.997   6.954  0.0340 -0.7373  0.6935
  118MOL    C2323657   4.945   0.852   6.978 -0.4142 -0.0995 -0.4999
  118MOL    C2423658   4.862   0.793   7.065  0.5246  0.4281 -0.6307
  118MOL    C2523659   4.859   0.647   7.084 -0.2605  0.5108 -0.0788
  118MOL    H2623660   5.039   1.038   6.992 -0.3704 -0.9418  1.9518
  118MOL    H2723661   4.882   1.051   7.025  0.4670 -0.3731  0.8031
  118MOL    H2823662   5.023   0.796   6.931  0.8260  1.6289 -0.5331
  118MOL    H2923663   4.778   0.850   7.102  2.0425  1.1313  1.9002
  118MOL    H3023664   4.946   0.608   7.030 -0.8871  0.7128 -1.2378
  118MOL    H3123665   4.774   0.601   7.035  1.5515 -0.7038 -2.2093
  118MOL    C3223666   4.865   0.591   7.225 -0.2443  0.1804 -0.7953
  118MOL    C3323667   4.855   0.437   7.231 -0.1904 -0.1724  0.0689
  118MOL    C3423668   4.927   0.348   7.302  0.0777  0.5766 -0.7803
  118MOL    C3523669   4.911   0.201   7.288 -0.3311 -0.6288  0.1089
  118MOL    H3623670   4.950   0.627   7.282 -0.5503  0.5956 -0.5928
  118MOL    H3723671   4.776   0.623   7.280  1.0432 -0.3004  1.6277
  118MOL    H3823672   4.780   0.401   7.163  0.3121 -0.7903 -0.1510
  118MOL    H3923673   5.001   0.373   7.376 -0.7051 -0.1169  0.2592
  118MOL    H4023674   4.980   0.160   7.215 -1.0606 -0.3648 -0.7386
  118MOL    H4123675   4.824   0.184   7.225  0.2760 -2.9104 -0.1376
  118MOL    C4223676   4.915   0.142   7.430 -0.0085 -0.4767  0.2137
  118MOL    C4323677   4.782   0.166   7.496 -0.2571  0.0842 -0.6856
  118MOL    C4423678   4.682   0.079   7.488 -0.1774 -0.3394 -0.4000
  118MOL    C4523679   4.540   0.098   7.528 -0.6627 -0.1206 -0.4354
  118MOL    H4623680   4.933   0.035   7.437  0.3611 -0.4433 -0.2034
  118MOL    H4723681   4.993   0.186   7.491  0.5439  1.4804 -1.8454
  118MOL    H4823682   4.753   0.263   7.534 -0.4749 -0.3147  0.1772
  118MOL    H4923683   4.697   7.955   7.452 -1.1090 -0.3296 -0.8267
  118MOL    H5023684   4.529   0.192   7.581  0.8200 -0.7058  0.9773
  118MOL    H5123685   4.507   0.020   7.597 -0.1054 -1.4031 -1.6033
  118MOL    C5223686   4.448   0.087   7.399 -0.2258 -0.3078  0.3374
  118MOL    C5323687   4.479   0.194   7.300 -0.1825  0.9216 -0.1404
  118MOL    C5423688   4.466   0.170   7.169  0.3299  0.1384  0.1699
  118MOL    C5523689   4.474   0.275   7.055  0.0462  0.7321  0.2654
  118MOL    H5623690   4.457   7.970   7.345 -0.8448 -1.3851  2.0875
  118MOL    H5723691   4.344   0.096   7.431 -0.3634  1.1795 -0.4855
  118MOL    H5823692   4.510   0.287   7.345 -1.3332  0.8868  0.7462
  118MOL    H5923693   4.445   0.069   7.136  0.1683 -0.3720  1.7574
  118MOL    H6023694   4.463   0.375   7.096  1.1019  0.4054  1.4031
  118MOL    H6123695   4.384   0.249   7.001 -0.1056  0.6928  0.5337
  118MOL    C6223696   4.598   0.261   6.967  0.0243  0.4173 -0.4231
  118MOL    C6323697   4.604   0.360   6.862 -0.0364 -0.0532 -0.0197
  118MOL    C6423698   4.718   0.407   6.814  0.6330 -0.2428  0.6526
  118MOL    C6523699   4.719   0.492   6.693  0.4782 -0.3665 -0.2157
  118MOL    H6623700   4.690   0.266   7.026  0.5292 -0.9908 -1.0610
  118MOL    H6723701   4.592   0.160   6.926 -2.4252  0.0269  0.7801
  118MOL    H6823702   4.508   0.395   6.827  0.0189 -1.2520 -1.4124
  118MOL    H6923703   4.813   0.374   6.854  0.3886 -1.4999  0.2387
  118MOL    H7023704   4.619   0.509   6.655  0.7555  1.3488 -0.2409
  118MOL    H7123705   4.770   0.444   6.610 -1.0951  1.4428 -2.2823
  118MOL    C7223706   4.767   0.637   6.724  0.7514  0.3594 -0.4518
  118MOL    C7323707   4.734   0.721   6.602  0.4673  0.4266 -0.7323
  118MOL    C7423708   4.830   0.765   6.520  0.1947 -0.3697 -0.3326
  118MOL    C7523709   4.797   0.843   6.402  0.5485 -0.5028  0.2734
  118MOL    H7623710   4.719   0.689   6.808 -0.5149  0.1745 -1.0455
  118MOL    H7723711   4.874   0.646   6.742  0.7542 -0.2672 -0.1717
  118MOL    H7823712   4.629   0.734   6.580  0.8981  2.1711 -1.9234
  118MOL    H7923713   4.934   0.746   6.543 -0.2319 -2.1232  0.1585
  118MOL    H8023714   4.858   0.933   6.403 -0.5533  0.2501  0.9341
  118MOL    H8123715   4.702   0.892   6.424  0.5479  0.7343 -2.2885
  118MOL    C8223716   4.795   0.775   6.263 -0.2061  0.0402 -0.0578
  118MOL    C8323717   4.770   0.866   6.144 -0.1628  0.5682  0.0387
  118MOL    C8423718   4.687   0.825   6.042 -0.0251 -0.5124 -0.1587
  118MOL    C8523719   4.652   0.911   5.924  0.5903  0.2037  0.5549
  118MOL    H8623720   4.890   0.725   6.248  0.0695  0.2525  0.9463
  118MOL    H8723721   4.722   0.693   6.264  0.9185 -0.9798 -0.6845
  118MOL    H8823722   4.824   0.959   6.148 -0.2738  0.6802 -0.9078
  118MOL    H8923723   4.637   0.730   6.052 -1.0099 -0.0798 -0.8539
  118MOL    H9023724   4.694   0.872   5.831 -0.1908  0.1495  0.2203
  118MOL    H9123725   4.710   1.003   5.933  2.1141 -0.5059 -1.5953
  118MOL    C9223726   4.497   0.926   5.908 -0.5277 -0.5397  0.6095
  118MOL    C9323727   4.465   1.029   5.802 -1.0444  0.3000  0.3600
  118MOL    C9423728   4.398   1.136   5.844 -0.5404 -0.4195 -0.0285
  118MOL    C9523729   4.356   1.254   5.761  0.0873  0.1598 -0.5379
  118MOL    H9623730   4.459   0.828   5.879  2.9882 -1.7257 -0.1847
  118MOL    H9723731   4.456   0.964   6.002  0.7318  1.7199  0.2616
  118MOL    H9823732   4.505   1.009   5.704 -0.8938 -1.6749  0.8098
  118MOL    H9923733   4.375   1.145   5.949 -0.7904  1.7338 -0.2360
  118MOL   H10023734   4.248   1.263   5.758  0.1930  1.7364 -0.4573
  118MOL   H10123735   4.393   1.219   5.665  2.2619 -0.2487  0.4071
  118MOL   C10223736   4.421   1.374   5.816  0.1259  0.3943  0.5263
  118MOL   C10323737   4.399   1.506   5.742  0.3539  0.7593  0.0817
  118MOL   C10423738   4.300   1.587   5.785  0.2809 -0.8427  0.0918
  118MOL   C10523739   4.252   1.714   5.710  0.5795  0.2357  0.1128
  118MOL   H10623740   4.400   1.389   5.922 -1.8419  0.8102  0.1046
  118MOL   H10723741   4.529   1.361   5.818  0.0635 -0.3386 -0.3333
  118MOL   H10823742   4.464   1.532   5.660  2.2811 -2.5540  0.4745
  118MOL   H10923743   4.256   1.540   5.871 -1.2455 -1.1537 -0.8445
  118MOL   H11023744   4.153   1.696   5.668  0.9018 -2.2719  0.3464
  118MOL   H11123745   4.315   1.735   5.623  0.5702  1.1014  0.3156
  118MOL   C11223746   4.250   1.842   5.791  0.3116  0.7379  0.3472
  118MOL   C11323747   4.200   1.963   5.705 -0.1361 -0.3246  0.1060
  118MOL   C11423748   4.091   2.039   5.738  0.4661  0.6803  0.1415
  118MOL   C11523749   4.027   2.142   5.640 -0.7677  0.1120 -0.7018
  118MOL   H11623750   4.178   1.816   5.868 -0.5818  1.3841 -0.2497
  118MOL   H11723751   4.345   1.863   5.839 -0.6639  2.3269  1.6377
  118MOL   H11823752   4.241   1.964   5.605  2.4641  0.8921  1.1331
  118MOL   H11923753   4.043   2.018   5.833 -1.0824  2.9013 -0.1118
  118MOL   H12023754   4.085   2.141   5.549 -1.0927 -0.7276 -0.9079
  118MOL   H12123755   4.040   2.245   5.672 -2.0276  0.5488 -1.5646
  118MOL   C12223756   3.879   2.121   5.594  0.5795  0.3289 -1.0406
  118MOL   C12323757   3.790   2.093   5.714 -0.5510 -0.0936  0.2894
  118MOL   C12423758   3.737   1.978   5.747 -0.0961 -0.2219 -0.4297
  118MOL   C12523759   3.653   1.950   5.874 -0.1898  0.0560  0.3991
  118MOL   H12623760   3.831   2.206   5.545 -3.0372 -1.3106 -0.4970
  118MOL   H12723761   3.890   2.031   5.535 -1.1630 -1.4240  1.2002
  118MOL   H12823762   3.782   2.181   5.776 -0.9602  0.2873 -0.2939
  118MOL   H12923763   3.762   1.894   5.684 -0.3759  0.1856 -1.0872
  118MOL   H13023764   3.553   1.913   5.849 -0.6252  1.5764 -0.1866
  118MOL   H13123765   3.629   2.042   5.929 -0.4530 -1.3009  2.6213
  118MOL   C13223766   3.718   1.855   5.975  0.4448  0.6801 -1.2803
  118MOL   C13323767   3.645   1.831   6.107  0.1495  0.0546  0.2836
  118MOL   C13423768   3.705   1.765   6.206 -0.4743 -0.8827 -0.2044
  118MOL   C13523769   3.646   1.713   6.332  0.3681 -0.3540 -0.1474
  118MOL   H13623770   3.723   1.751   5.940  0.8137 -1.0201  3.4613
  118MOL   H13723771   3.817   1.894   5.997  0.5052 -0.4759  0.6584
  118MOL   H13823772   3.541   1.860   6.104 -0.8292 -3.3399 -0.8589
  118MOL   H13923773   3.811   1.746   6.200  0.2979  2.6502  0.8261
  118MOL   H14023774   3.538   1.727   6.329  0.3612  0.1267  1.8842
  118MOL   H14123775   3.691   1.762   6.417  1.5140 -0.6168 -0.5932
  118MOL   C14223776   3.670   1.565   6.339  0.0860  0.0361 -0.1141
  118MOL   C14323777   3.642   1.516   6.481 -0.4294  0.1543  0.6567
  118MOL   C14423778   3.556   1.415   6.506 -0.4981  0.8936 -0.0459
  118MOL   C14523779   3.517   1.367   6.647 -0.8112  0.3964  0.1626
  118MOL   H14623780   3.620   1.521   6.253 -0.2137  0.9638 -0.4125
  118MOL   H14723781   3.775   1.542   6.322  0.0266 -0.7279  0.4980
  118MOL   H14823782   3.694   1.575   6.554 -0.8265  1.7220 -0.3030
  118MOL   H14923783   3.506   1.362   6.426  0.8218 -0.7107  0.1870
  118MOL   H15023784   3.412   1.352   6.674 -1.3138  2.3507 -0.5952
  118MOL   H15123785   3.554   1.435   6.725 -0.7791  0.5081  0.0499
  118MOL   C15223786   3.571   1.226   6.666  0.1656  0.1861 -0.3933
  118MOL   C15323787   3.501   1.165   6.791 -0.1126  0.0002 -0.5794
  118MOL   C15423788   3.549   1.141   6.914 -0.1368 -0.1712 -0.3542
  118MOL   C15523789   3.473   1.059   7.018  0.3163  0.9033  0.1744
  118MOL   H15623790   3.526   1.164   6.588 -1.1020  3.2898 -2.2256
  118MOL   H15723791   3.679   1.223   6.680  0.4264  2.1093 -1.8449
  118MOL   H15823792   3.401   1.131   6.772 -0.5259 -0.1721  1.6864
  118MOL   H15923793   3.653   1.167   6.932 -0.0235 -1.1244  0.4218
  118MOL   H16023794   3.383   1.019   6.972  2.3323 -0.4276 -2.6787
  118MOL   H16123795   3.443   1.136   7.090  0.5375  2.2323 -1.1355
  118MOL   C16223796   3.559   0.953   7.090  0.0165 -0.2211  0.6527
  118MOL   C16323797   3.596   0.839   6.994 -0.2811  0.7035 -0.0049
  118MOL   C16423798   3.707   0.824   6.926 -0.4025  0.3589  0.2882
  118MOL   C16523799   3.729   0.701   6.841  0.0499 -0.2229  0.1480
  118MOL   H16623800   3.647   1.002   7.130  1.4519 -0.2230 -2.3391
  118MOL   H16723801   3.501   0.907   7.170  0.8925 -1.0008  0.8429
  118MOL   H16823802   3.515   0.771   6.970  2.4899 -2.7115 -0.1939
  118MOL   H16923803   3.792   0.889   6.941  1.7965 -1.7663 -2.3681
  118MOL   H17023804   3.657   0.623   6.865 -1.3543  1.5650  2.0188
  118MOL   H17123805   3.829   0.661   6.859 -0.2876 -1.0446  0.2298
  118MOL   C17223806   3.711   0.730   6.687  0.2279 -0.0648 -0.5929
  118MOL   C17323807   3.566   0.758   6.650  0.1966  0.1063  0.1310
  118MOL   C17423808   3.479   0.681   6.581  0.0951  0.3937  0.7131
  118MOL   C17523809   3.343   0.735   6.552 -0.0159  0.0034  0.1981
  118MOL   H17623810   3.776   0.809   6.650 -1.0090  0.1999 -2.2771
  118MOL   H17723811   3.749   0.645   6.631 -0.3218 -0.8132  0.1453
  118MOL   H17823812   3.535   0.849   6.700 -2.6566 -0.3521 -0.6699
  118MOL   H17923813   3.506   0.589   6.533  0.3615  0.8464 -0.0164
  118MOL   H18023814   3.339   0.725   6.444 -0.6684  1.0619  0.1140
  118MOL   H18123815   3.334   0.843   6.563 -0.9138  0.0365 -0.7438
  118MOL   C18223816   3.228   0.657   6.617  0.3342 -0.1192  0.5344
  118MOL   C18323817   3.225   0.684   6.768 -0.8781  0.0441  0.2366
  118MOL   C18423818   3.112   0.697   6.843  0.0662 -0.7229 -0.2756
  118MOL   C18523819   3.103   0.712   6.990  0.2608 -0.4443  0.1315
  118MOL   H18623820   3.136   0.700   6.576  0.3032  1.9773  2.6794
  118MOL   H18723821   3.226   0.550   6.600  0.4258  0.4088 -3.2433
  118MOL   H18823822   3.316   0.677   6.826 -1.6971  1.6118  1.7699
  118MOL   H18923823   3.019   0.701   6.789  1.9070  0.8069 -3.4870
  118MOL   H19023824   3.010   0.665   7.021  0.2838 -0.4272  0.2251
  118MOL   H19123825   3.089   0.819   7.006  2.3065 -0.0597 -0.4369
  118MOL   C19223826   3.227   0.668   7.065  0.1844 -0.1385 -0.6744
  118MOL   C19323827   3.203   0.686   7.214 -0.1303 -0.2144 -1.0705
  118MOL   C19423828   3.256   0.604   7.306  0.1832  0.0330 -0.3731
  118MOL   C19523829   3.226   0.623   7.449  0.6475 -0.5788 -0.2124
  118MOL   H19623830   3.235   0.561   7.041  0.1741 -0.1210 -0.7568
  118MOL   H19723831   3.318   0.720   7.037  1.6063 -0.4956  2.9676
  118MOL   H19823832   3.155   0.777   7.248  1.2067  0.5472 -1.1770
  118MOL   H19923833   3.315   0.517   7.281  1.5942  0.5993  0.9214
  118MOL   H20023834   3.184   0.720   7.478  3.1680  0.3454  0.4843
  118MOL   H20123835   3.326   0.618   7.492  0.3398 -1.5239  0.4081
  118MOL   H20223836   3.171   0.541   7.494 -0.8315 -0.4819 -1.7795
  119MOL     C123837   0.898   4.292   2.074  0.0185 -0.2980  0.0958
  119MOL     C223838   0.873   4.340   2.212  0.5324  0.0199 -0.3397
  119MOL     C323839   0.899   4.269   2.326 -0.1824 -0.1880 -0.1275
  119MOL     C423840   0.868   4.314   2.471  0.3377  0.2448 -0.5440
  119MOL     H523841   0.950   4.371   2.018 -0.6976 -0.7711 -1.2496
  119MOL     H623842   0.805   4.269   2.023  0.1281  1.1572 -0.7895
  119MOL     H723843   0.824   4.436   2.221 -0.1358 -0.5107  2.0008
  119MOL     H823844   0.951   4.175   2.319  1.5723  0.5992  1.5141
  119MOL     H923845   0.809   4.249   2.535 -0.1459  1.7205  0.5376
  119MOL    H1023846   0.798   4.397   2.475 -0.5713 -0.5044 -0.5439
  119MOL    H1123847   0.966   4.208   2.086  0.7197  0.0716 -1.1635
  119MOL    C1223848   0.998   4.356   2.551  0.3705  0.1788  0.2518
  119MOL    C1323849   0.946   4.419   2.677  0.3296 -0.6583  0.0304
  119MOL    C1423850   0.973   4.369   2.801  0.2748 -0.7043  0.3562
  119MOL    C1523851   0.933   4.436   2.931  0.3105 -0.6915 -0.0083
  119MOL    H1623852   1.060   4.269   2.568 -0.4820  0.0255  2.7704
  119MOL    H1723853   1.051   4.427   2.488 -0.5373 -0.9395 -1.8142
  119MOL    H1823854   0.903   4.518   2.673 -0.5217 -1.0155  0.2469
  119MOL    H1923855   1.023   4.274   2.809 -0.5814 -1.1985 -0.0956
  119MOL    H2023856   0.862   4.373   2.984 -0.4367  1.2924  1.4253
  119MOL    H2123857   0.877   4.528   2.912  1.2435  0.1417  1.1272
  119MOL    C2223858   1.053   4.466   3.014  0.4461 -0.2126  0.0291
  119MOL    C2323859   1.004   4.537   3.141  0.1821  0.2041  0.4010
  119MOL    C2423860   1.019   4.669   3.177 -0.3689  0.3284 -0.0278
  119MOL    C2523861   0.950   4.732   3.298  0.2345  0.9049 -0.0036
  119MOL    H2623862   1.106   4.370   3.013 -0.4958 -0.7575  1.5186
  119MOL    H2723863   1.117   4.528   2.951 -1.9331 -0.0997 -2.3369
  119MOL    H2823864   0.956   4.473   3.213 -0.2475 -0.1779 -0.2264
  119MOL    H2923865   1.070   4.743   3.118  1.8016 -0.5016  0.7619
  119MOL    H3023866   1.020   4.790   3.360  0.4743 -0.7920  1.3588
  119MOL    H3123867   0.916   4.654   3.366  1.1727 -1.0967 -1.8041
  119MOL    C3223868   0.834   4.828   3.247  0.2043  0.3730 -0.1908
  119MOL    C3323869   0.723   4.827   3.358 -0.1698  0.1259  0.6151
  119MOL    C3423870   0.615   4.756   3.343 -0.1311  0.1644  0.0038
  119MOL    C3523871   0.502   4.722   3.436  0.2864  0.7873  0.0020
  119MOL    H3623872   0.867   4.927   3.217  0.2844  0.0263 -1.2820
  119MOL    H3723873   0.793   4.790   3.153  2.4971  0.0172 -1.0892
  119MOL    H3823874   0.739   4.883   3.449  0.9931  1.2796 -0.2740
  119MOL    H3923875   0.614   4.702   3.249  0.8380 -0.5284  0.3854
  119MOL    H4023876   0.410   4.770   3.404  0.4692  0.4833 -1.0070
  119MOL    H4123877   0.535   4.747   3.537 -0.3238  1.0088  0.1430
  119MOL    C4223878   0.468   4.575   3.431 -0.6932  0.0935 -0.5259
  119MOL    C4323879   0.407   4.520   3.299 -0.0277 -0.0052 -0.0435
  119MOL    C4423880   0.461   4.431   3.225 -0.1616  0.4386  0.3126
  119MOL    C4523881   0.400   4.365   3.099  0.0819  0.5247 -0.7183
  119MOL    H4623882   0.558   4.519   3.458 -1.3072 -0.2588  0.8580
  119MOL    H4723883   0.392   4.556   3.507 -0.1759 -0.2667 -0.0917
  119MOL    H4823884   0.310   4.559   3.274 -0.0557 -1.1781 -1.8768
  119MOL    H4923885   0.553   4.390   3.263  0.8816  1.2331 -1.3290
  119MOL    H5023886   0.309   4.418   3.070  0.7510  2.9751  1.4477
  119MOL    H5123887   0.358   4.267   3.124 -1.0595  1.4441  1.0826
  119MOL    C5223888   0.510   4.361   2.988  0.7680 -0.1489 -0.5468
  119MOL    C5323889   0.476   4.263   2.879  0.5049  0.3917  0.0651
  119MOL    C5423890   0.552   4.161   2.839 -0.3441 -0.5141  0.0186
  119MOL    C5523891   0.519   4.082   2.713 -0.1098 -0.6478  0.2081
  119MOL    H5623892   0.531   4.455   2.938  0.4816  0.3260  0.2093
  119MOL    H5723893   0.608   4.348   3.033  1.0788  2.0950 -0.5131
  119MOL    H5823894   0.375   4.274   2.842 -0.3791 -2.2144  1.5941
  119MOL    H5923895   0.656   4.158   2.869 -0.5377  2.9078  1.2551
  119MOL    H6023896   0.612   4.068   2.659  0.0032 -1.3115  0.5712
  119MOL    H6123897   0.440   4.121   2.649  1.1193 -0.4101 -1.1905
  119MOL    C6223898   0.475   3.938   2.741  0.2515  0.1140 -0.2902
  119MOL    C6323899   0.469   3.858   2.617 -0.2500 -0.2998  0.4445
  119MOL    C6423900   0.355   3.810   2.567  0.3263 -0.2773 -0.9645
  119MOL    C6523901   0.337   3.732   2.437  0.2817 -0.4526  0.1855
  119MOL    H6623902   0.548   3.884   2.803  0.8589  1.5144  0.2316
  119MOL    H6723903   0.379   3.942   2.791  0.5847 -0.8011  0.4548
  119MOL    H6823904   0.564   3.824   2.580  0.3816  0.5824  1.2546
  119MOL    H6923905   0.263   3.837   2.616  0.6764 -2.1931  0.8171
  119MOL    H7023906   0.436   3.724   2.392  0.4863  1.3777  0.2738
  119MOL    H7123907   0.270   3.788   2.371  0.1703 -1.4407 -0.5495
  119MOL    C7223908   0.258   3.601   2.456  0.0929  0.9525  0.9861
  119MOL    C7323909   0.247   3.517   2.334 -0.9808  0.1305  0.9184
  119MOL    C7423910   0.323   3.409   2.310 -0.0798  0.3270 -0.6176
  119MOL    C7523911   0.292   3.312   2.199  0.3790 -0.2941 -0.0747
  119MOL    H7623912   0.303   3.542   2.536  1.9644 -0.3982 -0.9949
  119MOL    H7723913   0.160   3.631   2.493  0.3793  0.4010  2.2046
  119MOL    H7823914   0.174   3.544   2.259 -0.9049 -1.4337  0.2694
  119MOL    H7923915   0.411   3.379   2.365 -0.9463  2.3469  1.9803
  119MOL    H8023916   0.348   3.325   2.106 -2.3452  1.5903 -1.5259
  119MOL    H8123917   0.186   3.326   2.176 -0.0549 -1.7045  0.9592
  119MOL    C8223918   0.313   3.170   2.229  0.4278  0.6423  0.4811
  119MOL    C8323919   0.239   3.077   2.134 -0.1205  0.6086 -0.6255
  119MOL    C8423920   0.304   2.984   2.060  0.6417  0.8884  0.5921
  119MOL    C8523921   0.235   2.895   1.958  0.5011  0.1713 -1.1802
  119MOL    H8623922   0.417   3.144   2.205  0.2434 -0.4863  0.8665
  119MOL    H8723923   0.287   3.146   2.332  1.2479  0.4993  0.6566
  119MOL    H8823924   0.132   3.073   2.131 -0.1904  1.0402  0.8891
  119MOL    H8923925   0.412   2.982   2.060  0.6391 -1.6939  2.1531
  119MOL    H9023926   0.130   2.924   1.946  0.3610 -0.3962 -1.3673
  119MOL    H9123927   0.219   2.795   1.998  1.6152  0.8689  1.0595
  119MOL    C9223928   0.305   2.902   1.820 -0.0068 -0.1341  0.1243
  119MOL    C9323929   0.228   2.849   1.703 -0.1997 -0.4351 -0.0289
  119MOL    C9423930   0.275   2.785   1.597  0.7026  0.0154 -0.6119
  119MOL    C9523931   0.199   2.731   1.479 -0.1916 -0.6217 -0.6145
  119MOL    H9623932   0.344   3.001   1.798  2.3203 -0.9137  0.5932
  119MOL    H9723933   0.398   2.847   1.825  0.3889  0.5686  0.4965
  119MOL    H9823934   0.122   2.869   1.710 -0.0628  0.2322  0.1762
  119MOL    H9923935   0.381   2.764   1.595  0.8147  0.6317 -1.0726
  119MOL   H10023936   0.093   2.756   1.493  0.2405  1.8250 -1.5644
  119MOL   H10123937   0.211   2.623   1.485 -1.1082 -0.6090  2.6559
  119MOL   C10223938   0.239   2.798   1.343  0.2133 -0.3057 -0.3474
  119MOL   C10323939   0.153   2.770   1.235 -0.0752 -0.6962 -0.1469
  119MOL   C10423940   0.054   2.842   1.179 -0.7406 -0.4685  0.5864
  119MOL   C10523941   7.950   2.783   1.060  0.5116  0.6609 -0.5272
  119MOL   H10623942   0.231   2.906   1.359 -0.7810 -0.5607  0.9498
  119MOL   H10723943   0.340   2.777   1.308  0.1609 -0.0056 -0.6895
  119MOL   H10823944   0.175   2.672   1.194 -0.9844 -1.0635  0.2206
  119MOL   H10923945   0.025   2.940   1.216  0.2437 -1.0742  3.0223
  119MOL   H11023946   7.878   2.721   1.114 -0.1847  1.0692 -0.9669
  119MOL   H11123947   0.030   2.712   1.001  0.1254 -0.8106  0.8220
  119MOL   C11223948   7.872   2.885   0.981  0.1913 -0.2316  0.3221
  119MOL   C11323949   7.753   2.817   0.915 -0.2839 -0.6970  0.4308
  119MOL   C11423950   7.741   2.825   0.781 -0.0291  0.8064 -0.7385
  119MOL   C11523951   7.628   2.751   0.708  0.5676  0.0002  0.1179
  119MOL   H11623952   7.840   2.962   1.051 -1.1174  0.7347 -1.3013
  119MOL   H11723953   7.945   2.927   0.912  1.5262 -2.7986  0.1065
  119MOL   H11823954   7.684   2.764   0.978  2.9839 -3.3496  1.8904
  119MOL   H11923955   7.812   2.859   0.707  0.5303 -1.1008 -1.1156
  119MOL   H12023956   7.567   2.823   0.654 -0.1671  0.1568  1.1302
  119MOL   H12123957   7.565   2.695   0.778  1.8485  0.4753  1.6956
  119MOL   C12223958   7.680   2.650   0.594  0.0046  0.3763 -0.6119
  119MOL   C12323959   7.573   2.610   0.492  0.4675  0.2721 -0.0167
  119MOL   C12423960   7.440   2.621   0.504  0.0147  0.2983  0.0670
  119MOL   C12523961   7.334   2.566   0.405  0.9619  0.1218  0.5001
  119MOL   H12623962   7.755   2.695   0.529  2.0840 -0.8672  0.8603
  119MOL   H12723963   7.732   2.564   0.635 -1.3981 -0.0001  0.4356
  119MOL   H12823964   7.608   2.559   0.403  0.0637 -3.4258  1.8488
  119MOL   H12923965   7.409   2.670   0.595 -0.1262  0.7496 -0.2212
  119MOL   H13023966   7.379   2.558   0.306  1.0774  0.6548  0.5061
  119MOL   H13123967   7.264   2.647   0.385 -0.7965 -1.6402 -0.6475
  119MOL   C13223968   7.273   2.433   0.456 -0.6308  0.1540  0.5203
  119MOL   C13323969   7.161   2.387   0.372 -0.1303  0.9672 -0.1731
  119MOL   C13423970   7.035   2.403   0.401 -0.2972 -0.0681  0.1046
  119MOL   C13523971   6.913   2.375   0.316 -0.3614 -1.1577 -0.6715
  119MOL   H13623972   7.338   2.347   0.471 -2.1514 -0.9414  0.9589
  119MOL   H13723973   7.238   2.450   0.558 -0.9778 -0.0702  0.4379
  119MOL   H13823974   7.200   2.357   0.275  1.1780  2.8969 -0.2724
  119MOL   H13923975   7.017   2.451   0.496  1.0175  2.2827 -0.7814
  119MOL   H14023976   6.864   2.290   0.363  2.2861 -1.9674  0.7771
  119MOL   H14123977   6.957   2.356   0.218  1.6000 -1.3910  0.2123
  119MOL   C14223978   6.834   2.499   0.298 -0.0393  0.0635 -0.0238
  119MOL   C14323979   6.704   2.476   0.221  0.6863  1.3045 -0.4638
  119MOL   C14423980   6.657   2.353   0.181 -0.2025 -0.6315 -0.5228
  119MOL   C14523981   6.527   2.330   0.109 -0.5366 -0.3661 -0.4344
  119MOL   H14623982   6.820   2.540   0.398  1.6037  1.3878 -0.3171
  119MOL   H14723983   6.896   2.571   0.245  1.3675 -0.3577  1.0014
  119MOL   H14823984   6.646   2.565   0.202 -1.3724 -0.1080 -0.9146
  119MOL   H14923985   6.708   2.258   0.190  1.3029  0.1738 -0.2961
  119MOL   H15023986   6.464   2.418   0.125 -0.7177  0.0024 -2.8451
  119MOL   H15123987   6.469   2.256   0.163 -2.9783  0.5506 -1.7356
  119MOL   C15223988   6.540   2.294   7.939  0.0610 -0.0770  1.1390
  119MOL   C15323989   6.410   2.313   7.855  0.4125 -0.3493  0.8789
  119MOL   C15423990   6.322   2.216   7.827 -0.2821  0.3228 -0.0574
  119MOL   C15523991   6.197   2.232   7.751  0.2021  0.1205 -0.1405
  119MOL   H15623992   6.611   2.363   7.894 -1.8737  1.8828  1.0211
  119MOL   H15723993   6.577   2.192   7.931  0.4865  0.1543  0.0980
  119MOL   H15823994   6.396   2.411   7.812  2.2043 -0.9442 -1.1240
  119MOL   H15923995   6.343   2.119   7.871  0.6974  0.4040 -0.3361
  119MOL   H16023996   6.202   2.173   7.660 -2.9248  1.0522 -0.9683
  119MOL   H16123997   6.176   2.336   7.724  1.2311  0.9374  2.0863
  119MOL   C16223998   6.075   2.187   7.831 -0.2017  0.0994  0.0600
  119MOL   C16323999   6.062   2.265   7.964 -0.8322  0.6721 -0.0921
  119MOL   C16424000   5.948   2.321   0.037  0.9686  0.5122  0.1977
  119MOL   C16524001   5.930   2.392   0.174  0.1387 -0.1519  0.7249
  119MOL   H16624002   5.986   2.216   7.776 -0.6720  1.6000  1.5665
  119MOL   H16724003   6.067   2.079   7.845 -2.2745  0.5438  2.6942
  119MOL   H16824004   6.147   2.269   0.054 -3.1555 -0.6336  3.0681
  119MOL   H16924005   5.861   2.305   7.951  1.0903 -1.9033  0.6281
  119MOL   H17024006   5.925   2.500   0.156  3.8261 -0.1724 -0.7845
  119MOL   H17124007   6.017   2.374   0.237  0.3790 -0.4335  0.3193
  119MOL   C17224008   5.808   2.353   0.263  0.1975 -1.1839  0.3411
  119MOL   C17324009   5.777   2.458   0.363 -0.5050  0.2643  1.0129
  119MOL   C17424010   5.800   2.453   0.496 -0.0208 -0.8331 -0.4466
  119MOL   C17524011   5.764   2.566   0.591 -0.1239  0.1197  0.1908
  119MOL   H17624012   5.722   2.356   0.196  0.3421 -0.9689  0.1658
  119MOL   H17724013   5.804   2.252   0.304  1.7187 -1.1635  0.5817
  119MOL   H17824014   5.736   2.550   0.323  0.1699  0.4373  0.7091
  119MOL   H17924015   5.839   2.360   0.536 -0.6804 -1.6931 -1.7587
  119MOL   H18024016   5.728   2.649   0.530 -1.6571 -0.4120  0.3581
  119MOL   H18124017   5.853   2.597   0.647  0.8182 -0.9057 -0.7151
  119MOL   C18224018   5.660   2.535   0.704 -0.7210 -0.6960  0.1473
  119MOL   C18324019   5.633   2.665   0.785 -0.5465 -0.0589  0.3408
  119MOL   C18424020   5.503   2.709   0.802  0.6111  1.0271 -0.6061
  119MOL   C18524021   5.467   2.832   0.881  0.4953 -0.1461  0.3376
  119MOL   H18624022   5.572   2.493   0.655  0.3545 -0.7195 -1.8105
  119MOL   H18724023   5.705   2.462   0.771 -1.7718 -0.7352  0.8264
  119MOL   H18824024   5.721   2.714   0.824  0.8361 -3.1194  1.2466
  119MOL   H18924025   5.423   2.649   0.762  0.6132  0.3179  0.4407
  119MOL   H19024026   5.546   2.905   0.864  1.5389 -1.7015 -1.7630
  119MOL   H19124027   5.463   2.813   0.988 -0.4677 -0.4875  0.2393
  119MOL   C19224028   5.338   2.891   0.832 -0.3977 -0.1299  0.4221
  119MOL   C19324029   5.286   3.018   0.900  0.0540  0.5320  1.1286
  119MOL   C19424030   5.356   3.134   0.905 -0.5170 -0.7135  0.3803
  119MOL   C19524031   5.304   3.265   0.964  0.1530 -0.0602  0.5354
  119MOL   H19624032   5.368   2.905   0.728  0.9791 -0.2718  0.7843
  119MOL   H19724033   5.251   2.826   0.831  0.0809 -0.7737  0.5707
  119MOL   H19824034   5.184   3.012   0.934 -0.7774  2.0741 -1.0281
  119MOL   H19924035   5.460   3.133   0.877 -0.9551 -1.2743 -1.3232
  119MOL   H20024036   5.207   3.246   1.009 -0.8153 -0.5773 -1.7066
  119MOL   H20124037   5.303   3.340   0.885  0.2208 -0.2058  0.3950
  119MOL   H20224038   5.368   3.300   1.045  2.7308 -1.2747 -0.8940
  120MOL     C124039   1.160   0.726   1.345 -0.0259  0.1694  0.8151
  120MOL     C224040   1.080   0.607   1.410  0.1571  0.3538  0.2595
  120MOL     C324041   1.029   0.504   1.343  0.1304 -0.3500 -0.1061
  120MOL     C424042   0.946   0.394   1.408 -0.9558 -0.3108 -0.4131
  120MOL     H524043   1.150   0.745   1.238 -1.0443  2.2573  1.2584
  120MOL     H624044   1.267   0.718   1.364  0.0661  0.6376  0.4959
  120MOL     H724045   1.069   0.610   1.517  1.2464 -1.1747  0.4423
  120MOL     H824046   1.034   0.488   1.236 -0.2959 -4.4845  0.4137
  120MOL     H924047   0.954   0.381   1.516 -0.5936  2.9276 -0.0163
  120MOL    H1024048   0.981   0.303   1.360  1.8438  1.0735 -1.0572
  120MOL    H1124049   1.140   0.826   1.382  0.6880  0.8949 -0.6940
  120MOL    C1224050   0.792   0.394   1.384  0.2350 -0.2426 -1.1953
  120MOL    C1324051   0.726   0.284   1.461  0.0701 -0.2413  0.4291
  120MOL    C1424052   0.659   0.302   1.579  1.1529 -0.4511 -0.3312
  120MOL    C1524053   0.591   0.191   1.657 -0.6285 -0.2016 -0.8057
  120MOL    H1624054   0.751   0.489   1.418  1.0743  0.0158 -0.8874
  120MOL    H1724055   0.772   0.366   1.281  2.2996  1.2031 -2.0064
  120MOL    H1824056   0.741   0.181   1.433 -4.1604 -0.8136 -0.1270
  120MOL    H1924057   0.642   0.401   1.618 -2.6555 -0.8986 -0.6997
  120MOL    H2024058   0.633   0.095   1.624  0.1244 -0.0489 -0.3228
  120MOL    H2124059   0.486   0.184   1.629 -0.2897 -0.6402 -2.0090
  120MOL    C2224060   0.610   0.199   1.805 -0.0641  0.1798 -0.5501
  120MOL    C2324061   0.617   0.057   1.867 -0.2684 -0.3103 -0.1949
  120MOL    C2424062   0.523   7.975   1.947  0.4417 -0.4501  0.4361
  120MOL    C2524063   0.545   7.841   2.006  0.7260 -0.4911 -0.5951
  120MOL    H2624064   0.709   0.241   1.822  0.2249 -0.3865 -0.8149
  120MOL    H2724065   0.528   0.248   1.856 -1.2926 -0.5474 -1.8087
  120MOL    H2824066   0.713   0.010   1.851  0.7552  0.8526  2.3307
  120MOL    H2924067   0.426   0.042   1.966 -0.1887 -0.2482 -2.9094
  120MOL    H3024068   0.637   7.799   1.964  2.1258  1.4509  0.4399
  120MOL    H3124069   0.465   7.783   1.961  0.3758  0.4921 -1.2575
  120MOL    C3224070   0.545   7.860   2.156 -0.4680  0.4887 -0.0229
  120MOL    C3324071   0.592   7.724   2.213  0.3473  0.5393  0.7456
  120MOL    C3424072   0.519   7.636   2.278  0.1630  0.1120  0.3268
  120MOL    C3524073   0.576   7.512   2.338  0.7357  0.1023 -0.8742
  120MOL    H3624074   0.621   7.934   2.178  0.0943 -0.4590  1.3163
  120MOL    H3724075   0.446   7.897   2.183 -0.2869  0.8893  0.0832
  120MOL    H3824076   0.693   7.690   2.199  0.6569  1.2948  1.1124
  120MOL    H3924077   0.414   7.647   2.298 -0.0555 -1.8321  0.3164
  120MOL    H4024078   0.540   7.497   2.440  0.4350 -2.7830 -1.3569
  120MOL    H4124079   0.685   7.517   2.343  0.6613  0.8408  0.3477
  120MOL    C4224080   0.533   7.391   2.262 -0.3972  0.0102  0.6445
  120MOL    C4324081   0.590   7.263   2.317 -0.3964 -0.2187 -0.4483
  120MOL    C4424082   0.703   7.247   2.391 -1.2573  0.3616  0.0354
  120MOL    C4524083   0.754   7.109   2.437 -0.4588  0.7093  1.2677
  120MOL    H4624084   0.425   7.383   2.247 -0.4714  2.4339 -0.4028
  120MOL    H4724085   0.578   7.381   2.163 -1.9133 -1.3877  0.0739
  120MOL    H4824086   0.540   7.173   2.284 -1.2784  0.6550 -1.4954
  120MOL    H4924087   0.751   7.335   2.431 -2.2751  0.1200  1.8431
  120MOL    H5024088   0.684   7.032   2.406 -1.8283  2.6038 -0.5039
  120MOL    H5124089   0.752   7.117   2.545  1.4985  0.0085  1.3757
  120MOL    C5224090   0.900   7.092   2.389 -0.2793 -0.2847  0.3672
  120MOL    C5324091   0.920   7.075   2.238 -0.8006  0.2846 -0.0931
  120MOL    C5424092   0.995   6.975   2.193  0.3776 -0.5099 -0.0060
  120MOL    C5524093   1.011   6.946   2.041 -0.6956 -0.3498  0.2556
  120MOL    H5624094   0.954   7.174   2.438  2.7512 -2.7896  1.3834
  120MOL    H5724095   0.944   7.005   2.438  2.3254  0.7904  0.0394
  120MOL    H5824096   0.872   7.138   2.165  2.3236 -0.5053 -2.9675
  120MOL    H5924097   1.051   6.906   2.254  1.5064  0.7030  0.3463
  120MOL    H6024098   1.100   7.002   2.010  0.6248 -2.1756  0.6870
  120MOL    H6124099   0.921   6.993   2.001 -0.8559  0.7887  1.9308
  120MOL    C6224100   1.023   6.794   2.017 -0.3214 -0.0527 -0.0402
  120MOL    C6324101   1.056   6.767   1.867  0.2824 -0.0816 -0.9659
  120MOL    C6424102   1.163   6.697   1.823  0.5289 -0.7703  0.4256
  120MOL    C6524103   1.201   6.660   1.682 -0.3428  1.1907 -0.3004
  120MOL    H6624104   1.106   6.747   2.070  1.6853  1.0020 -2.1673
  120MOL    H6724105   0.934   6.741   2.051  0.4611 -1.1347  0.3503
  120MOL    H6824106   0.989   6.804   1.790  0.2518 -1.0436 -1.4133
  120MOL    H6924107   1.228   6.661   1.901  1.1943 -1.4720 -0.4415
  120MOL    H7024108   1.125   6.685   1.608  0.3752 -0.7032 -1.7259
  120MOL    H7124109   1.211   6.551   1.675  0.2297  1.3217 -1.8264
  120MOL    C7224110   1.333   6.721   1.647 -0.1720 -0.6715 -0.1690
  120MOL    C7324111   1.312   6.851   1.572 -0.3066  0.5429 -0.5982
  120MOL    C7424112   1.389   6.896   1.471 -0.2645 -0.1169  0.3333
  120MOL    C7524113   1.351   7.016   1.387 -0.0317  0.4453  0.1270
  120MOL    H7624114   1.396   6.737   1.735  0.0111 -1.0833 -0.2271
  120MOL    H7724115   1.404   6.663   1.589  1.2852  0.3976  0.5162
  120MOL    H7824116   1.225   6.902   1.610 -1.7549 -1.9951 -0.3246
  120MOL    H7924117   1.481   6.846   1.448  1.8039  2.9225  1.6215
  120MOL    H8024118   1.276   7.072   1.441 -1.3965 -0.5661 -0.6860
  120MOL    H8124119   1.300   6.980   1.297  0.1825  0.8643 -0.1639
  120MOL    C8224120   1.471   7.105   1.346  0.0858 -0.5707 -0.0080
  120MOL    C8324121   1.411   7.236   1.311 -0.8906 -0.2729  0.0389
  120MOL    C8424122   1.433   7.346   1.377 -0.0166 -0.8087 -0.6145
  120MOL    C8524123   1.364   7.478   1.347 -0.1763 -0.8566 -0.7402
  120MOL    H8624124   1.535   7.119   1.433  1.1044 -0.3156 -0.7846
  120MOL    H8724125   1.531   7.068   1.263  0.4485  0.5189 -0.2397
  120MOL    H8824126   1.337   7.233   1.232 -1.8892 -1.8366  1.0069
  120MOL    H8924127   1.504   7.351   1.458  0.1119  0.0664 -0.7812
  120MOL    H9024128   1.322   7.530   1.433  1.0902  0.9115 -1.1506
  120MOL    H9124129   1.274   7.454   1.291 -2.1989 -0.7545  2.3473
  120MOL    C9224130   1.464   7.567   1.275 -0.3430 -0.7746  0.3745
  120MOL    C9324131   1.412   7.669   1.179 -0.1699  0.3997 -0.9908
  120MOL    C9424132   1.460   7.793   1.197 -0.5794  0.4772  0.6526
  120MOL    C9524133   1.417   7.917   1.125 -0.2249 -0.3724 -0.6738
  120MOL    H9624134   1.537   7.612   1.341  1.9800 -0.7192 -2.1489
  120MOL    H9724135   1.526   7.508   1.208  1.5444  0.0722  1.3497
  120MOL    H9824136   1.343   7.644   1.100 -1.5138 -0.0746  0.3269
  120MOL    H9924137   1.531   7.813   1.276  1.2016  0.7563 -0.9873
  120MOL   H10024138   1.324   7.900   1.071 -1.0314 -2.7752  1.3429
  120MOL   H10124139   1.497   7.943   1.056  1.4761 -1.6676  0.7493
  120MOL   C10224140   1.371   0.049   1.221 -0.2775 -0.5837 -0.8280
  120MOL   C10324141   1.339   0.183   1.158  0.2449 -0.2969  0.3197
  120MOL   C10424142   1.392   0.302   1.192 -0.0061  0.3664  0.0966
  120MOL   C10524143   1.336   0.439   1.137 -0.9527 -0.1241  0.1908
  120MOL   H10624144   1.279   0.010   1.265 -0.1386 -1.4277 -1.2759
  120MOL   H10724145   1.444   0.060   1.302 -0.4812 -0.3146 -0.6791
  120MOL   H10824146   1.258   0.177   1.087  0.3147 -0.1848  0.2296
  120MOL   H10924147   1.466   0.302   1.270  0.5695 -0.9665 -0.4420
  120MOL   H11024148   1.421   0.500   1.106 -1.8433  0.1199 -1.8625
  120MOL   H11124149   1.282   0.493   1.215  0.0336  1.0794  0.0543
  120MOL   C11224150   1.259   0.423   1.016 -0.2707  0.0271 -0.5754
  120MOL   C11324151   1.210   0.552   0.956 -0.1940 -0.2168 -0.2477
  120MOL   C11424152   1.248   0.596   0.836 -0.0785 -0.6651 -0.1517
  120MOL   C11524153   1.190   0.725   0.767 -0.4517  0.4860  0.3637
  120MOL   H11624154   1.329   0.377   0.945  0.3945 -0.5833  0.4596
  120MOL   H11724155   1.179   0.349   1.023  2.1467 -2.4205  3.7099
  120MOL   H11824156   1.130   0.604   1.007 -0.6296 -1.1308  0.0241
  120MOL   H11924157   1.320   0.550   0.770 -0.7272 -1.4782 -0.3028
  120MOL   H12024158   1.104   0.758   0.824  1.3997  2.1160  2.2895
  120MOL   H12124159   1.168   0.697   0.664 -2.1517  2.9698  0.0265
  120MOL   C12224160   1.295   0.832   0.768 -0.5861 -0.5176  0.3059
  120MOL   C12324161   1.250   0.958   0.700  0.0225  0.0310  0.1042
  120MOL   C12424162   1.280   1.084   0.739 -0.2370  1.1736 -0.3687
  120MOL   C12524163   1.249   1.211   0.659  0.4236  0.3036 -0.4212
  120MOL   H12624164   1.328   0.851   0.870 -0.3974  1.7697 -0.1465
  120MOL   H12724165   1.376   0.786   0.710 -1.9622 -1.4296 -0.9468
  120MOL   H12824166   1.194   0.926   0.614 -1.4568 -0.7058  1.3168
  120MOL   H12924167   1.349   1.088   0.822 -0.0009  1.2584 -0.5678
  120MOL   H13024168   1.187   1.191   0.572 -1.3973  3.1220  0.1575
  120MOL   H13124169   1.344   1.258   0.632  1.3881 -2.3577 -1.8415
  120MOL   C13224170   1.172   1.309   0.738 -0.1085  0.2055  0.3013
  120MOL   C13324171   1.155   1.443   0.671  0.0093  0.0407 -0.1750
  120MOL   C13424172   1.204   1.558   0.726  0.1218 -0.1022 -0.1706
  120MOL   C13524173   1.213   1.704   0.675  0.3090 -0.2641  0.1183
  120MOL   H13624174   1.080   1.254   0.758 -0.9503  1.2332 -0.7250
  120MOL   H13724175   1.218   1.324   0.836 -0.8531  3.0561  0.2622
  120MOL   H13824176   1.099   1.443   0.579  1.2767 -0.8100 -0.9654
  120MOL   H13924177   1.268   1.549   0.813  1.3757 -0.7681 -1.1605
  120MOL   H14024178   1.318   1.734   0.667 -0.3990  2.5753  0.8815
  120MOL   H14124179   1.170   1.774   0.748 -1.3997  0.3115 -1.4118
  120MOL   C14224180   1.141   1.724   0.541  0.1523  0.1004 -0.3066
  120MOL   C14324181   1.131   1.870   0.505 -0.2693  0.4798  0.6518
  120MOL   C14424182   1.021   1.948   0.533  0.2520 -0.8871  0.6657
  120MOL   C14524183   1.005   2.095   0.495  0.1868  0.4014 -0.1356
  120MOL   H14624184   1.196   1.678   0.459  1.1884  1.6012 -0.4770
  120MOL   H14724185   1.045   1.674   0.536 -0.0659  0.5432 -0.5484
  120MOL   H14824186   1.213   1.922   0.456 -0.6039  1.2763  0.9347
  120MOL   H14924187   0.939   1.902   0.586  1.6500 -1.7717  2.0941
  120MOL   H15024188   0.915   2.100   0.435 -0.6530  1.7323  1.2055
  120MOL   H15124189   1.091   2.128   0.436 -0.5491  1.2747 -0.7105
  120MOL   C15224190   1.018   2.195   0.614 -0.2241 -0.1211 -0.4658
  120MOL   C15324191   1.025   2.338   0.562  0.0789 -0.2560  0.4189
  120MOL   C15424192   0.926   2.433   0.583  0.1494  0.3962  0.7662
  120MOL   C15524193   0.929   2.576   0.524  0.1396 -0.1882 -0.2437
  120MOL   H15624194   0.938   2.186   0.688 -0.5736 -0.2182 -0.8499
  120MOL   H15724195   1.094   2.162   0.684  0.1596  0.5058 -0.5852
  120MOL   H15824196   1.101   2.366   0.490 -0.8356 -2.5730 -1.5158
  120MOL   H15924197   0.836   2.412   0.639 -0.2636  0.9102  0.2909
  120MOL   H16024198   1.017   2.587   0.462 -0.7009 -0.5417 -1.5265
  120MOL   H16124199   0.945   2.652   0.601  2.6108 -0.5242 -0.4116
  120MOL   C16224200   0.806   2.622   0.439  0.2356 -0.4344  0.9510
  120MOL   C16324201   0.852   2.618   0.295 -0.3436 -0.4989 -0.8911
  120MOL   C16424202   0.794   2.529   0.207 -0.1208 -0.3971 -0.1372
  120MOL   C16524203   0.820   2.506   0.059  0.6349 -0.1041  0.2966
  120MOL   H16624204   0.715   2.565   0.457 -1.2964  1.0982 -1.6577
  120MOL   H16724205   0.785   2.726   0.467  1.4329 -0.2019  1.0022
  120MOL   H16824206   0.939   2.678   0.272  0.9412 -1.5862  1.0414
  120MOL   H16924207   0.704   2.484   0.245 -0.2467  0.8528  1.0804
  120MOL   H17024208   0.887   2.580   0.016  1.7669 -0.2395  1.7995
  120MOL   H17124209   0.725   2.522   0.007  0.9116 -0.8256 -0.4407
  120MOL   C17224210   0.885   2.375   0.034  0.5794  0.1162  0.1819
  120MOL   C17324211   0.921   2.329   7.873  0.2617  0.4359 -0.7199
  120MOL   C17424212   0.924   2.413   7.770 -0.4904 -0.2624 -0.3024
  120MOL   C17524213   0.939   2.363   7.629  0.9142 -0.3705 -0.1817
  120MOL   H17624214   0.968   2.379   0.104 -0.1300  0.7408  0.9928
  120MOL   H17724215   0.818   2.299   0.072  2.5784 -1.2744  0.9832
  120MOL   H17824216   0.922   2.223   7.851 -1.0463  0.2343  0.1619
  120MOL   H17924217   0.926   2.520   7.784  0.5433 -0.1782 -1.0230
  120MOL   H18024218   0.848   2.395   7.577  0.9372 -1.6840 -1.0538
  120MOL   H18124219   0.931   2.254   7.621  0.0824 -0.1813 -2.2410
  120MOL   C18224220   1.060   2.415   7.560  0.2020 -0.5526  0.3678
  120MOL   C18324221   1.178   2.321   7.587 -0.2979  0.1378 -0.5820
  120MOL   C18424222   1.268   2.292   7.493 -0.2228  0.4846  0.3115
  120MOL   C18524223   1.395   2.211   7.521 -0.5892 -0.0273  0.4201
  120MOL   H18624224   1.038   2.414   7.453 -0.5137 -0.3107  0.5122
  120MOL   H18724225   1.098   2.514   7.585 -0.0232 -0.4349  0.2410
  120MOL   H18824226   1.189   2.286   7.688 -2.4120 -0.9799 -0.7014
  120MOL   H18924227   1.252   2.331   7.394  0.7217  1.3083  0.4771
  120MOL   H19024228   1.374   2.113   7.564 -0.8898 -0.7494 -1.3067
  120MOL   H19124229   1.448   2.273   7.593 -0.8852  2.4911 -1.4521
  120MOL   C19224230   1.485   2.198   7.387 -0.1164 -0.2400 -0.2382
  120MOL   C19324231   1.617   2.128   7.407 -0.5255  0.4148  0.6818
  120MOL   C19424232   1.735   2.188   7.374  0.1930 -0.2333 -0.3032
  120MOL   C19524233   1.872   2.115   7.387  0.3891  0.0571  0.4640
  120MOL   H19624234   1.421   2.150   7.313 -1.0080  1.2307 -0.4392
  120MOL   H19724235   1.504   2.296   7.343  1.1789  0.9473  2.8072
  120MOL   H19824236   1.605   2.027   7.442  1.5789 -0.1910 -0.2895
  120MOL   H19924237   1.740   2.288   7.332  0.6776  0.2238  0.8229
  120MOL   H20024238   1.927   2.142   7.296 -2.4487  0.7263 -1.1248
  120MOL   H20124239   1.863   2.007   7.387  0.8279 -0.0464 -2.5425
  120MOL   H20224240   1.931   2.152   7.471 -0.5609  0.0865  1.1230
  121MOL     C124241   5.115   0.591   7.688 -0.0247  0.1183 -0.4321
  121MOL     C224242   5.167   0.516   7.568 -1.1548  0.2016 -0.3200
  121MOL     C324243   5.299   0.476   7.558  0.3937  0.3316 -1.1257
  121MOL     C424244   5.369   0.419   7.436  0.3032 -0.1123  0.3890
  121MOL     H524245   5.181   0.563   7.769 -0.9151 -3.2203 -0.7603
  121MOL     H624246   5.011   0.580   7.719 -0.3484  0.5794 -1.3157
  121MOL     H724247   5.105   0.528   7.480 -1.8060 -0.3869  0.0551
  121MOL     H824248   5.366   0.500   7.640  0.8021 -0.6828 -1.1534
  121MOL     H924249   5.407   0.501   7.375  0.2425  0.2850  0.8888
  121MOL    H1024250   5.287   0.367   7.387 -0.1220 -0.5730  1.5845
  121MOL    H1124251   5.134   0.697   7.672  1.1903 -0.1423 -0.7601
  121MOL    C1224252   5.494   0.334   7.481 -0.4019  0.1339  0.5582
  121MOL    C1324253   5.565   0.277   7.357 -0.4737  0.5255 -0.3318
  121MOL    C1424254   5.571   0.143   7.331 -0.0851 -0.6753  0.2312
  121MOL    C1524255   5.612   0.081   7.200  0.4280 -0.2693 -0.5897
  121MOL    H1624256   5.565   0.400   7.530 -0.0800  0.7743 -0.7304
  121MOL    H1724257   5.468   0.263   7.558  1.9501 -0.9456  0.4091
  121MOL    H1824258   5.603   0.352   7.290  0.6381 -0.4325 -0.8006
  121MOL    H1924259   5.528   0.078   7.405 -1.5960  1.9009  1.6710
  121MOL    H2024260   5.531   0.009   7.194 -0.2865  0.4514  0.2413
  121MOL    H2124261   5.710   0.037   7.218 -0.3517 -1.1194  1.7772
  121MOL    C2224262   5.607   0.158   7.072 -1.2352  0.1651  0.0660
  121MOL    C2324263   5.723   0.255   7.048 -0.2937  0.1123 -0.8655
  121MOL    C2424264   5.810   0.216   6.955  0.3049  0.4486 -0.5138
  121MOL    C2524265   5.929   0.296   6.913  0.2868  0.0707  0.5787
  121MOL    H2624266   5.589   0.093   6.987 -0.9122  1.1868 -0.7950
  121MOL    H2724267   5.517   0.220   7.075 -0.1177  1.8072  0.5047
  121MOL    H2824268   5.723   0.344   7.109  2.5297  0.7141 -1.6871
  121MOL    H2924269   5.781   0.130   6.896 -0.8237 -0.0394  0.7215
  121MOL    H3024270   6.001   0.216   6.898  0.2863  0.2658 -0.4683
  121MOL    H3124271   5.968   0.359   6.993 -0.8868  0.9438  0.4855
  121MOL    C3224272   5.909   0.382   6.789 -0.1940 -0.1523 -0.5091
  121MOL    C3324273   5.837   0.507   6.826 -0.2636  0.6301  0.8977
  121MOL    C3424274   5.897   0.624   6.808  0.6686  0.5850 -0.2082
  121MOL    C3524275   5.843   0.759   6.858  0.7269  0.0337  0.1664
  121MOL    H3624276   5.990   0.402   6.718  1.1032  1.9888  1.5294
  121MOL    H3724277   5.843   0.322   6.725  0.7357 -0.3971 -1.2614
  121MOL    H3824278   5.738   0.504   6.869 -0.7759  2.3014 -0.1006
  121MOL    H3924279   5.989   0.637   6.752  0.1821  2.6058 -0.5731
  121MOL    H4024280   5.736   0.747   6.876  1.1245 -0.3007  2.4613
  121MOL    H4124281   5.868   0.833   6.782  2.8896  1.0109  1.7934
  121MOL    C4224282   5.920   0.814   6.987  0.2970 -0.1215 -0.0171
  121MOL    C4324283   5.920   0.711   7.094  0.0538  0.0753  0.9376
  121MOL    C4424284   5.892   0.733   7.226  0.2728  0.6736 -0.0280
  121MOL    C4524285   5.906   0.618   7.331 -0.0723 -0.6112  0.7536
  121MOL    H4624286   6.019   0.836   6.947  0.0825  2.7844  0.9195
  121MOL    H4724287   5.872   0.905   7.021 -1.7954 -1.1071 -0.2745
  121MOL    H4824288   5.962   0.617   7.063  1.5108  0.9981  0.0889
  121MOL    H4924289   5.863   0.828   7.267  0.7481  0.3814  0.9911
  121MOL    H5024290   5.991   0.649   7.392 -0.8519  2.1385  0.5271
  121MOL    H5124291   5.932   0.526   7.279 -3.3858 -1.9179  1.3445
  121MOL    C5224292   5.766   0.604   7.400 -0.7393  0.3812  0.3886
  121MOL    C5324293   5.733   0.720   7.498 -0.1987 -0.2765 -0.4797
  121MOL    C5424294   5.819   0.810   7.552 -0.1089 -0.1867 -0.3312
  121MOL    C5524295   5.791   0.915   7.654 -0.1116  0.0635 -0.1287
  121MOL    H5624296   5.685   0.582   7.331 -1.5002  1.3400  0.9666
  121MOL    H5724297   5.775   0.518   7.467 -0.1371 -0.8900 -1.2856
  121MOL    H5824298   5.626   0.725   7.513  0.1523 -0.7989  2.4517
  121MOL    H5924299   5.923   0.806   7.525  0.1093 -3.2494  0.7264
  121MOL    H6024300   5.689   0.953   7.647 -1.4106 -3.1315  0.4919
  121MOL    H6124301   5.852   0.998   7.620  0.8107 -0.3572  0.4765
  121MOL    C6224302   5.830   0.863   7.788  0.0699 -0.0536  0.2105
  121MOL    C6324303   5.847   0.972   7.888 -0.0784 -0.2267 -0.4283
  121MOL    C6424304   5.767   0.983   0.018 -0.0362 -0.5431 -0.8540
  121MOL    C6524305   5.784   1.088   0.119  0.4734 -0.1964 -0.2818
  121MOL    H6624306   5.755   0.786   7.802  0.8005 -1.0987 -1.4351
  121MOL    H6724307   5.927   0.817   7.770 -1.3482 -3.2706  0.5430
  121MOL    H6824308   5.933   1.035   7.872  0.1656 -0.3954  0.1853
  121MOL    H6924309   5.689   0.911   0.038  0.0597 -0.2840  0.4866
  121MOL    H7024310   5.879   1.140   0.115  1.1057 -0.9727  3.0405
  121MOL    H7124311   5.796   1.031   0.211  1.0038  1.5762  0.7724
  121MOL    C7224312   5.666   1.188   0.126  0.7099  0.3949  0.0762
  121MOL    C7324313   5.522   1.148   0.158 -0.1206 -0.6935 -0.3691
  121MOL    C7424314   5.426   1.138   0.064  0.1000  0.1226  0.9904
  121MOL    C7524315   5.280   1.122   0.084 -0.7740  0.3257 -0.6323
  121MOL    H7624316   5.689   1.263   0.202  0.6152 -0.1998  0.7004
  121MOL    H7724317   5.657   1.240   0.031 -1.0059 -0.8551 -0.4846
  121MOL    H7824318   5.492   1.147   0.262 -0.2345  2.0148 -0.3288
  121MOL    H7924319   5.472   1.152   7.944  1.0471 -2.7228  0.9887
  121MOL    H8024320   5.245   1.110   0.186  1.0333  1.6711  0.1580
  121MOL    H8124321   5.248   1.036   0.025 -2.6377 -0.3108  1.2279
  121MOL    C8224322   5.204   1.239   0.027  0.2581 -0.8652  0.5411
  121MOL    C8324323   5.049   1.220   0.029 -0.7870 -0.5435  0.4463
  121MOL    C8424324   4.976   1.109   0.028 -0.0275  0.3412 -0.4814
  121MOL    C8524325   4.824   1.111   0.042 -0.2192 -0.0935  0.4869
  121MOL    H8624326   5.215   1.325   0.093 -0.3837  0.2659 -0.7967
  121MOL    H8724327   5.235   1.270   7.904 -2.0231  0.9876  0.3725
  121MOL    H8824328   4.997   1.314   0.032  1.0793  0.5445 -0.5317
  121MOL    H8924329   5.028   1.014   0.037  1.3992  1.2773  1.6714
  121MOL    H9024330   4.778   1.209   0.054 -1.6042 -0.9800  2.6033
  121MOL    H9124331   4.805   1.055   0.133 -3.5498  0.0422 -0.0851
  121MOL    C9224332   4.765   1.045   7.897 -0.0850 -0.3173  0.3816
  121MOL    C9324333   4.622   1.005   7.935  0.3059  0.2871 -0.7192
  121MOL    C9424334   4.554   0.888   7.935  0.9775 -0.0698  0.6919
  121MOL    C9524335   4.402   0.885   7.940 -0.2537 -0.0249 -0.5319
  121MOL    H9624336   4.766   1.110   7.810 -2.0083 -0.9203 -0.1047
  121MOL    H9724337   4.819   0.956   7.864 -2.8985 -1.2408 -1.9222
  121MOL    H9824338   4.558   1.092   7.936 -0.5908 -0.3665  2.0852
  121MOL    H9924339   4.593   0.788   7.919 -1.1498 -0.7083 -0.8987
  121MOL   H10024340   4.362   0.869   7.840  0.2843  0.3510 -0.8071
  121MOL   H10124341   4.367   0.986   7.960 -1.1260 -0.3038 -0.6220
  121MOL   C10224342   4.325   0.791   0.066 -0.7261 -0.2950 -0.1542
  121MOL   C10324343   4.175   0.815   0.066 -1.1528 -0.0617  0.0828
  121MOL   C10424344   4.100   0.834   0.177  0.4690 -0.4577 -0.5454
  121MOL   C10524345   3.950   0.845   0.178  0.6807 -0.1781  0.0967
  121MOL   H10624346   4.345   0.685   0.053 -0.5241 -0.1018 -1.5011
  121MOL   H10724347   4.359   0.810   0.168 -1.8011  2.6847 -0.2983
  121MOL   H10824348   4.120   0.810   7.950  0.6061 -4.0575 -0.8378
  121MOL   H10924349   4.147   0.840   0.274 -2.2883  0.7708  0.7947
  121MOL   H11024350   3.924   0.856   0.073  1.8587 -0.3935 -0.2195
  121MOL   H11124351   3.930   0.930   0.244 -1.4947 -1.9080  1.7356
  121MOL   C11224352   3.885   0.723   0.240 -0.0952 -0.1277 -0.6520
  121MOL   C11324353   3.731   0.742   0.274  0.3374  0.2555  0.4561
  121MOL   C11424354   3.670   0.687   0.376  0.3474 -0.7122 -0.5791
  121MOL   C11524355   3.528   0.703   0.424  0.1675 -0.6705 -0.8638
  121MOL   H11624356   3.880   0.645   0.164  0.3416 -0.5667 -0.2371
  121MOL   H11724357   3.925   0.672   0.327 -0.3007 -0.7119 -0.8975
  121MOL   H11824358   3.680   0.797   0.196  0.4466 -1.5651 -0.9410
  121MOL   H11924359   3.728   0.637   0.453  1.9485  1.8084 -0.0952
  121MOL   H12024360   3.481   0.786   0.371  0.9827 -0.0906 -0.6814
  121MOL   H12124361   3.523   0.731   0.529  1.7773  0.0497 -0.9637
  121MOL   C12224362   3.441   0.580   0.412 -0.0741 -0.2179  0.6626
  121MOL   C12324363   3.488   0.467   0.499  0.6417 -0.6112  0.0864
  121MOL   C12424364   3.541   0.352   0.458 -0.2429  0.2633  0.3882
  121MOL   C12524365   3.568   0.231   0.542  0.0576 -0.3002  0.4346
  121MOL   H12624366   3.340   0.613   0.438 -0.0252  1.0804 -0.7600
  121MOL   H12724367   3.441   0.535   0.313 -2.1282  0.1204  0.4848
  121MOL   H12824368   3.465   0.475   0.605  1.1204  0.3662  0.1247
  121MOL   H12924369   3.560   0.337   0.352 -2.6314 -0.5582  0.0531
  121MOL   H13024370   3.605   0.269   0.637  3.3158 -1.4705 -0.2863
  121MOL   H13124371   3.644   0.169   0.494 -1.2004 -0.5803 -1.2402
  121MOL   C13224372   3.440   0.141   0.565  0.1314 -0.2529  0.0056
  121MOL   C13324373   3.463   0.054   0.683 -0.1507 -0.2922  0.1464
  121MOL   C13424374   3.391   0.060   0.790  0.0772  0.0859  0.2757
  121MOL   C13524375   3.422   7.951   0.909  0.5865  0.2528 -0.2190
  121MOL   H13624376   3.342   0.187   0.576 -0.2598 -0.5567 -1.9860
  121MOL   H13724377   3.435   0.086   0.471  0.8353 -0.4646  0.0883
  121MOL   H13824378   3.544   7.961   0.673  1.6256  1.8314 -0.6547
  121MOL   H13924379   3.307   0.127   0.796  0.6955  0.8353  0.6269
  121MOL   H14024380   3.503   7.882   0.883  1.8193  1.3244  0.7385
  121MOL   H14124381   3.332   7.890   0.924  0.8482  0.0991  0.7333
  121MOL   C14224382   3.440   0.063   1.033  0.6546 -0.1160 -0.7089
  121MOL   C14324383   3.453   7.968   1.164  0.4219 -0.6304 -0.1391
  121MOL   C14424384   3.417   7.841   1.195 -0.1881  0.9175 -0.2478
  121MOL   C14524385   3.443   7.775   1.339 -0.4210 -0.3082 -0.2431
  121MOL   H14624386   3.524   0.133   1.033 -1.5993  2.6977 -1.5039
  121MOL   H14724387   3.343   0.112   1.045  0.0138 -1.5843  0.1840
  121MOL   H14824388   3.491   0.051   1.246  0.2591 -1.0258  0.2267
  121MOL   H14924389   3.374   7.786   1.113  2.0460  0.0473 -0.8759
  121MOL   H15024390   3.514   7.840   1.390 -0.5020 -0.2182 -0.2446
  121MOL   H15124391   3.493   7.679   1.328 -0.5107 -0.4090  0.2225
  121MOL   C15224392   3.312   7.765   1.414  0.1220 -0.1058  0.0274
  121MOL   C15324393   3.332   7.710   1.557 -0.2694  0.9510  0.0758
  121MOL   C15424394   3.250   7.745   1.654  0.6044  0.4927 -0.1046
  121MOL   C15524395   3.256   7.690   1.801 -0.6017 -0.4615  0.2046
  121MOL   H15624396   3.257   7.859   1.420 -0.3309 -0.4534  1.5916
  121MOL   H15724397   3.243   7.695   1.367 -1.9803  1.7169  0.2868
  121MOL   H15824398   3.407   7.634   1.574 -1.4422 -0.4999 -1.2312
  121MOL   H15924399   3.167   7.811   1.630 -0.8502 -0.3754  2.2607
  121MOL   H16024400   3.286   7.773   1.865  0.1439  0.7230 -1.6367
  121MOL   H16124401   3.324   7.608   1.823  2.0132  1.6666  0.3996
  121MOL   C16224402   3.112   7.636   1.832  0.4402  0.2120 -1.1555
  121MOL   C16324403   3.071   7.511   1.760  0.3082 -0.4247  0.6212
  121MOL   C16424404   3.144   7.435   1.679  0.4076  0.1282 -0.4184
  121MOL   C16524405   3.104   7.309   1.602 -0.5276 -0.4463  0.1926
  121MOL   H16624406   3.116   7.612   1.939 -1.9001  1.1644 -0.8423
  121MOL   H16724407   3.044   7.720   1.827  0.3464  0.2009 -0.1407
  121MOL   H16824408   2.965   7.489   1.769  0.6200 -1.9301  0.6217
  121MOL   H16924409   3.247   7.460   1.658  1.1164 -0.2480  2.3922
  121MOL   H17024410   3.019   7.257   1.648 -0.0834 -1.6908 -0.3619
  121MOL   H17124411   3.189   7.244   1.618 -1.4573 -1.2877  1.8970
  121MOL   C17224412   3.082   7.332   1.449 -0.2334 -0.1595  0.0986
  121MOL   C17324413   2.954   7.395   1.417 -0.6848  0.6214  0.7813
  121MOL   C17424414   2.942   7.499   1.334 -0.5580  0.3191 -0.3225
  121MOL   C17524415   2.811   7.561   1.298  0.1229 -0.6495 -0.7092
  121MOL   H17624416   3.161   7.401   1.417 -1.5900  1.4742  0.1964
  121MOL   H17724417   3.091   7.234   1.403  1.3846 -0.4065  0.9037
  121MOL   H17824418   2.869   7.345   1.459 -1.8172  0.6735 -1.3973
  121MOL   H17924419   3.025   7.555   1.293  0.5126  0.4993  2.0335
  121MOL   H18024420   2.799   7.635   1.377  0.5790 -0.9002 -0.4043
  121MOL   H18124421   2.726   7.494   1.310 -1.0649  0.7982 -0.8136
  121MOL   C18224422   2.817   7.618   1.160 -0.1199 -0.0480  0.6761
  121MOL   C18324423   2.677   7.677   1.122 -0.9760  0.7049  0.0313
  121MOL   C18424424   2.658   7.810   1.095 -0.2305  0.1543 -1.0045
  121MOL   C18524425   2.540   7.889   1.047  0.5764  0.1407  0.6794
  121MOL   H18624426   2.896   7.693   1.157  0.7471 -1.0298 -2.2493
  121MOL   H18724427   2.841   7.534   1.094 -0.6583  0.8073 -0.6409
  121MOL   H18824428   2.589   7.615   1.108 -0.9963 -0.2945  3.9471
  121MOL   H18924429   2.754   7.860   1.104 -0.3249  0.1219  0.2717
  121MOL   H19024430   2.553   7.891   0.939 -0.4896  0.8449  0.5619
  121MOL   H19124431   2.560   0.010   1.090 -0.0669  1.7775 -2.5909
  121MOL   C19224432   2.400   7.837   1.084  0.3451  0.3908 -0.5110
  121MOL   C19324433   2.305   7.948   1.096  0.1047  1.2951  0.2475
  121MOL   C19424434   2.193   7.965   1.025  0.3678  0.0932 -0.2722
  121MOL   C19524435   2.111   0.122   1.039  0.8325  0.6827 -0.2284
  121MOL   H19624436   2.365   7.775   1.002 -0.7615 -0.1783  0.3847
  121MOL   H19724437   2.406   7.780   1.177 -2.4013  0.7404 -0.0847
  121MOL   H19824438   2.329   0.037   1.179 -2.0681  2.6133 -0.1275
  121MOL   H19924439   2.164   7.883   0.962  0.2197 -0.7062  0.8184
  121MOL   H20024440   2.073   0.146   0.940 -0.0452 -2.2906 -0.6420
  121MOL   H20124441   2.180   0.195   1.082 -0.9728  2.3797 -0.1380
  121MOL   H20224442   2.033   0.123   1.115  0.7442  1.7451 -0.3154
  122MOL     C124443   3.671   0.136   2.054  0.0704 -0.0079  0.2818
  122MOL     C224444   3.553   0.148   1.958 -0.0463  0.0612  0.2320
  122MOL     C324445   3.522   0.255   1.885  0.0844 -0.4155  0.1453
  122MOL     C424446   3.407   0.266   1.783  0.4647  0.2161  0.2282
  122MOL     H524447   3.642   0.085   2.146 -1.0413 -0.3320 -0.2380
  122MOL     H624448   3.724   0.227   2.082  0.6138 -0.6821  1.4596
  122MOL     H724449   3.496   0.056   1.952 -1.3881  0.8665  0.5763
  122MOL     H824450   3.582   0.346   1.885  2.0524 -1.6805 -0.6162
  122MOL     H924451   3.337   0.345   1.810 -0.2233 -0.4637  0.4351
  122MOL    H1024452   3.346   0.177   1.769 -0.9128  1.3219 -0.9669
  122MOL    H1124453   3.747   0.072   2.011  0.1281  0.8624 -0.9541
  122MOL    C1224454   3.466   0.305   1.644 -0.5646 -0.5914 -0.2441
  122MOL    C1324455   3.369   0.305   1.530  0.5365 -0.1751 -0.2517
  122MOL    C1424456   3.285   0.403   1.492  0.1592  0.2452 -0.2746
  122MOL    C1524457   3.191   0.406   1.369 -0.1702 -0.3391 -0.4880
  122MOL    H1624458   3.508   0.405   1.653  0.7555 -1.1349 -0.1126
  122MOL    H1724459   3.558   0.250   1.622  0.3122  0.6055  0.3719
  122MOL    H1824460   3.380   0.215   1.470  1.1801 -1.3524  1.5984
  122MOL    H1924461   3.276   0.496   1.545  0.7843  0.8195 -1.1602
  122MOL    H2024462   3.180   0.300   1.348  0.2416  0.1183 -3.1690
  122MOL    H2124463   3.241   0.454   1.285  1.0100  1.1780  1.0490
  122MOL    C2224464   3.054   0.480   1.390  0.1776  0.5456 -0.2284
  122MOL    C2324465   2.981   0.503   1.265  0.6389 -0.6808  0.1544
  122MOL    C2424466   2.933   0.624   1.219 -1.6477 -0.7144  0.0661
  122MOL    C2524467   2.874   0.643   1.077  0.0963  0.1385  0.1883
  122MOL    H2624468   2.998   0.403   1.444  1.4830 -2.4754 -2.9822
  122MOL    H2724469   3.068   0.572   1.445 -1.8818  1.3224 -0.9494
  122MOL    H2824470   2.973   0.418   1.200 -0.2297 -0.8721  0.5089
  122MOL    H2924471   2.926   0.711   1.283  0.2655 -1.0997  0.8120
  122MOL    H3024472   2.769   0.616   1.086  0.1409  0.2612  1.1307
  122MOL    H3124473   2.924   0.579   1.004 -1.3483 -0.4030 -0.3393
  122MOL    C3224474   2.900   0.790   1.027  0.8564 -0.0743  1.1157
  122MOL    C3324475   3.051   0.810   0.977 -0.2306  0.3549  0.1905
  122MOL    C3424476   3.136   0.896   1.029  0.5504  0.3455  0.1303
  122MOL    C3524477   3.274   0.900   0.978 -0.5926  0.5325 -0.1614
  122MOL    H3624478   2.852   0.817   0.933 -1.0215 -1.0071  1.7783
  122MOL    H3724479   2.865   0.868   1.094  0.4431  1.1579 -0.5150
  122MOL    H3824480   3.086   0.741   0.902 -0.8282 -0.7210  0.8859
  122MOL    H3924481   3.111   0.970   1.104  0.9463 -1.3659  2.0090
  122MOL    H4024482   3.285   0.827   0.899 -0.0117  0.4361  0.0031
  122MOL    H4124483   3.341   0.868   1.058 -0.1984 -1.7820 -1.3776
  122MOL    C4224484   3.312   1.040   0.928  0.4987  0.1755 -0.3962
  122MOL    C4324485   3.456   1.063   0.878  0.3206  0.4601  0.4431
  122MOL    C4424486   3.547   0.972   0.837  0.2319 -0.3885  0.6392
  122MOL    C4524487   3.686   1.009   0.787  0.6086  0.3413 -0.3970
  122MOL    H4624488   3.242   1.075   0.852 -0.8289 -0.2994  0.5891
  122MOL    H4724489   3.302   1.118   1.004  0.1871  0.6089 -0.8843
  122MOL    H4824490   3.481   1.166   0.859  3.5395  0.0222  2.0219
  122MOL    H4924491   3.523   0.867   0.844  0.1360 -0.4227 -0.1875
  122MOL    H5024492   3.766   0.985   0.858 -1.5978  2.0929  2.8574
  122MOL    H5124493   3.705   1.117   0.789 -1.3176  0.6889 -0.6698
  122MOL    C5224494   3.722   0.958   0.650 -0.4350 -0.2381 -0.2676
  122MOL    C5324495   3.860   1.006   0.606  0.1896 -0.1094 -0.3091
  122MOL    C5424496   3.954   0.916   0.560 -0.4483  0.4064  0.1028
  122MOL    C5524497   4.104   0.943   0.531  0.1581 -0.2250  0.4679
  122MOL    H5624498   3.707   0.850   0.646 -2.7404  0.0551 -0.2458
  122MOL    H5724499   3.648   0.987   0.575  1.0248  1.9968 -0.9137
  122MOL    H5824500   3.879   1.111   0.616  1.1361 -0.3758  0.8498
  122MOL    H5924501   3.931   0.811   0.553 -0.6465  0.4321  0.4222
  122MOL    H6024502   4.151   0.854   0.489 -0.3803 -0.9311  1.3551
  122MOL    H6124503   4.160   0.945   0.625  2.2076  3.0519 -0.7524
  122MOL    C6224504   4.129   1.067   0.450  0.2057  0.3100  0.2666
  122MOL    C6324505   4.275   1.102   0.442  0.1341  0.8524  0.3415
  122MOL    C6424506   4.346   1.102   0.332 -0.3533 -0.2686  0.4250
  122MOL    C6524507   4.503   1.130   0.328  0.4814  0.7862  0.3529
  122MOL    H6624508   4.082   1.065   0.352 -0.2032  0.8731  0.4420
  122MOL    H6724509   4.090   1.147   0.513  0.6481 -0.9513  2.1930
  122MOL    H6824510   4.328   1.104   0.536  1.8318  4.6376 -0.6180
  122MOL    H6924511   4.297   1.087   0.237 -0.6240 -1.1034  0.6975
  122MOL    H7024512   4.526   1.228   0.286  2.2679  0.5895  0.8626
  122MOL    H7124513   4.542   1.049   0.266 -0.0569  0.3364  0.5936
  122MOL    C7224514   4.568   1.114   0.465 -0.2018 -0.2463  0.0325
  122MOL    C7324515   4.716   1.115   0.454 -0.3493 -0.1945  1.2196
  122MOL    C7424516   4.804   1.035   0.519 -0.0867  0.0152  0.8004
  122MOL    C7524517   4.956   1.027   0.507 -0.0394 -0.1505  0.2599
  122MOL    H7624518   4.544   1.193   0.535 -1.2730  0.3158 -0.9614
  122MOL    H7724519   4.539   1.017   0.505 -0.1927  0.9592  3.1112
  122MOL    H7824520   4.754   1.172   0.370  0.3646 -0.0435  1.6463
  122MOL    H7924521   4.766   0.968   0.595 -0.2994 -1.0089 -0.1958
  122MOL    H8024522   5.004   1.059   0.600  1.4722  1.4367 -1.0284
  122MOL    H8124523   4.994   1.092   0.428 -0.7689 -0.9768 -0.7900
  122MOL    C8224524   4.999   0.893   0.452  0.0495  0.1749  0.3280
  122MOL    C8324525   5.145   0.906   0.408  0.5486 -0.0258  0.4854
  122MOL    C8424526   5.244   0.827   0.441  0.0738 -0.0768 -0.6357
  122MOL    C8524527   5.387   0.856   0.421 -0.1707  0.2921 -0.5919
  122MOL    H8624528   4.986   0.821   0.534 -0.0543 -0.4820 -0.2630
  122MOL    H8724529   4.929   0.858   0.377  0.0099 -1.0047  0.8935
  122MOL    H8824530   5.165   0.984   0.336  0.1212 -0.8936 -0.6046
  122MOL    H8924531   5.231   0.726   0.477  1.0588 -0.0011 -0.0478
  122MOL    H9024532   5.428   0.861   0.522 -2.6101 -0.4703  0.4792
  122MOL    H9124533   5.389   0.952   0.370  0.6671  0.6142  0.0382
  122MOL    C9224534   5.448   0.755   0.328 -0.4012 -0.6327  0.3221
  122MOL    C9324535   5.591   0.789   0.319 -0.6564 -0.2079  0.1675
  122MOL    C9424536   5.688   0.695   0.327  0.3334 -0.5779  0.1141
  122MOL    C9524537   5.834   0.733   0.332  0.5443 -0.3022 -0.5324
  122MOL    H9624538   5.423   0.653   0.357 -3.2729 -0.8643 -2.7624
  122MOL    H9724539   5.418   0.777   0.226  0.2686 -2.0573 -0.1891
  122MOL    H9824540   5.612   0.895   0.311  1.0888 -0.5515 -0.0431
  122MOL    H9924541   5.662   0.590   0.333  1.2621 -0.9175 -1.5674
  122MOL   H10024542   5.855   0.723   0.438  1.5205  0.7910 -0.6169
  122MOL   H10124543   5.852   0.839   0.313  0.4511 -0.4750 -1.6160
  122MOL   C10224544   5.908   0.652   0.217 -0.8643 -0.3229 -0.1744
  122MOL   C10324545   6.053   0.677   0.243 -0.4673 -0.8838  0.0232
  122MOL   C10424546   6.151   0.639   0.161 -0.2557 -0.0226 -0.8028
  122MOL   C10524547   6.296   0.659   0.183  0.2759 -0.1381 -0.0484
  122MOL   H10624548   5.898   0.544   0.209 -1.8691 -0.5396  3.1085
  122MOL   H10724549   5.871   0.688   0.121 -0.0586 -0.8266 -0.6795
  122MOL   H10824550   6.081   0.728   0.335  0.1909  2.1352 -1.7814
  122MOL   H10924551   6.112   0.585   0.076 -2.0002  0.2534 -0.2135
  122MOL   H11024552   6.309   0.747   0.246  0.4373  1.2447 -1.9772
  122MOL   H11124553   6.339   0.677   0.085 -1.0803  1.1070 -0.4213
  122MOL   C11224554   6.363   0.535   0.239 -0.2937 -0.2225  0.3922
  122MOL   C11324555   6.344   0.406   0.159  0.0635  0.7937  0.3461
  122MOL   C11424556   6.453   0.334   0.110  0.5326  0.0100  0.6805
  122MOL   C11524557   6.435   0.211   0.019 -0.0668 -0.7306 -0.3870
  122MOL   H11624558   6.470   0.552   0.255  0.4195 -2.5361 -1.5886
  122MOL   H11724559   6.319   0.521   0.338 -1.8415  0.2350 -0.2208
  122MOL   H11824560   6.240   0.388   0.136 -0.2072  2.4577  0.1693
  122MOL   H11924561   6.553   0.360   0.140  1.9524 -2.5283 -1.6349
  122MOL   H12024562   6.337   0.164   0.027  1.4192 -4.0708 -0.9557
  122MOL   H12124563   6.504   0.132   0.048  1.1662 -0.6471 -2.9368
  122MOL   C12224564   6.446   0.244   7.845 -0.6269 -0.3325  0.3351
  122MOL   C12324565   6.417   0.122   7.767 -0.2332  0.0657  0.1894
  122MOL   C12424566   6.314   0.106   7.686  0.7665 -0.0630  0.6599
  122MOL   C12524567   6.292   7.967   7.595 -0.4056 -0.0648 -0.0463
  122MOL   H12624568   6.371   0.319   7.821 -1.1850 -1.7949 -2.7288
  122MOL   H12724569   6.542   0.284   7.811 -0.1236 -1.1541  0.7626
  122MOL   H12824570   6.482   0.036   7.779 -0.2675  0.1843  1.2512
  122MOL   H12924571   6.241   0.184   7.667 -0.2294 -1.2747 -0.5837
  122MOL   H13024572   6.386   7.913   7.596  0.2802  1.0647  2.7575
  122MOL   H13124573   6.284   0.019   7.491 -0.9927 -1.9168 -0.5231
  122MOL   C13224574   6.175   7.879   7.632 -0.1472  0.2202 -0.8127
  122MOL   C13324575   6.167   7.754   7.548 -0.7462 -0.3776 -0.0689
  122MOL   C13424576   6.073   7.663   7.565  0.8196 -0.1215 -0.0415
  122MOL   C13524577   6.082   7.537   7.485 -0.2427 -0.4118  0.6609
  122MOL   H13624578   6.179   7.853   7.738 -1.3399  3.1016 -0.0108
  122MOL   H13724579   6.080   7.927   7.610  0.6537  1.2697 -2.0279
  122MOL   H13824580   6.238   7.742   7.467 -0.7941 -2.3056  0.1638
  122MOL   H13924581   5.998   7.666   7.643  0.2587 -2.0377 -0.4718
  122MOL   H14024582   6.111   7.455   7.551 -1.2609 -2.1114 -0.9603
  122MOL   H14124583   6.157   7.531   7.406 -0.1511  0.4213  0.6771
  122MOL   C14224584   5.941   7.504   7.434 -0.4235 -0.4824  0.3935
  122MOL   C14324585   5.912   7.398   7.331 -0.0434  0.9504  0.2645
  122MOL   C14424586   5.994   7.335   7.251 -0.0425  0.4773 -0.6706
  122MOL   C14524587   5.960   7.220   7.155  0.1483  0.0478  0.2497
  122MOL   H14624588   5.872   7.478   7.514 -1.9671  1.2578 -0.3173
  122MOL   H14724589   5.887   7.592   7.397 -0.4660 -0.4172  0.6117
  122MOL   H14824590   5.809   7.371   7.319  1.0071 -3.2304 -0.0599
  122MOL   H14924591   6.099   7.358   7.260 -0.1373  0.9394 -0.7466
  122MOL   H15024592   6.024   7.214   7.067  0.6376  1.0081  0.5430
  122MOL   H15124593   5.862   7.243   7.114  0.9706  3.0033 -0.1645
  122MOL   C15224594   5.983   7.084   7.219  0.3277 -0.4543 -0.2302
  122MOL   C15324595   5.962   6.969   7.120  0.4552  0.4288 -0.6083
  122MOL   C15424596   6.060   6.888   7.073 -0.3724 -0.7958  0.3289
  122MOL   C15524597   6.022   6.768   6.985  0.1235 -0.1444 -0.0085
  122MOL   H15624598   6.089   7.095   7.244 -0.1463  0.4409  1.4180
  122MOL   H15724599   5.915   7.075   7.303  0.5870 -1.3076 -0.1066
  122MOL   H15824600   5.863   6.959   7.079 -0.5963 -0.5096  2.0267
  122MOL   H15924601   6.164   6.892   7.102 -0.5082 -3.6247  1.4067
  122MOL   H16024602   5.918   6.782   6.955 -0.4107 -1.7182  1.0344
  122MOL   H16124603   6.010   6.680   7.047  0.2717  0.5590  1.0379
  122MOL   C16224604   6.122   6.745   6.868 -0.4286  0.5014  0.6080
  122MOL   C16324605   6.073   6.808   6.733  0.4548  0.1793 -0.0718
  122MOL   C16424606   6.001   6.920   6.712 -0.3444 -0.0242 -0.1533
  122MOL   C16524607   5.953   6.956   6.572  0.0585 -0.0271  0.5532
  122MOL   H16624608   6.224   6.766   6.900  0.3829 -0.1810 -1.4007
  122MOL   H16724609   6.144   6.639   6.851  1.5898  0.6848  1.9547
  122MOL   H16824610   6.095   6.749   6.645 -1.4621 -0.9806  0.1980
  122MOL   H16924611   5.977   6.990   6.791 -0.4269 -0.4721  0.2226
  122MOL   H17024612   5.844   6.962   6.570  0.0470 -0.4139 -1.8363
  122MOL   H17124613   6.005   6.891   6.502  0.3404 -0.7545  1.4289
  122MOL   C17224614   6.000   7.103   6.534  0.2404 -0.2249 -0.2672
  122MOL   C17324615   5.921   7.205   6.617  0.1512  0.5530 -0.4046
  122MOL   C17424616   5.971   7.303   6.698 -0.7137  0.3344  0.3746
  122MOL   C17524617   5.894   7.406   6.773 -0.3771 -0.9652 -0.2139
  122MOL   H17624618   6.106   7.117   6.553  0.1135 -2.2493  2.1083
  122MOL   H17724619   5.979   7.131   6.430  1.8166 -0.8090 -0.7600
  122MOL   H17824620   5.814   7.189   6.609  0.1990 -0.1031  0.1895
  122MOL   H17924621   6.078   7.318   6.704 -0.4998 -0.6584 -0.7436
  122MOL   H18024622   5.872   7.370   6.873 -1.6893 -2.6512 -1.0873
  122MOL   H18124623   5.806   7.413   6.708  0.2262 -1.3651 -1.0864
  122MOL   C18224624   5.971   7.531   6.786  0.2804  0.8802  0.1670
  122MOL   C18324625   5.910   7.638   6.873  0.6045 -0.4831  0.5056
  122MOL   C18424626   5.983   7.677   6.978  0.3814  0.5257 -0.8285
  122MOL   C18524627   5.932   7.784   7.069 -0.2916  0.1159  0.3403
  122MOL   H18624628   6.074   7.511   6.815  0.5081  1.3504 -0.3047
  122MOL   H18724629   5.991   7.582   6.692 -0.0088 -1.5493 -1.2749
  122MOL   H18824630   5.825   7.695   6.840  0.2499 -0.8617  0.7740
  122MOL   H18924631   6.063   7.614   7.012  1.8564  2.2678 -0.9480
  122MOL   H19024632   5.869   7.732   7.141 -1.2820  1.6202  0.5606
  122MOL   H19124633   5.868   7.856   7.019  0.0170  0.8568  1.0002
  122MOL   C19224634   6.049   7.868   7.119 -0.2332  0.2156 -0.1600
  122MOL   C19324635   6.011   7.958   7.238 -0.0780  0.6365 -0.4499
  122MOL   C19424636   6.014   0.115   7.236  0.0360  0.6532 -0.5409
  122MOL   C19524637   5.975   0.203   7.352  0.1068 -1.0647 -0.0843
  122MOL   H19624638   6.137   7.809   7.147 -0.0403  0.3045 -0.5637
  122MOL   H19724639   6.090   7.929   7.038  0.5778 -0.1193 -0.0057
  122MOL   H19824640   5.986   7.908   7.330  2.8981 -1.4767 -0.7118
  122MOL   H19924641   6.048   0.162   7.145 -0.5528 -0.2224 -1.2208
  122MOL   H20024642   5.927   0.295   7.319  1.1416 -0.0632  1.1717
  122MOL   H20124643   6.068   0.225   7.404 -1.0550 -0.4885  1.8273
  122MOL   H20224644   5.901   0.159   7.420 -0.9282 -0.7590 -1.0057
  123MOL     C124645   3.541   2.655   5.107  0.0687 -0.2254 -0.2226
  123MOL     C224646   3.411   2.718   5.145 -0.0887  0.2138 -0.0902
  123MOL     C324647   3.365   2.729   5.272  0.0518  0.2039  0.2202
  123MOL     C424648   3.233   2.801   5.299 -0.0398  0.1256  0.0857
  123MOL     H524649   3.606   2.615   5.185  0.2615 -3.6642 -2.0751
  123MOL     H624650   3.596   2.708   5.030  0.8559  1.9998  1.7864
  123MOL     H724651   3.351   2.755   5.063  2.0240  0.5223 -1.5299
  123MOL     H824652   3.426   2.708   5.358  2.2780  0.6788 -1.1950
  123MOL     H924653   3.191   2.819   5.200  1.1197  0.3790 -0.3693
  123MOL    H1024654   3.256   2.895   5.348 -0.3082 -0.6367  1.7365
  123MOL    H1124655   3.530   2.557   5.060 -0.3439 -0.2572 -0.0623
  123MOL    C1224656   3.141   2.718   5.397  0.8219  0.6002 -0.4518
  123MOL    C1324657   3.001   2.772   5.420  0.8064  0.1634 -0.1607
  123MOL    C1424658   2.951   2.815   5.537 -0.6657 -0.5369 -0.1407
  123MOL    C1524659   2.808   2.860   5.553  0.4563  0.6176 -0.3929
  123MOL    H1624660   3.127   2.619   5.353 -3.2439  1.0762 -0.4462
  123MOL    H1724661   3.188   2.710   5.495 -0.8283 -2.1080  0.1742
  123MOL    H1824662   2.931   2.761   5.338  0.5861 -1.7657  0.2619
  123MOL    H1924663   3.010   2.817   5.627  1.9345  0.4413 -1.8232
  123MOL    H2024664   2.766   2.892   5.457 -1.1689 -1.0526 -0.2759
  123MOL    H2124665   2.805   2.946   5.619 -1.0695  0.5713 -0.3667
  123MOL    C2224666   2.714   2.751   5.603 -0.8799  0.4986  0.2791
  123MOL    C2324667   2.576   2.813   5.630 -0.7769  0.2785 -0.2555
  123MOL    C2424668   2.530   2.807   5.754 -0.2056  0.1754 -0.0281
  123MOL    C2524669   2.400   2.854   5.806 -0.2547 -0.5517  0.0978
  123MOL    H2624670   2.700   2.676   5.525  0.2595 -1.0737  1.5442
  123MOL    H2724671   2.774   2.714   5.686  2.0821  2.0884 -1.0608
  123MOL    H2824672   2.517   2.842   5.545  0.9647 -0.0004 -1.5796
  123MOL    H2924673   2.599   2.782   5.833  0.4886  0.0361 -0.6642
  123MOL    H3024674   2.336   2.772   5.838  1.5009 -1.2208  2.0178
  123MOL    H3124675   2.336   2.897   5.729 -1.2735  0.7852  1.6429
  123MOL    C3224676   2.414   2.960   5.914 -0.4527 -0.4365 -0.5362
  123MOL    C3324677   2.468   3.090   5.867  0.0760 -0.7731 -0.1411
  123MOL    C3424678   2.398   3.195   5.842  0.2875 -0.7234 -0.4741
  123MOL    C3524679   2.457   3.317   5.768  0.4207  0.3051  0.2596
  123MOL    H3624680   2.317   2.970   5.963  0.6685  1.8791  1.2825
  123MOL    H3724681   2.486   2.930   5.990 -1.9650  0.8024  1.4224
  123MOL    H3824682   2.572   3.092   5.840 -0.2625 -0.1822 -1.4158
  123MOL    H3924683   2.295   3.207   5.872  0.5617 -1.7271  0.9621
  123MOL    H4024684   2.393   3.348   5.685  1.3302  0.5664 -0.3612
  123MOL    H4124685   2.553   3.288   5.724  0.0785  0.3149 -0.4980
  123MOL    C4224686   2.486   3.423   5.872 -0.3372 -0.8214 -0.7447
  123MOL    C4324687   2.566   3.540   5.828 -0.1433  0.2376 -0.5798
  123MOL    C4424688   2.673   3.574   5.896  0.1764 -0.0499 -0.2602
  123MOL    C4524689   2.767   3.690   5.861  0.2178 -0.2768  0.6875
  123MOL    H4624690   2.395   3.475   5.900 -0.3116 -1.3095  0.2499
  123MOL    H4724691   2.528   3.377   5.961  0.4926 -2.1649 -1.7982
  123MOL    H4824692   2.534   3.591   5.738 -1.9479 -0.6173 -0.4379
  123MOL    H4924693   2.713   3.514   5.976 -0.5351  0.9932  0.9147
  123MOL    H5024694   2.780   3.759   5.944 -0.1988 -0.3493  0.8120
  123MOL    H5124695   2.726   3.752   5.781 -0.1287 -0.1023  1.0007
  123MOL    C5224696   2.902   3.638   5.815 -0.5878 -0.3653 -0.0614
  123MOL    C5324697   2.997   3.740   5.760  0.4084  0.1782 -0.3524
  123MOL    C5424698   3.130   3.722   5.769 -0.1454 -0.0149  0.3099
  123MOL    C5524699   3.226   3.830   5.717  0.7044 -0.0655  0.6687
  123MOL    H5624700   2.952   3.579   5.892  1.4151  0.5811 -0.6129
  123MOL    H5724701   2.888   3.565   5.736 -0.7739  0.4640 -0.7976
  123MOL    H5824702   2.957   3.820   5.699 -0.7090  0.1872  0.3667
  123MOL    H5924703   3.160   3.638   5.830  0.6992  0.7994  1.0154
  123MOL    H6024704   3.178   3.924   5.690  3.1960  1.3035  0.8696
  123MOL    H6124705   3.269   3.803   5.621  0.0152  0.8531  0.0930
  123MOL    C6224706   3.350   3.860   5.801 -0.1027 -0.8842 -0.3716
  123MOL    C6324707   3.442   3.966   5.746  0.0213  0.6595 -0.4723
  123MOL    C6424708   3.438   4.099   5.769  0.2638  0.2478  0.5576
  123MOL    C6524709   3.534   4.196   5.708  0.1194 -0.0098 -0.0989
  123MOL    H6624710   3.332   3.883   5.906  1.4876  2.0972 -0.7195
  123MOL    H6724711   3.423   3.779   5.801  2.4832  1.3419 -2.8928
  123MOL    H6824712   3.517   3.932   5.676  0.6895 -1.7489  1.3749
  123MOL    H6924713   3.370   4.144   5.840  2.1531  1.6513  1.5168
  123MOL    H7024714   3.613   4.147   5.652  0.2250  0.5178 -0.4109
  123MOL    H7124715   3.589   4.243   5.790  0.0734 -0.1988  0.0430
  123MOL    C7224716   3.469   4.288   5.612  0.5721  0.1067 -0.2710
  123MOL    C7324717   3.540   4.417   5.565  0.3139 -0.2357 -0.1167
  123MOL    C7424718   3.483   4.541   5.572 -0.2365 -0.0254 -0.7159
  123MOL    C7524719   3.557   4.658   5.518 -0.6152 -0.5144 -0.9818
  123MOL    H7624720   3.429   4.234   5.527  0.4853  0.7135 -0.6185
  123MOL    H7724721   3.381   4.315   5.671  1.2319 -1.1074  1.3204
  123MOL    H7824722   3.644   4.414   5.535  0.0783 -3.2094 -0.7723
  123MOL    H7924723   3.384   4.562   5.609  0.1897 -1.4559  1.3619
  123MOL    H8024724   3.531   4.666   5.412  0.0257 -1.5884 -1.2205
  123MOL    H8124725   3.664   4.640   5.518 -0.9493 -2.6424 -0.9394
  123MOL    C8224726   3.547   4.788   5.604 -0.1165 -0.0404  0.4819
  123MOL    C8324727   3.626   4.904   5.550  0.1531 -0.8237  0.5508
  123MOL    C8424728   3.717   4.966   5.629  0.4341  0.3562 -0.3526
  123MOL    C8524729   3.810   5.076   5.589 -0.5063 -0.6357 -0.0102
  123MOL    H8624730   3.445   4.825   5.615  0.8442  3.2120 -1.0277
  123MOL    H8724731   3.578   4.764   5.705  0.4429 -0.4611  0.2109
  123MOL    H8824732   3.597   4.953   5.458  1.0902  0.1229  0.7528
  123MOL    H8924733   3.735   4.934   5.730 -0.7883  0.1410 -0.1997
  123MOL    H9024734   3.811   5.147   5.672 -0.6370 -0.6209 -0.0213
  123MOL    H9124735   3.771   5.108   5.492 -0.3167  0.9950  0.4324
  123MOL    C9224736   3.956   5.034   5.569 -0.2246 -0.9529  0.3645
  123MOL    C9324737   4.041   5.152   5.523  0.1229  0.3109 -0.2447
  123MOL    C9424738   3.998   5.268   5.476 -0.4965 -0.0633 -0.4927
  123MOL    C9524739   4.089   5.370   5.415 -0.2211 -0.0785 -0.1692
  123MOL    H9624740   4.002   4.994   5.659  1.3156  2.5839  1.2142
  123MOL    H9724741   3.977   4.961   5.490 -1.4926  0.7900 -1.6532
  123MOL    H9824742   4.149   5.140   5.521 -0.0647 -1.4025 -1.0893
  123MOL    H9924743   3.893   5.290   5.467 -0.1572  1.8462  0.1590
  123MOL   H10024744   4.041   5.409   5.326 -1.0445  2.6040  1.3899
  123MOL   H10124745   4.185   5.321   5.393  1.3499  3.1637 -0.8102
  123MOL   C10224746   4.117   5.490   5.502 -0.8418 -0.0330 -0.2063
  123MOL   C10324747   4.169   5.460   5.640  0.0673 -0.5961  1.1222
  123MOL   C10424748   4.235   5.544   5.718  0.2426 -0.2375  0.4753
  123MOL   C10524749   4.274   5.502   5.855 -0.8649 -0.3249 -0.4280
  123MOL   H10624750   4.173   5.572   5.457 -1.8312  0.2815 -0.8802
  123MOL   H10724751   4.022   5.536   5.532 -0.9661 -1.0987  1.0712
  123MOL   H10824752   4.138   5.367   5.684 -2.2448  0.1651  1.1765
  123MOL   H10924753   4.265   5.644   5.690  3.0254 -1.1328  0.1464
  123MOL   H11024754   4.367   5.550   5.887 -0.8460 -0.6686  0.0357
  123MOL   H11124755   4.295   5.395   5.852 -0.8849 -0.3004 -3.8576
  123MOL   C11224756   4.166   5.546   5.954 -0.0201 -0.0287 -0.5737
  123MOL   C11324757   4.039   5.468   5.928  0.5706  0.5115  0.9353
  123MOL   C11424758   3.933   5.505   5.852 -0.5265  0.5631 -0.1091
  123MOL   C11524759   3.798   5.423   5.836 -0.3946  0.0230 -0.4248
  123MOL   H11624760   4.207   5.536   6.054 -0.7616  0.8035 -0.1714
  123MOL   H11724761   4.137   5.650   5.939  1.1517  0.4519  0.3722
  123MOL   H11824762   4.033   5.381   5.993 -3.1534  0.4427  0.5781
  123MOL   H11924763   3.941   5.595   5.793  0.2358 -0.2933 -1.3409
  123MOL   H12024764   3.796   5.379   5.737  0.4298 -2.5547  0.6501
  123MOL   H12124765   3.712   5.487   5.856  0.5343  1.0425  0.3314
  123MOL   C12224766   3.776   5.293   5.920  0.1012  0.0024  0.3952
  123MOL   C12324767   3.653   5.211   5.891 -0.2898 -0.7150 -0.5312
  123MOL   C12424768   3.558   5.257   5.806 -0.3914  0.1390  0.0141
  123MOL   C12524769   3.437   5.182   5.764  0.0964 -0.5627 -0.0552
  123MOL   H12624770   3.858   5.226   5.893 -0.9447 -0.3559 -1.9880
  123MOL   H12724771   3.794   5.307   6.027 -2.1700  0.4452  0.7496
  123MOL   H12824772   3.658   5.110   5.930  0.2673 -0.2699  0.5538
  123MOL   H12924773   3.561   5.359   5.771 -0.9615  0.3463  0.5650
  123MOL   H13024774   3.433   5.087   5.818 -1.0906 -1.1011 -1.0687
  123MOL   H13124775   3.453   5.158   5.659 -2.5250 -0.4542 -0.5275
  123MOL   C13224776   3.306   5.265   5.774 -0.0214 -0.0272 -0.0291
  123MOL   C13324777   3.175   5.200   5.719 -0.2260 -0.6845 -0.0395
  123MOL   C13424778   3.070   5.180   5.800 -0.1878  0.7478 -0.6050
  123MOL   C13524779   2.952   5.087   5.760 -0.3275  0.6265  0.4941
  123MOL   H13624780   3.290   5.279   5.881  1.3734 -0.3808  0.2214
  123MOL   H13724781   3.311   5.364   5.728  1.6424  0.2621  0.7560
  123MOL   H13824782   3.169   5.181   5.613  0.0133  0.2121 -0.2154
  123MOL   H13924783   3.084   5.204   5.905 -0.5999 -0.9701 -0.1424
  123MOL   H14024784   2.916   5.035   5.848  1.0564 -0.5017  0.4069
  123MOL   H14124785   2.993   5.018   5.686 -0.2192  0.0649  1.0814
  123MOL   C14224786   2.833   5.167   5.711 -0.2076  0.3063 -0.2740
  123MOL   C14324787   2.722   5.074   5.677 -0.4656 -0.1672 -0.5281
  123MOL   C14424788   2.617   5.063   5.758  0.0144  0.6482  0.3972
  123MOL   C14524789   2.504   4.969   5.723 -0.2186  0.3916  0.0869
  123MOL   H14624790   2.806   5.235   5.791  1.2641  0.8550 -0.2180
  123MOL   H14724791   2.866   5.224   5.623  1.6792 -2.6325 -1.5506
  123MOL   H14824792   2.735   5.018   5.585  1.5413  0.8227 -0.8714
  123MOL   H14924793   2.615   5.130   5.843 -2.1849 -0.7497  1.4850
  123MOL   H15024794   2.523   4.913   5.632 -0.9529  0.3058 -0.0193
  123MOL   H15124795   2.411   5.024   5.705 -0.9984 -0.7895  0.4645
  123MOL   C15224796   2.462   4.875   5.839  1.1520  0.6564  0.0273
  123MOL   C15324797   2.346   4.787   5.808  0.1498  0.3441  0.0675
  123MOL   C15424798   2.340   4.667   5.860 -0.3503 -0.1952  0.1725
  123MOL   C15524799   2.227   4.568   5.831  0.1153 -0.6429 -0.6092
  123MOL   H15624800   2.546   4.814   5.872  0.1764 -1.3976 -1.1478
  123MOL   H15724801   2.429   4.914   5.935  2.6258 -1.5638  1.4821
  123MOL   H15824802   2.272   4.825   5.740  1.9005  2.7526 -0.5689
  123MOL   H15924803   2.415   4.648   5.935  1.2661 -1.7885 -1.7866
  123MOL   H16024804   2.139   4.626   5.857 -0.1645 -0.3527 -2.1083
  123MOL   H16124805   2.248   4.491   5.905  1.2499 -2.2028 -2.4794
  123MOL   C16224806   2.217   4.535   5.672 -0.7542 -0.5195 -0.8672
  123MOL   C16324807   2.099   4.443   5.645 -0.3233 -0.0437 -0.1472
  123MOL   C16424808   1.990   4.476   5.576 -0.3268 -0.7599  1.0010
  123MOL   C16524809   1.862   4.399   5.556  0.3218 -0.9940  0.1411
  123MOL   H16624810   2.204   4.626   5.613 -2.8848  1.0449  1.8265
  123MOL   H16724811   2.303   4.488   5.627 -0.1457 -1.5302  1.2638
  123MOL   H16824812   2.106   4.347   5.695 -0.8676 -0.9634 -1.7996
  123MOL   H16924813   2.001   4.568   5.521  0.7366 -2.0238 -0.9443
  123MOL   H17024814   1.861   4.305   5.612 -0.6945 -1.2248 -0.2508
  123MOL   H17124815   1.838   4.382   5.451 -0.9854 -0.1715  0.2912
  123MOL   C17224816   1.740   4.478   5.601  1.0408 -0.0586 -0.6431
  123MOL   C17324817   1.613   4.411   5.557 -0.6085  0.3411 -0.3900
  123MOL   C17424818   1.516   4.373   5.640 -0.1002  0.5773 -0.0694
  123MOL   C17524819   1.381   4.319   5.588 -0.6082 -0.2591  0.1312
  123MOL   H17624820   1.732   4.480   5.710 -2.0025 -0.3470 -0.8160
  123MOL   H17724821   1.740   4.580   5.565 -0.6349  0.5208  0.8883
  123MOL   H17824822   1.599   4.397   5.451 -1.6590  0.2453 -0.2470
  123MOL   H17924823   1.527   4.382   5.747 -0.5732 -0.7134  0.0958
  123MOL   H18024824   1.380   4.213   5.611  0.7053 -0.4016 -0.4166
  123MOL   H18124825   1.394   4.311   5.481  1.1710 -2.3824  0.4692
  123MOL   C18224826   1.266   4.410   5.643 -0.8979 -0.6973  0.3738
  123MOL   C18324827   1.132   4.360   5.589  0.4432  0.6838 -0.3757
  123MOL   C18424828   1.024   4.434   5.569  0.4337  1.0419  0.2313
  123MOL   C18524829   0.902   4.361   5.506 -0.2330 -0.3603  0.6359
  123MOL   H18624830   1.261   4.403   5.751 -1.0969  1.8449  0.5648
  123MOL   H18724831   1.280   4.511   5.605 -1.7879 -0.9034 -0.5596
  123MOL   H18824832   1.140   4.255   5.565 -2.4012  0.1414  0.9052
  123MOL   H18924833   1.028   4.542   5.582  0.3764  0.9089  1.3325
  123MOL   H19024834   0.808   4.402   5.543  0.3146  1.0592  0.5013
  123MOL   H19124835   0.895   4.255   5.530  1.3611 -0.6488 -0.1468
  123MOL   C19224836   0.903   4.364   5.347 -1.0737 -0.4817  0.0965
  123MOL   C19324837   0.778   4.321   5.273  0.3720 -0.2528 -0.8839
  123MOL   C19424838   0.781   4.202   5.217  0.7153  0.5801 -0.1307
  123MOL   C19524839   0.662   4.135   5.152  0.4649  0.5722 -0.2531
  123MOL   H19624840   0.910   4.466   5.311  1.1001 -0.7846 -0.3796
  123MOL   H19724841   0.988   4.300   5.325 -2.8881 -2.7026 -0.7512
  123MOL   H19824842   0.686   4.378   5.278  0.5271 -0.1263  1.0861
  123MOL   H19924843   0.877   4.152   5.220  1.4287  1.7681 -1.8737
  123MOL   H20024844   0.695   4.111   5.051  0.4803 -0.1504 -0.0777
  123MOL   H20124845   0.579   4.205   5.140  0.6704  1.4844  3.2733
  123MOL   H20224846   0.618   4.049   5.202 -0.3289 -0.1662 -2.1755
  124MOL     C124847   7.106   5.080   5.670  0.5412 -0.4236  0.6898
  124MOL     C224848   7.142   4.939   5.637 -0.1128  0.0787  0.4839
  124MOL     C324849   7.237   4.868   5.709 -0.2619  0.7337 -0.4384
  124MOL     C424850   7.266   4.718   5.699  0.5433  0.1359  0.0294
  124MOL     H524851   6.999   5.102   5.676  0.9109  1.6906  0.0261
  124MOL     H624852   7.155   5.148   5.601 -0.8125 -0.4015 -0.2516
  124MOL     H724853   7.086   4.895   5.555  0.3194 -2.2505  1.3925
  124MOL     H824854   7.295   4.913   5.788  0.2145 -1.2629  0.3807
  124MOL     H924855   7.267   4.678   5.800  2.9540 -1.2435 -0.4963
  124MOL    H1024856   7.370   4.708   5.667  1.3766  0.4059  2.5768
  124MOL    H1124857   7.144   5.112   5.768  1.6185  2.3307 -0.5633
  124MOL    C1224858   7.169   4.636   5.612  0.9865 -0.3110 -0.4331
  124MOL    C1324859   7.200   4.632   5.467  0.8077 -0.5926 -0.2900
  124MOL    C1424860   7.222   4.518   5.399  0.8259 -0.2717  0.2755
  124MOL    C1524861   7.248   4.499   5.250 -0.1003 -0.7254 -0.1643
  124MOL    H1624862   7.146   4.534   5.642 -1.5847 -0.1229 -1.6735
  124MOL    H1724863   7.069   4.677   5.620  1.3940  0.4676  0.7152
  124MOL    H1824864   7.185   4.725   5.414 -1.2139 -1.6848 -1.7328
  124MOL    H1924865   7.218   4.425   5.454 -1.1411 -0.3457  0.0419
  124MOL    H2024866   7.244   4.601   5.211  1.2510 -0.9669 -0.9381
  124MOL    H2124867   7.160   4.449   5.209  0.0147  0.7800 -2.3330
  124MOL    C2224868   7.378   4.434   5.214 -1.4024  0.2489 -0.4241
  124MOL    C2324869   7.382   4.285   5.241  1.0715 -0.0539 -0.5404
  124MOL    C2424870   7.455   4.221   5.338 -0.2160  0.6984  0.0927
  124MOL    C2524871   7.460   4.069   5.360 -0.4897 -0.0652  0.6996
  124MOL    H2624872   7.408   4.454   5.111  1.7596 -0.9756  0.1895
  124MOL    H2724873   7.458   4.480   5.272  1.0263  0.2453 -3.5877
  124MOL    H2824874   7.322   4.219   5.180 -0.9444  1.2182  0.0013
  124MOL    H2924875   7.520   4.278   5.403  1.3241 -1.5680  0.6020
  124MOL    H3024876   7.382   4.035   5.291  0.7249  0.4060 -0.9383
  124MOL    H3124877   7.431   4.034   5.459 -2.5435 -1.4914 -0.3663
  124MOL    C3224878   7.597   4.010   5.330 -0.6286 -0.6095 -0.0889
  124MOL    C3324879   7.587   3.865   5.303  0.1324 -0.2370  0.2279
  124MOL    C3424880   7.649   3.793   5.203  0.3713 -0.2894 -0.0943
  124MOL    C3524881   7.638   3.635   5.202  0.3787  0.2127  0.5032
  124MOL    H3624882   7.655   4.067   5.258  0.0614  0.6364  1.4310
  124MOL    H3724883   7.642   4.029   5.428 -2.4721  0.5715  0.5622
  124MOL    H3824884   7.525   3.808   5.371  0.7572 -1.1549  0.0435
  124MOL    H3924885   7.715   3.842   5.133 -1.4330  0.9762 -0.9273
  124MOL    H4024886   7.593   3.606   5.297  3.3892  0.5260  2.0890
  124MOL    H4124887   7.731   3.580   5.193  1.6260  2.4126 -0.4204
  124MOL    C4224888   7.542   3.582   5.089  0.2139  0.1184 -0.0842
  124MOL    C4324889   7.547   3.431   5.070 -0.2670 -0.0104  0.2266
  124MOL    C4424890   7.437   3.356   5.064  0.3903  0.2631 -0.1676
  124MOL    C4524891   7.432   3.207   5.019 -0.6531 -0.3944  0.0355
  124MOL    H4624892   7.440   3.608   5.117  0.5133 -1.0615  2.2308
  124MOL    H4724893   7.576   3.624   4.994  2.5472 -1.1412  0.1503
  124MOL    H4824894   7.642   3.385   5.046 -0.6918 -0.1073 -1.3548
  124MOL    H4924895   7.340   3.400   5.079 -2.4000 -4.1635 -3.5392
  124MOL    H5024896   7.425   3.156   5.115  0.4983 -1.1692 -0.2870
  124MOL    H5124897   7.523   3.187   4.964 -0.7360 -0.9791  0.1078
  124MOL    C5224898   7.317   3.190   4.917  0.4072 -0.6571 -0.2160
  124MOL    C5324899   7.293   3.046   4.887  0.7985  0.6698 -0.1377
  124MOL    C5424900   7.176   2.975   4.900  0.5360  0.2348 -0.0924
  124MOL    C5524901   7.160   2.822   4.865 -0.2531 -0.4694  0.3155
  124MOL    H5624902   7.226   3.234   4.959  0.8306 -0.6159  0.6721
  124MOL    H5724903   7.340   3.247   4.826  2.6279  0.6719  1.1464
  124MOL    H5824904   7.376   2.980   4.864 -1.0296 -1.4495 -0.8736
  124MOL    H5924905   7.089   3.028   4.935 -1.1692 -2.3990 -0.2027
  124MOL    H6024906   7.232   2.787   4.792 -0.9324 -0.0564 -0.5710
  124MOL    H6124907   7.064   2.814   4.814  0.0283  0.1917 -0.3381
  124MOL    C6224908   7.152   2.728   4.993 -0.3478  0.3416 -0.1410
  124MOL    C6324909   7.053   2.763   5.096  0.3583 -0.0378 -0.7323
  124MOL    C6424910   6.985   2.671   5.168  0.5124 -0.0532  0.6174
  124MOL    C6524911   6.885   2.721   5.269 -0.4263  0.6600  0.6348
  124MOL    H6624912   7.130   2.629   4.954 -1.0350  1.2150 -2.0459
  124MOL    H6724913   7.251   2.723   5.038 -0.7201  1.0591  0.7732
  124MOL    H6824914   7.037   2.868   5.118  1.7421  0.5210 -2.2142
  124MOL    H6924915   6.996   2.565   5.152 -1.5740 -0.6364  2.7841
  124MOL    H7024916   6.883   2.830   5.272  0.1903  0.6367  3.1790
  124MOL    H7124917   6.907   2.687   5.370  2.1313  1.1796  0.2812
  124MOL    C7224918   6.741   2.678   5.230  0.4965 -0.6939 -0.1293
  124MOL    C7324919   6.645   2.750   5.326  0.5686 -0.3685  0.4992
  124MOL    C7424920   6.560   2.842   5.276  0.2706  0.0624  0.7450
  124MOL    C7524921   6.466   2.918   5.361 -0.3694  0.0578  0.5978
  124MOL    H7624922   6.727   2.700   5.124 -2.6174 -1.8673 -0.0166
  124MOL    H7724923   6.723   2.572   5.242  0.0524 -0.4137  1.7535
  124MOL    H7824924   6.635   2.735   5.433 -0.8723 -2.9875  0.0593
  124MOL    H7924925   6.563   2.880   5.175 -2.0588  2.0272  1.3717
  124MOL    H8024926   6.504   3.018   5.382  1.0644 -0.5343  0.8921
  124MOL    H8124927   6.448   2.870   5.458  0.6183 -2.2463 -0.3007
  124MOL    C8224928   6.338   2.950   5.289  0.6949 -0.0890 -0.2632
  124MOL    C8324929   6.222   2.989   5.381 -0.8614  1.3812  0.2711
  124MOL    C8424930   6.224   3.004   5.514  0.0073 -0.2967 -0.1180
  124MOL    C8524931   6.110   3.051   5.604 -0.5241  0.0419  0.0337
  124MOL    H8624932   6.350   3.034   5.221 -2.4425  0.3074 -0.4341
  124MOL    H8724933   6.314   2.858   5.237  1.5530  0.4375 -1.5981
  124MOL    H8824934   6.138   3.011   5.317 -0.1443  1.7489 -0.5662
  124MOL    H8924935   6.310   2.979   5.575  0.1595 -0.2296 -0.3053
  124MOL    H9024936   6.048   2.966   5.634 -0.2318  0.5284  2.0414
  124MOL    H9124937   6.033   3.105   5.549 -1.2351 -0.8141  0.1678
  124MOL    C9224938   6.155   3.138   5.720 -0.0211 -0.1622  0.6693
  124MOL    C9324939   6.036   3.210   5.786  0.1911  0.0550 -0.1706
  124MOL    C9424940   5.988   3.155   5.904  0.7656  0.2949  0.1911
  124MOL    C9524941   5.868   3.197   5.986  0.8609 -0.5066 -0.0181
  124MOL    H9624942   6.218   3.089   5.795  0.4360 -0.8585 -0.1523
  124MOL    H9724943   6.215   3.225   5.695  0.8577 -0.3448  2.0857
  124MOL    H9824944   5.980   3.290   5.740  0.7710  1.1743  1.0369
  124MOL    H9924945   6.035   3.072   5.956 -0.9161  0.3725  1.8580
  124MOL   H10024946   5.884   3.176   6.092  1.0914 -1.6786 -0.2870
  124MOL   H10124947   5.780   3.139   5.960 -0.7013  0.9699  1.7664
  124MOL   C10224948   5.816   3.344   5.969 -0.1108  0.1937 -0.1651
  124MOL   C10324949   5.914   3.446   6.028  0.2247  0.1316  0.2193
  124MOL   C10424950   5.962   3.452   6.152 -0.2982 -0.0897 -0.2179
  124MOL   C10524951   6.036   3.576   6.207 -0.5540  0.2814 -0.2295
  124MOL   H10624952   5.794   3.377   5.868  3.5571  0.4395 -0.9456
  124MOL   H10724953   5.719   3.349   6.019  0.5031  0.0765  1.0614
  124MOL   H10824954   5.934   3.531   5.964  0.4423 -0.2540 -0.2350
  124MOL   H10924955   5.942   3.374   6.223 -1.4884 -0.1180 -0.5741
  124MOL   H11024956   6.088   3.630   6.128  2.3018  0.1879  1.5225
  124MOL   H11124957   6.122   3.536   6.260  0.1976 -1.6719 -2.8499
  124MOL   C11224958   5.940   3.662   6.295 -0.0036  0.0746 -0.1464
  124MOL   C11324959   6.004   3.793   6.337  0.8066  0.3487 -0.7610
  124MOL   C11424960   6.036   3.822   6.469  0.1549  0.3155  0.1219
  124MOL   C11524961   6.103   3.955   6.515 -0.0521 -0.0931  0.2794
  124MOL   H11624962   5.854   3.686   6.233 -0.2718  0.3753  0.3358
  124MOL   H11724963   5.916   3.596   6.378  0.2913  1.9475  1.4607
  124MOL   H11824964   6.039   3.870   6.270  1.1950  0.4475 -0.4483
  124MOL   H11924965   6.020   3.750   6.549  1.7946 -0.1843  0.0114
  124MOL   H12024966   6.029   3.991   6.587 -0.6385  1.8106 -1.2408
  124MOL   H12124967   6.110   4.023   6.430  0.3876 -2.1827 -1.3858
  124MOL   C12224968   6.242   3.928   6.573 -0.4299  0.2652 -0.7506
  124MOL   C12324969   6.293   4.044   6.658 -0.2807  0.2644  0.1183
  124MOL   C12424970   6.320   4.044   6.787 -0.2388  0.5819 -0.0450
  124MOL   C12524971   6.381   4.150   6.871  0.0358  0.1322 -0.5033
  124MOL   H12624972   6.234   3.847   6.646  0.2519 -0.1902 -1.1829
  124MOL   H12724973   6.316   3.895   6.501 -1.0842 -1.6835 -0.5500
  124MOL   H12824974   6.318   4.125   6.590 -2.9309  0.3555 -0.7775
  124MOL   H12924975   6.303   3.952   6.841 -0.1045  1.1735  1.0312
  124MOL   H13024976   6.417   4.221   6.796 -0.5763 -1.1973 -2.1061
  124MOL   H13124977   6.464   4.117   6.933 -0.2422 -0.2504 -0.3374
  124MOL   C13224978   6.278   4.211   6.959  0.1027  0.3518  0.5204
  124MOL   C13324979   6.337   4.298   7.062  0.0723  0.7044 -0.0324
  124MOL   C13424980   6.328   4.427   7.074  0.2268 -1.1968 -0.5697
  124MOL   C13524981   6.407   4.507   7.178 -0.0824 -0.5242 -0.0727
  124MOL   H13624982   6.204   4.271   6.906  1.7216  0.6795 -1.4634
  124MOL   H13724983   6.233   4.133   7.020 -1.6213  2.4767  2.0712
  124MOL   H13824984   6.395   4.241   7.133 -2.4086 -1.8297  0.0674
  124MOL   H13924985   6.284   4.484   6.994  2.0077  2.1123  0.6850
  124MOL   H14024986   6.346   4.560   7.251 -0.0412 -1.0748  0.3639
  124MOL   H14124987   6.473   4.576   7.125 -0.0628  0.1226  0.7903
  124MOL   C14224988   6.510   4.424   7.264 -0.3408  0.1971 -0.5290
  124MOL   C14324989   6.580   4.506   7.367 -0.2065 -0.2823 -0.1439
  124MOL   C14424990   6.708   4.540   7.357  0.0074 -0.2591  0.0253
  124MOL   C14524991   6.783   4.596   7.472 -0.2129 -0.0752 -0.1973
  124MOL   H14624992   6.457   4.348   7.321  0.9437  0.3377  0.8888
  124MOL   H14724993   6.576   4.377   7.191 -1.5405 -2.2014 -0.1531
  124MOL   H14824994   6.519   4.517   7.456  0.1065  0.9129 -0.0739
  124MOL   H14924995   6.773   4.516   7.274  0.7371 -0.4178  0.6316
  124MOL   H15024996   6.727   4.579   7.564 -0.3532 -1.2042 -0.4817
  124MOL   H15124997   6.796   4.703   7.455  0.6259 -0.4206 -1.8904
  124MOL   C15224998   6.929   4.539   7.480  0.1548  0.1508  0.2320
  124MOL   C15324999   7.009   4.597   7.602  0.0109 -0.0627 -0.1862
  124MOL   C15425000   6.975   4.695   7.688  0.2086  0.0044 -0.2393
  124MOL   C15525001   7.082   4.757   7.784  0.0353 -0.2772 -0.2053
  124MOL   H15625002   6.922   4.430   7.473 -0.9938  0.1179  1.6746
  124MOL   H15725003   6.981   4.567   7.388 -0.4343 -0.9762 -0.4549
  124MOL   H15825004   7.102   4.544   7.618  0.3171  0.2756 -0.8466
  124MOL   H15925005   6.886   4.755   7.679  1.2202  1.3606 -1.4855
  124MOL   H16025006   7.088   4.860   7.748 -1.1783  0.0533  0.5042
  124MOL   H16125007   7.176   4.703   7.769  2.0949  2.1116  3.4054
  124MOL   C16225008   7.046   4.747   7.931 -0.2870  0.0728 -0.7273
  124MOL   C16325009   7.147   4.818   0.045  0.6655  0.1041  0.6268
  124MOL   C16425010   7.222   4.764   0.138  0.1605 -0.3856  0.6429
  124MOL   C16525011   7.326   4.828   0.217  0.2161  0.4148 -1.3121
  124MOL   H16625012   6.944   4.782   7.938 -0.9520 -1.5936 -1.6541
  124MOL   H16725013   7.042   4.641   7.957  1.0203  0.9208  3.2869
  124MOL   H16825014   7.159   4.921   0.015  0.0961 -0.2409 -0.8135
  124MOL   H16925015   7.212   4.656   0.143  1.1055 -0.4867  0.3961
  124MOL   H17025016   7.340   4.926   0.171  1.6639  0.8354 -0.0157
  124MOL   H17125017   7.421   4.775   0.209  2.0587  3.4392 -0.2829
  124MOL   C17225018   7.277   4.843   0.358 -0.1368  0.0652  0.0779
  124MOL   C17325019   7.396   4.868   0.448 -0.3552  0.7853 -0.6761
  124MOL   C17425020   7.402   4.792   0.560 -0.2513 -0.4603 -0.2161
  124MOL   C17525021   7.513   4.801   0.663 -0.3452  0.5111 -0.0501
  124MOL   H17625022   7.193   4.913   0.357 -0.2295  0.0860  3.3329
  124MOL   H17725023   7.238   4.745   0.385 -2.2300  0.9108  0.2715
  124MOL   H17825024   7.466   4.948   0.427  0.6661  0.1960  0.3639
  124MOL   H17925025   7.319   4.724   0.571 -1.3819  1.2976  2.8261
  124MOL   H18025026   7.457   4.816   0.756  0.0662  0.3337  0.2267
  124MOL   H18125027   7.584   4.883   0.654  0.1570 -0.0010 -0.7919
  124MOL   C18225028   7.587   4.672   0.659  0.0045 -0.6496 -0.0538
  124MOL   C18325029   7.714   4.691   0.743  0.3318  0.3649  0.1262
  124MOL   C18425030   7.835   4.706   0.703 -0.1115  0.0902  0.2125
  124MOL   C18525031   7.953   4.740   0.779 -0.7062  0.3572 -0.2742
  124MOL   H18625032   7.533   4.589   0.704 -1.9703  0.8288  0.3326
  124MOL   H18725033   7.619   4.645   0.558 -2.4591  0.0214 -1.0359
  124MOL   H18825034   7.684   4.703   0.846  2.2544 -3.1111  1.1962
  124MOL   H18925035   7.858   4.688   0.599  1.4253 -0.9235  0.7161
  124MOL   H19025036   7.913   4.772   0.875 -0.2870  0.8297 -0.2540
  124MOL   H19125037   0.020   4.827   0.729 -1.7561  1.1799  0.2202
  124MOL   C19225038   0.067   4.616   0.796  0.4673  0.7648 -0.0333
  124MOL   C19325039   0.187   4.652   0.876 -0.2641 -0.0678 -0.1776
  124MOL   C19425040   0.213   4.774   0.922 -0.5091  0.2670  0.1424
  124MOL   C19525041   0.352   4.815   0.963  0.1544 -0.1035 -0.0978
  124MOL   H19625042   0.022   4.527   0.841 -1.4027  1.4532 -0.4852
  124MOL   H19725043   0.098   4.570   0.702 -1.1506 -3.4585  1.3802
  124MOL   H19825044   0.278   4.594   0.879  0.3230  0.9332  2.6162
  124MOL   H19925045   0.140   4.854   0.920 -0.1678  0.5731 -0.2767
  124MOL   H20025046   0.348   4.860   1.062 -0.2796 -2.0049  0.7642
  124MOL   H20125047   0.385   4.904   0.909 -0.6897  1.7395  2.3250
  124MOL   H20225048   0.424   4.733   0.970 -0.1749 -0.4188 -0.4013
  125MOL     C125049   1.522   7.246   7.343 -0.3842  0.2460 -0.1622
  125MOL     C225050   1.454   7.315   7.231  0.7263  0.1503  0.3765
  125MOL     C325051   1.506   7.404   7.146 -0.0283  0.3574 -0.2097
  125MOL     C425052   1.418   7.464   7.044  0.1287  0.0590 -0.1702
  125MOL     H525053   1.506   7.295   7.439 -1.2906 -0.7562  0.2015
  125MOL     H625054   1.629   7.233   7.331 -0.5152 -0.6309 -0.4485
  125MOL     H725055   1.346   7.303   7.238  0.4437  1.0447 -2.0843
  125MOL     H825056   1.611   7.431   7.149 -0.3539  1.7472 -1.1088
  125MOL     H925057   1.323   7.416   7.069  2.1837 -4.3300 -0.2912
  125MOL    H1025058   1.444   7.420   6.947 -2.4077 -0.0426 -0.8459
  125MOL    H1125059   1.470   7.151   7.355 -0.7656  0.3657 -0.8563
  125MOL    C1225060   1.403   7.612   7.037 -0.2675 -0.5896  0.1145
  125MOL    C1325061   1.526   7.692   7.001 -0.2873  0.4846 -0.4471
  125MOL    C1425062   1.605   7.737   7.094 -0.2394 -0.0276  0.5306
  125MOL    C1525063   1.734   7.813   7.066  0.0718 -0.0812 -0.0195
  125MOL    H1625064   1.320   7.635   6.970  1.6732  0.8283 -1.8594
  125MOL    H1725065   1.366   7.638   7.137  1.2710  0.1804  0.5009
  125MOL    H1825066   1.548   7.714   6.897  0.4422  0.5417 -0.2815
  125MOL    H1925067   1.583   7.723   7.199  0.0090  2.7888  0.9848
  125MOL    H2025068   1.805   7.758   7.129  0.0790  0.1475  0.1703
  125MOL    H2125069   1.722   7.915   7.100  2.5742  0.2344 -0.0055
  125MOL    C2225070   1.778   7.828   6.924  0.1223 -0.0090 -0.0886
  125MOL    C2325071   1.917   7.888   6.904 -0.1547  0.5273 -0.3580
  125MOL    C2425072   1.945   0.000   6.811 -0.0090 -0.7540  0.0127
  125MOL    C2525073   2.078   0.058   6.779 -0.1544 -0.2542  0.8272
  125MOL    H2625074   1.786   7.727   6.884  1.6801  0.2490 -0.4624
  125MOL    H2725075   1.706   7.877   6.858 -1.4169 -1.2795  0.6081
  125MOL    H2825076   1.991   7.845   6.970  1.0624 -0.1664 -2.1127
  125MOL    H2925077   1.869   0.053   6.756  0.6442  0.4456  0.2367
  125MOL    H3025078   2.064   0.050   6.671 -1.6818 -2.9730  1.1789
  125MOL    H3125079   2.154   7.972   6.825 -1.4114 -0.6173  2.4669
  125MOL    C3225080   2.093   0.201   6.823 -0.2931 -0.0428 -0.5128
  125MOL    C3325081   1.980   0.296   6.790 -0.7114  0.9949 -0.1196
  125MOL    C3425082   1.978   0.403   6.711 -0.2482  0.5414  0.1219
  125MOL    C3525083   1.851   0.484   6.673  0.1806 -0.0375 -0.4892
  125MOL    H3625084   2.096   0.198   6.932 -1.1339 -0.7587 -0.4996
  125MOL    H3725085   2.187   0.230   6.777 -0.3061  1.0321  0.1160
  125MOL    H3825086   1.886   0.262   6.831 -0.7560 -0.1980 -1.2008
  125MOL    H3925087   2.067   0.434   6.658 -0.7771 -0.4798 -1.3947
  125MOL    H4025088   1.856   0.574   6.734  0.6549 -0.5930  0.2826
  125MOL    H4125089   1.761   0.429   6.699  1.9228 -1.9590  1.6411
  125MOL    C4225090   1.854   0.522   6.529  0.1486  0.8778  0.1148
  125MOL    C4325091   1.748   0.625   6.501  0.5831 -0.6139 -0.2895
  125MOL    C4425092   1.771   0.743   6.440 -0.5681 -0.2583 -0.5375
  125MOL    C4525093   1.665   0.843   6.405 -0.0752  0.5284  0.0436
  125MOL    H4625094   1.952   0.553   6.493 -0.9548  3.2134 -0.9557
  125MOL    H4725095   1.828   0.438   6.464  0.2057  0.6709  0.3576
  125MOL    H4825096   1.647   0.608   6.535  0.1803  0.0710 -1.1115
  125MOL    H4925097   1.872   0.774   6.417 -0.7419  0.0518 -0.8737
  125MOL    H5025098   1.572   0.810   6.452  1.3589 -1.7270  1.3476
  125MOL    H5125099   1.651   0.826   6.298 -0.9645 -0.6484  0.3305
  125MOL    C5225100   1.697   1.001   6.422 -0.8757  0.1544 -0.3197
  125MOL    C5325101   1.715   1.055   6.559 -0.7521 -0.1429 -0.2642
  125MOL    C5425102   1.656   0.999   6.671 -0.0504 -1.2588 -0.2519
  125MOL    C5525103   1.649   1.060   6.811 -0.6529  0.3750 -0.0329
  125MOL    H5625104   1.789   1.029   6.370 -0.7915  0.0431 -0.2330
  125MOL    H5725105   1.618   1.051   6.367  1.0268 -0.0935 -3.4042
  125MOL    H5825106   1.764   1.150   6.546  0.1652 -0.4841  0.6903
  125MOL    H5925107   1.611   0.901   6.661 -0.3615 -1.4898  2.8016
  125MOL    H6025108   1.543   1.084   6.823 -0.7351 -1.0352  2.3800
  125MOL    H6125109   1.691   1.161   6.812  0.5567  0.0145 -4.7011
  125MOL    C6225110   1.698   0.976   6.923  0.2852  0.0881  0.2275
  125MOL    C6325111   1.840   0.938   6.905 -0.2971 -0.0994 -0.4212
  125MOL    C6425112   1.885   0.809   6.883 -0.8531  0.2593  0.7641
  125MOL    C6525113   2.026   0.763   6.869  0.2368  0.3806 -0.7545
  125MOL    H6625114   1.687   1.038   7.012 -0.3919  2.1834 -1.2695
  125MOL    H6725115   1.639   0.886   6.938 -0.4559  0.2526 -1.5096
  125MOL    H6825116   1.915   1.015   6.917  0.4306 -1.0543  1.3677
  125MOL    H6925117   1.815   0.727   6.874 -2.0265  0.9944  2.9534
  125MOL    H7025118   2.104   0.839   6.863  0.6616 -0.0461 -0.6578
  125MOL    H7125119   2.034   0.706   6.776 -2.5918  0.4950 -1.0847
  125MOL    C7225120   2.074   0.670   6.984 -0.3045  0.5643 -0.4553
  125MOL    C7325121   2.204   0.613   6.963 -0.4233  0.2037 -0.1068
  125MOL    C7425122   2.292   0.589   7.059 -0.8144  0.3971 -0.1808
  125MOL    C7525123   2.421   0.513   7.022  0.1138  0.1627 -0.1733
  125MOL    H7625124   2.072   0.727   7.076  2.2634 -0.9831  0.6281
  125MOL    H7725125   2.008   0.586   7.006  1.6528 -0.8455  0.1633
  125MOL    H7825126   2.218   0.593   6.858  0.4344 -2.0301  0.3977
  125MOL    H7925127   2.277   0.617   7.162 -0.6838  0.8256 -0.2767
  125MOL    H8025128   2.507   0.580   7.014  1.7105 -1.7076  0.7952
  125MOL    H8125129   2.395   0.473   6.924 -0.8886  0.7711 -0.1652
  125MOL    C8225130   2.465   0.398   7.118  0.4545 -0.7105  0.0866
  125MOL    C8325131   2.594   0.332   7.063  0.2923  0.4402 -0.4531
  125MOL    C8425132   2.710   0.317   7.137  0.6797  0.1304 -0.4499
  125MOL    C8525133   2.833   0.247   7.077 -0.2195  0.4724 -0.5767
  125MOL    H8625134   2.477   0.442   7.217 -1.5588  0.9162 -0.3641
  125MOL    H8725135   2.398   0.313   7.133 -1.5690  0.4296 -2.2307
  125MOL    H8825136   2.589   0.290   6.964 -1.9613 -0.5338  0.0487
  125MOL    H8925137   2.718   0.353   7.238 -1.0946 -0.1935 -0.1863
  125MOL    H9025138   2.800   0.213   6.979 -2.1913  0.4347  0.0684
  125MOL    H9125139   2.843   0.158   7.139 -0.7403 -0.6427 -2.0502
  125MOL    C9225140   2.957   0.328   7.057  0.0198  0.6887  0.4850
  125MOL    C9325141   3.074   0.247   7.000 -0.0912 -0.5143 -0.2340
  125MOL    C9425142   3.129   0.280   6.884  0.0674  0.2902  0.9570
  125MOL    C9525143   3.235   0.189   6.810  0.9198  0.4279 -0.6558
  125MOL    H9625144   2.923   0.406   6.989  1.1233  0.8845  0.1538
  125MOL    H9725145   2.991   0.386   7.143  3.2272  1.4946 -1.2611
  125MOL    H9825146   3.103   0.157   7.051 -0.8702 -0.8423 -0.3663
  125MOL    H9925147   3.099   0.369   6.831  0.1645 -0.4504 -0.3732
  125MOL   H10025148   3.223   0.086   6.844  0.3401  1.4624  2.4871
  125MOL   H10125149   3.335   0.227   6.826  0.9675  0.3117 -0.6798
  125MOL   C10225150   3.208   0.182   6.660 -0.6034  0.4507  0.1838
  125MOL   C10325151   3.299   0.076   6.593  0.3062  0.1602 -0.7839
  125MOL   C10425152   3.251   7.931   6.564  0.7821 -0.2942 -0.2539
  125MOL   C10525153   3.338   7.827   6.503  0.8214  1.4782  0.7858
  125MOL   H10625154   3.101   0.160   6.654 -0.7591  1.0113  0.8545
  125MOL   H10725155   3.204   0.281   6.616  1.0713  0.7412  0.6538
  125MOL   H10825156   3.401   0.107   6.575  1.0644 -1.6082  0.4011
  125MOL   H10925157   3.148   7.903   6.581  0.3827 -0.2959 -2.4684
  125MOL   H11025158   3.441   7.860   6.519  1.0676  1.5573 -0.8928
  125MOL   H11125159   3.311   7.823   6.398  0.3997 -1.8341  0.9517
  125MOL   C11225160   3.323   7.688   6.567 -0.1151  1.1223  0.4948
  125MOL   C11325161   3.406   7.585   6.492  0.2488 -0.1417  0.0804
  125MOL   C11425162   3.482   7.609   6.383  0.8486 -0.6882 -0.0456
  125MOL   C11525163   3.560   7.488   6.323 -0.0511  0.1662  1.4790
  125MOL   H11625164   3.351   7.692   6.672  0.8190 -1.6879  0.3938
  125MOL   H11725165   3.217   7.661   6.574 -0.4823  2.4532  0.1132
  125MOL   H11825166   3.413   7.481   6.522  0.5993 -0.4785 -1.1392
  125MOL   H11925167   3.484   7.702   6.327  0.6095 -0.9538 -0.5049
  125MOL   H12025168   3.537   7.398   6.380 -0.9118  0.2027  1.1945
  125MOL   H12125169   3.666   7.512   6.334  0.3204 -0.0751 -1.1786
  125MOL   C12225170   3.530   7.467   6.177  0.0683 -0.3779  0.5749
  125MOL   C12325171   3.589   7.572   6.080  0.0903  0.1617  0.7397
  125MOL   C12425172   3.509   7.655   6.015  0.3311  0.6378 -0.0880
  125MOL   C12525173   3.559   7.767   5.924 -0.2725 -0.1531 -0.5360
  125MOL   H12625174   3.565   7.367   6.151 -1.4874 -0.4350 -1.3690
  125MOL   H12725175   3.424   7.458   6.154  0.2156  0.6928 -0.5582
  125MOL   H12825176   3.695   7.575   6.064 -0.0129  0.7782  0.1644
  125MOL   H12925177   3.404   7.649   6.037  0.8454  0.4842  2.4927
  125MOL   H13025178   3.510   7.861   5.952  1.6352  1.1518 -1.5187
  125MOL   H13125179   3.525   7.748   5.823 -3.8217 -3.7265  1.1655
  125MOL   C13225180   3.718   7.795   5.922  0.5214 -0.3885 -0.1228
  125MOL   C13325181   3.767   7.919   5.855 -0.3304  0.2915  0.3023
  125MOL   C13425182   3.838   7.915   5.745 -0.7698 -0.6255 -0.0516
  125MOL   C13525183   3.897   0.065   5.678 -0.5961 -0.9748  0.0833
  125MOL   H13625184   3.754   7.816   6.022  0.0482 -2.3024  0.4552
  125MOL   H13725185   3.764   7.703   5.887  2.4889  0.2827  0.6315
  125MOL   H13825186   3.740   0.032   5.908 -0.7141 -0.0666  0.7265
  125MOL   H13925187   3.872   7.827   5.692  0.6709  0.8919 -1.7149
  125MOL   H14025188   3.913   0.135   5.760 -0.7254  1.4957 -1.9373
  125MOL   H14125189   3.820   0.113   5.618 -0.3701  0.6168  1.0342
  125MOL   C14225190   4.026   0.041   5.593  0.3568  0.4159  0.2084
  125MOL   C14325191   4.158   0.022   5.670  0.1807  0.6682 -0.6415
  125MOL   C14425192   4.269   7.948   5.615  0.9513  0.7799 -0.8157
  125MOL   C14525193   4.392   7.922   5.698 -0.3260 -0.1411  0.7691
  125MOL   H14625194   4.012   7.924   5.539  4.0512  1.0215 -1.9539
  125MOL   H14725195   4.049   0.105   5.508  2.2122 -1.0622 -0.4348
  125MOL   H14825196   4.156   0.048   5.775  2.1569 -1.4616 -0.0279
  125MOL   H14925197   4.257   7.908   5.516 -0.6227 -0.3991 -0.1751
  125MOL   H15025198   4.387   7.814   5.712 -0.0777 -0.0583  1.5523
  125MOL   H15125199   4.378   0.000   5.792  2.0702  0.8775  0.5736
  125MOL   C15225200   4.522   7.973   5.635  0.1776  0.1208  1.5630
  125MOL   C15325201   4.629   0.024   5.742 -0.6479  0.0531  0.1269
  125MOL   C15425202   4.747   7.935   5.763  0.5306  0.4241  0.3907
  125MOL   C15525203   4.850   0.005   5.860  0.2586 -0.6127 -0.6347
  125MOL   H15625204   4.563   7.902   5.564 -2.3772 -1.0101  1.1896
  125MOL   H15725205   4.496   0.087   5.581  0.5235 -1.7218 -1.8254
  125MOL   H15825206   4.631   0.120   5.792  0.7774  0.9026 -1.5289
  125MOL   H15925207   4.773   7.839   5.721 -1.1445  1.5841 -3.4936
  125MOL   H16025208   4.826   0.100   5.906 -0.6551 -1.3894  0.5237
  125MOL   H16125209   4.938   0.031   5.801  0.8066 -1.7642 -0.3374
  125MOL   C16225210   4.902   7.862   5.946  0.1914 -0.0673 -0.7443
  125MOL   C16325211   5.005   7.906   6.046 -0.7498 -0.1398 -0.1418
  125MOL   C16425212   5.134   7.872   6.033  0.5575  0.1725 -0.9558
  125MOL   C16525213   5.240   7.918   6.130 -0.3264 -0.0424  0.9300
  125MOL   H16625214   4.821   7.812   5.999  1.3080  0.8476  1.9143
  125MOL   H16725215   4.944   7.788   5.878  1.2613  0.1961 -0.3775
  125MOL   H16825216   4.967   7.972   6.122  2.9970 -0.1538  1.8471
  125MOL   H16925217   5.161   7.796   5.961 -1.5699  1.0469 -2.7330
  125MOL   H17025218   5.305   7.970   6.060 -1.3009 -2.9138 -2.2265
  125MOL   H17125219   5.312   7.846   6.171  3.5252  2.0544 -1.8624
  125MOL   C17225220   5.192   0.027   6.242 -0.3332  0.3144  0.3315
  125MOL   C17325221   5.318   0.081   6.316  0.7796  0.0850  0.0596
  125MOL   C17425222   5.366   0.204   6.313  0.7536  0.4630 -0.0048
  125MOL   C17525223   5.486   0.242   6.395 -0.0926  0.4324 -0.0808
  125MOL   H17625224   5.130   0.107   6.201 -0.3456  0.9161  1.5059
  125MOL   H17725225   5.144   7.943   6.318  1.0106 -0.0989  0.8625
  125MOL   H17825226   5.374   0.003   6.366  0.6111 -0.7121 -0.9732
  125MOL   H17925227   5.322   0.290   6.263 -0.1853  0.1880  0.3483
  125MOL   H18025228   5.543   0.149   6.386 -0.1698  0.6718 -4.0393
  125MOL   H18125229   5.458   0.248   6.500 -0.7303 -2.5025 -0.0452
  125MOL   C18225230   5.557   0.371   6.350 -0.0825 -0.5718  0.8272
  125MOL   C18325231   5.703   0.360   6.399  0.2616 -0.8435  0.1184
  125MOL   C18425232   5.810   0.390   6.316  0.5411  0.2634  0.4424
  125MOL   C18525233   5.952   0.384   6.356  0.2442  0.5795 -0.6315
  125MOL   H18625234   5.543   0.379   6.243 -0.7622  1.5364  1.0496
  125MOL   H18725235   5.514   0.462   6.392  1.6167  1.0805 -0.9816
  125MOL   H18825236   5.726   0.321   6.496 -0.6873 -0.9263  0.3169
  125MOL   H18925237   5.784   0.409   6.213 -0.8323 -0.4932  0.6405
  125MOL   H19025238   5.998   0.352   6.262 -1.7671  0.3320 -1.5512
  125MOL   H19125239   5.959   0.310   6.435  0.5523  1.7610  0.4642
  125MOL   C19225240   6.015   0.519   6.404  0.1121 -0.8186  0.0527
  125MOL   C19325241   5.989   0.640   6.310 -0.1158 -0.5090 -0.3253
  125MOL   C19425242   6.084   0.716   6.250 -0.4950 -0.1299  0.5034
  125MOL   C19525243   6.063   0.835   6.166  0.0468 -0.5832 -0.4026
  125MOL   H19625244   5.976   0.548   6.501  1.9611  1.2502  0.2102
  125MOL   H19725245   6.121   0.507   6.429 -0.2910 -2.7485  0.9176
  125MOL   H19825246   5.885   0.669   6.315 -0.3450 -1.3626  0.1160
  125MOL   H19925247   6.183   0.674   6.261 -0.1658  0.7375  0.9440
  125MOL   H20025248   5.963   0.865   6.196  0.6730 -0.3710  1.5064
  125MOL   H20125249   6.075   0.822   6.058  1.0258 -3.0668 -0.0236
  125MOL   H20225250   6.134   0.915   6.190 -1.4840  0.7745 -0.3642
  126MOL     C125251   6.210   2.691   7.891  0.4187 -0.6071 -0.2526
  126MOL     C225252   6.281   2.647   0.038 -0.1154  0.2893  1.1189
  126MOL     C325253   6.216   2.623   0.153  0.0571 -0.0734 -0.0803
  126MOL     C425254   6.281   2.582   0.287  0.1621  0.3963 -0.8441
  126MOL     H525255   6.238   2.794   7.872  0.2873 -0.4981  0.1372
  126MOL     H625256   6.104   2.671   7.908  0.3352 -1.0733 -1.2913
  126MOL     H725257   6.388   2.636   0.033 -0.2910 -1.4097  0.5921
  126MOL     H825258   6.111   2.639   0.173  0.3013  0.5592  0.7146
  126MOL     H925259   6.379   2.627   0.299 -0.8373  2.5076 -0.4057
  126MOL    H1025260   6.273   2.473   0.286  0.3604  0.3754 -2.3445
  126MOL    H1125261   6.248   2.632   7.808 -1.4896 -2.0772 -0.1262
  126MOL    C1225262   6.207   2.634   0.405 -0.2988  0.2199  0.2530
  126MOL    C1325263   6.287   2.641   0.531 -0.3483 -0.0405 -0.7007
  126MOL    C1425264   6.277   2.731   0.634  0.0270  0.9236 -0.4591
  126MOL    C1525265   6.351   2.737   0.767 -0.3031  0.0492 -0.5187
  126MOL    H1625266   6.166   2.734   0.387 -0.0116  0.3537  0.3464
  126MOL    H1725267   6.115   2.579   0.425 -0.4038  1.2504  2.7077
  126MOL    H1825268   6.357   2.560   0.545  0.8202  1.2035  0.8254
  126MOL    H1925269   6.207   2.813   0.623  0.0293  1.2761  1.8311
  126MOL    H2025270   6.432   2.665   0.761 -2.8701 -3.2589  2.8678
  126MOL    H2125271   6.284   2.706   0.847  0.3656 -0.0159  0.0198
  126MOL    C2225272   6.391   2.880   0.805  0.1906  0.2655 -0.5219
  126MOL    C2325273   6.471   2.902   0.927 -0.2510 -0.3914 -0.0736
  126MOL    C2425274   6.605   2.905   0.933 -0.0029 -0.0273 -0.4739
  126MOL    C2525275   6.685   2.921   1.056  0.0944 -0.2631 -0.6148
  126MOL    H2625276   6.447   2.924   0.722 -2.7265  1.7837 -1.7421
  126MOL    H2725277   6.310   2.951   0.816  0.3913  0.5033 -0.5639
  126MOL    H2825278   6.426   2.897   1.025  2.7553  0.8147  1.4231
  126MOL    H2925279   6.656   2.899   0.838 -1.2880  0.4065 -1.2076
  126MOL    H3025280   6.623   2.923   1.146 -2.2324  0.2391 -2.1698
  126MOL    H3125281   6.736   3.017   1.057  0.4060 -0.4291 -0.4667
  126MOL    C3225282   6.793   2.817   1.060  0.1633  0.1448  0.0902
  126MOL    C3325283   6.897   2.839   1.165 -0.7381  0.4078  0.4542
  126MOL    C3425284   6.877   2.904   1.281  0.0318 -0.7540  0.3686
  126MOL    C3525285   6.972   2.911   1.395 -0.3855  0.2491  0.3851
  126MOL    H3625286   6.747   2.721   1.081 -0.7142  0.5961  0.2634
  126MOL    H3725287   6.839   2.820   0.961  1.1524 -0.6015  0.5171
  126MOL    H3825288   6.997   2.799   1.155 -1.2861 -0.5132 -1.5750
  126MOL    H3925289   6.775   2.940   1.292  0.3030  0.3537 -0.6044
  126MOL    H4025290   7.073   2.892   1.358  0.1954  3.6211  0.0544
  126MOL    H4125291   6.934   2.844   1.472 -1.0588 -1.3922 -1.3163
  126MOL    C4225292   6.980   3.048   1.459  0.2230  0.5996 -0.3597
  126MOL    C4325293   7.043   3.056   1.590  0.1771  0.6183 -0.2023
  126MOL    C4425294   6.991   3.104   1.702 -0.2356 -0.1787 -0.4348
  126MOL    C4525295   7.065   3.115   1.834 -0.2229 -0.0683  0.0785
  126MOL    H4625296   7.029   3.110   1.384  0.1141 -0.4343 -1.2828
  126MOL    H4725297   6.880   3.093   1.466 -0.2108 -0.5056  0.6488
  126MOL    H4825298   7.145   3.020   1.580 -0.3833 -1.0279 -0.1374
  126MOL    H4925299   6.890   3.143   1.703  0.9838  3.1336  2.7257
  126MOL    H5025300   7.085   3.220   1.853  1.2797 -0.5562  1.2752
  126MOL    H5125301   7.161   3.065   1.825 -0.6624 -1.0655  0.8835
  126MOL    C5225302   6.985   3.053   1.953  0.0717  1.0846  0.1143
  126MOL    C5325303   6.848   3.115   1.972 -0.2237  0.3141 -0.3182
  126MOL    C5425304   6.828   3.234   2.033  0.4820  0.3249 -0.4280
  126MOL    C5525305   6.698   3.306   2.060 -0.7451 -0.5770 -0.3358
  126MOL    H5625306   6.975   2.947   1.931 -0.5091  1.3795 -1.0828
  126MOL    H5725307   7.039   3.067   2.047  0.8128 -0.8880 -0.0066
  126MOL    H5825308   6.760   3.059   1.943 -0.9343  0.8720  0.7524
  126MOL    H5925309   6.919   3.279   2.071  1.9994 -1.9013 -1.3362
  126MOL    H6025310   6.727   3.375   2.140  0.3171 -0.5722 -0.7179
  126MOL    H6125311   6.622   3.237   2.097 -1.4890  0.2086 -0.3806
  126MOL    C6225312   6.656   3.376   1.938 -0.7606 -0.3315 -0.2935
  126MOL    C6325313   6.532   3.466   1.958  0.1577  0.2603  0.2395
  126MOL    C6425314   6.519   3.584   1.895  0.0247  0.4949  0.4527
  126MOL    C6525315   6.404   3.676   1.922  0.3155  0.7761  0.8858
  126MOL    H6625316   6.742   3.434   1.905 -0.1022 -0.4919  1.0707
  126MOL    H6725317   6.636   3.298   1.864 -0.5915  0.2429 -0.9374
  126MOL    H6825318   6.460   3.429   2.030  0.6312 -2.0062 -0.4342
  126MOL    H6925319   6.596   3.618   1.827 -0.2661 -0.0567 -0.1612
  126MOL    H7025320   6.313   3.631   1.962 -0.3080  1.5933  0.4091
  126MOL    H7125321   6.375   3.708   1.822 -0.5060  0.7388  1.1064
  126MOL    C7225322   6.440   3.793   2.004  0.6821  0.2036 -0.1029
  126MOL    C7325323   6.310   3.878   2.028  0.3898 -0.0974 -0.0779
  126MOL    C7425324   6.292   3.948   2.142 -0.1214 -0.6575 -0.7098
  126MOL    C7525325   6.171   4.026   2.179  0.2899  0.2807  0.7693
  126MOL    H7625326   6.473   3.761   2.103  1.4092 -1.5171 -0.8851
  126MOL    H7725327   6.506   3.849   1.937  0.1290  0.6921 -0.2467
  126MOL    H7825328   6.233   3.878   1.952 -0.7761  3.9221  0.9709
  126MOL    H7925329   6.377   3.948   2.208 -1.0854  0.0236  0.5392
  126MOL    H8025330   6.107   3.975   2.251 -1.7286 -0.2114 -1.3061
  126MOL    H8125331   6.112   4.036   2.087 -0.5867 -2.9267  0.8917
  126MOL    C8225332   6.208   4.165   2.226 -0.7020  0.4704 -0.3513
  126MOL    C8325333   6.094   4.230   2.287  0.4850  0.1835 -0.8949
  126MOL    C8425334   6.065   4.359   2.264 -0.6342  0.8419 -0.5677
  126MOL    C8525335   5.943   4.441   2.305 -0.7245  0.2804  0.1206
  126MOL    H8625336   6.272   4.151   2.314 -2.0625 -1.6375  0.3221
  126MOL    H8725337   6.264   4.227   2.156  1.6149 -0.2609  0.8027
  126MOL    H8825338   6.026   4.170   2.345  2.6554  0.7227  2.3711
  126MOL    H8925339   6.126   4.408   2.189 -1.6958  1.3142 -1.1327
  126MOL    H9025340   5.987   4.527   2.356 -0.3939  0.0262  0.2702
  126MOL    H9125341   5.879   4.387   2.375 -1.3443  1.1140  0.1919
  126MOL    C9225342   5.853   4.491   2.192 -0.2145 -0.5348  0.3516
  126MOL    C9325343   5.715   4.526   2.233 -0.4192 -0.5392 -0.1867
  126MOL    C9425344   5.602   4.466   2.191  1.4384 -0.4543 -0.2931
  126MOL    C9525345   5.460   4.515   2.218 -0.4568  0.1179 -0.0048
  126MOL    H9625346   5.904   4.574   2.145  0.5268 -0.4875  1.2426
  126MOL    H9725347   5.849   4.410   2.118  0.3054 -1.2650  1.1150
  126MOL    H9825348   5.699   4.613   2.295 -0.4648 -0.0730 -0.8546
  126MOL    H9925349   5.605   4.379   2.127 -0.2687 -1.0112  0.3562
  126MOL   H10025350   5.426   4.525   2.114 -2.5485 -0.4066  0.5960
  126MOL   H10125351   5.470   4.616   2.257 -1.4986  0.7696 -1.3377
  126MOL   C10225352   5.366   4.427   2.306 -0.1691 -0.7340  0.3815
  126MOL   C10325353   5.403   4.280   2.315 -0.1345 -0.2198 -0.3407
  126MOL   C10425354   5.355   4.192   2.232  0.3038  0.4309  0.0656
  126MOL   C10525355   5.376   4.046   2.244 -0.0486 -0.2198  0.5894
  126MOL   H10625356   5.354   4.470   2.405 -2.7159 -1.5666  0.4802
  126MOL   H10725357   5.266   4.422   2.262  0.0191 -0.6105 -0.0574
  126MOL   H10825358   5.461   4.255   2.402 -0.4408  0.2725  0.0123
  126MOL   H10925359   5.291   4.230   2.154 -0.2911  0.4147  0.5422
  126MOL   H11025360   5.292   3.986   2.282  0.3335 -1.1095  0.0504
  126MOL   H11125361   5.446   4.037   2.327  0.1551 -0.9176  0.3446
  126MOL   C11225362   5.426   3.979   2.114 -0.8186  0.3463  0.2438
  126MOL   C11325363   5.560   4.029   2.065  0.4920  0.8535  0.2849
  126MOL   C11425364   5.574   4.109   1.956  0.3948 -0.2227  0.5195
  126MOL   C11525365   5.709   4.168   1.905 -0.9079  0.3266 -0.0962
  126MOL   H11625366   5.451   3.876   2.137  1.6491  0.4794 -1.5961
  126MOL   H11725367   5.347   3.979   2.038 -1.1391 -0.9102  0.5624
  126MOL   H11825368   5.640   4.008   2.135 -0.7070  1.7097  1.9604
  126MOL   H11925369   5.486   4.148   1.907  0.4332  0.4867  1.0160
  126MOL   H12025370   5.698   4.276   1.917 -1.3512  0.0219  2.6495
  126MOL   H12125371   5.721   4.144   1.799 -2.1454 -1.5149  0.1700
  126MOL   C12225372   5.837   4.118   1.969  0.6500 -0.1744  0.6046
  126MOL   C12325373   5.858   3.981   1.921  0.4753 -0.5628 -0.3410
  126MOL   C12425374   5.966   3.937   1.858  0.0158  0.2389 -0.1452
  126MOL   C12525375   5.966   3.800   1.792 -0.2412  0.0017 -0.1710
  126MOL   H12625376   5.917   4.180   1.931  0.0204  0.7529  0.7722
  126MOL   H12725377   5.840   4.120   2.078  2.5006 -0.2280  0.5700
  126MOL   H12825378   5.775   3.912   1.927  0.5181 -0.5003  0.9672
  126MOL   H12925379   6.052   3.998   1.835  0.4827 -1.2543 -2.5192
  126MOL   H13025380   5.868   3.774   1.753 -0.4117 -1.8494  1.4004
  126MOL   H13125381   5.994   3.724   1.866  0.3775  1.0423  0.6856
  126MOL   C13225382   6.070   3.793   1.674  0.7186  0.3725  0.3446
  126MOL   C13325383   6.108   3.655   1.639  0.1519 -0.1523 -0.2976
  126MOL   C13425384   6.232   3.620   1.594 -0.2594 -0.1756  0.4559
  126MOL   C13525385   6.265   3.474   1.557  0.1046 -0.4057  0.0407
  126MOL   H13625386   6.005   3.829   1.594  0.3658  0.2674  0.5769
  126MOL   H13725387   6.164   3.845   1.688  1.0344  0.1326 -0.9150
  126MOL   H13825388   6.035   3.576   1.653  1.3272 -0.8588  2.0209
  126MOL   H13925389   6.307   3.697   1.582 -1.1241  0.2019 -3.3466
  126MOL   H14025390   6.197   3.415   1.618  0.2320 -0.7021 -0.1005
  126MOL   H14125391   6.362   3.452   1.601 -0.2196  2.1433  2.1348
  126MOL   C14225392   6.248   3.434   1.414  0.3430 -0.4151  0.3792
  126MOL   C14325393   6.106   3.466   1.365 -0.2455  1.1648  0.5731
  126MOL   C14425394   6.019   3.372   1.329 -0.4096 -0.3379  0.4016
  126MOL   C14525395   5.885   3.390   1.262  0.7797  0.3506  0.6420
  126MOL   H14625396   6.313   3.489   1.346 -1.0838  1.0998  0.1950
  126MOL   H14725397   6.261   3.326   1.405  0.0129 -0.4589  0.4356
  126MOL   H14825398   6.078   3.570   1.358  0.4296  1.1959 -2.1138
  126MOL   H14925399   6.055   3.275   1.361  0.8094  0.4440  1.5066
  126MOL   H15025400   5.846   3.492   1.259 -2.6847 -0.8953  0.3047
  126MOL   H15125401   5.808   3.336   1.317  0.5706  1.2540  1.2349
  126MOL   C15225402   5.895   3.339   1.119 -0.4237  0.4589  0.3179
  126MOL   C15325403   5.767   3.359   1.042  0.0433  0.2250  1.3601
  126MOL   C15425404   5.752   3.448   0.941  0.2531  0.7127 -0.3629
  126MOL   C15525405   5.617   3.483   0.889  0.7001 -0.2539  0.3816
  126MOL   H15625406   5.972   3.399   1.070 -2.3796  2.8172  0.0089
  126MOL   H15725407   5.928   3.235   1.113  0.2789  0.8208 -3.5728
  126MOL   H15825408   5.680   3.298   1.063  0.4251 -0.6834  0.3871
  126MOL   H15925409   5.841   3.507   0.929  1.2439 -0.9739 -1.4796
  126MOL   H16025410   5.549   3.398   0.886 -0.7777  0.9344 -0.7235
  126MOL   H16125411   5.636   3.506   0.784 -1.7651  1.3522  0.2468
  126MOL   C16225412   5.566   3.607   0.956  0.0345 -0.6379 -0.5794
  126MOL   C16325413   5.428   3.632   0.903 -0.1460 -0.7818  0.0020
  126MOL   C16425414   5.331   3.673   0.982 -0.4927  0.0467 -0.0959
  126MOL   C16525415   5.194   3.707   0.933 -0.2457  0.1520 -0.4396
  126MOL   H16625416   5.559   3.585   1.062  0.8355 -0.9351 -0.5893
  126MOL   H16725417   5.623   3.698   0.941  1.2996 -0.7952  2.8911
  126MOL   H16825418   5.420   3.626   0.795 -1.8186 -2.7618  0.1930
  126MOL   H16925419   5.337   3.677   1.090  0.5162  0.4201 -0.1620
  126MOL   H17025420   5.189   3.710   0.824 -0.6519  0.0293 -0.4261
  126MOL   H17125421   5.179   3.811   0.961 -2.2228 -0.3167  0.3995
  126MOL   C17225422   5.097   3.612   0.997 -0.2355  0.4297 -0.7265
  126MOL   C17325423   4.950   3.620   0.959 -0.8661 -0.0964  0.0875
  126MOL   C17425424   4.889   3.527   0.880 -0.2540  0.0813  0.2960
  126MOL   C17525425   4.748   3.544   0.822  0.8047  0.3670 -0.4282
  126MOL   H17625426   5.130   3.509   0.985 -2.2375 -0.5864  1.8893
  126MOL   H17725427   5.098   3.625   1.106  1.7002 -1.0486 -0.5354
  126MOL   H17825428   4.894   3.705   0.995 -0.3300 -0.0881  0.9300
  126MOL   H17925429   4.954   3.448   0.845  1.7458  2.9299 -2.8254
  126MOL   H18025430   4.699   3.449   0.844 -0.2012  0.9250 -0.2573
  126MOL   H18125431   4.773   3.546   0.716 -1.4986  2.4158 -0.9675
  126MOL   C18225432   4.664   3.663   0.878  0.2008  0.6066  0.4112
  126MOL   C18325433   4.543   3.687   0.784  0.1377  0.7784 -0.1191
  126MOL   C18425434   4.493   3.808   0.749 -0.2402  0.2542 -1.1281
  126MOL   C18525435   4.367   3.830   0.665  0.2199 -0.7053 -0.2805
  126MOL   H18625436   4.629   3.642   0.979 -0.8543 -0.4251 -0.1536
  126MOL   H18725437   4.717   3.757   0.897  0.8654  0.1586  0.7758
  126MOL   H18825438   4.509   3.597   0.735  2.0142  0.1443 -0.3050
  126MOL   H18925439   4.540   3.898   0.785  0.8910 -0.4823 -0.7238
  126MOL   H19025440   4.314   3.736   0.649  0.4983 -1.2839  2.0812
  126MOL   H19125441   4.405   3.845   0.564 -1.1418  0.1737 -0.6805
  126MOL   C19225442   4.271   3.937   0.718  0.6121  0.1968  0.4379
  126MOL   C19325443   4.126   3.928   0.675 -0.7932 -0.8687  0.5707
  126MOL   C19425444   4.064   3.992   0.571 -0.2597  0.4535 -0.8285
  126MOL   C19525445   3.921   3.994   0.532 -0.4622  0.2008 -0.5068
  126MOL   H19625446   4.278   3.931   0.826  3.5999 -0.7237  0.2552
  126MOL   H19725447   4.320   4.029   0.685 -1.1015  0.4911 -1.3582
  126MOL   H19825448   4.063   3.859   0.729 -2.9693 -0.9713 -1.9927
  126MOL   H19925449   4.128   4.066   0.525 -0.8911  0.0017 -2.4950
  126MOL   H20025450   3.910   3.955   0.431  0.0813  0.0038 -0.4896
  126MOL   H20125451   3.866   4.085   0.557  3.0880  1.4890  3.1110
  126MOL   H20225452   3.876   3.912   0.589  0.2619  0.3836  0.3412
  127MOL     C125453   6.500   6.536   7.681  0.1150  0.3547  0.2426
  127MOL     C225454   6.581   6.655   7.731  1.2572  0.3153 -0.1210
  127MOL     C325455   6.652   6.741   7.654  0.3610  0.3806  0.1643
  127MOL     C425456   6.747   6.849   7.707  0.2580 -0.3779  0.7993
  127MOL     H525457   6.515   6.539   7.573 -0.2696 -0.9765  0.1481
  127MOL     H625458   6.393   6.548   7.696 -0.4669 -0.4375 -2.8977
  127MOL     H725459   6.580   6.645   7.839 -1.1253 -0.2087 -0.1585
  127MOL     H825460   6.633   6.743   7.548  0.9865 -0.4482  0.0346
  127MOL     H925461   6.700   6.945   7.687  1.1185  0.0198  0.6805
  127MOL    H1025462   6.835   6.849   7.642 -0.5466 -1.4807 -0.3230
  127MOL    H1125463   6.552   6.444   7.704  2.4948  1.6296  0.1524
  127MOL    C1225464   6.784   6.834   7.854  0.4733  0.4101 -0.1958
  127MOL    C1325465   6.865   6.952   7.910 -0.7486 -0.1685 -0.3885
  127MOL    C1425466   6.961   7.015   7.844  0.2684 -0.1049 -0.3912
  127MOL    C1525467   7.046   7.135   7.875 -0.0480  0.2030  0.3565
  127MOL    H1625468   6.687   6.842   7.903 -0.4081  2.0664 -2.1455
  127MOL    H1725469   6.826   6.739   7.885 -2.1198 -0.0653  2.1072
  127MOL    H1825470   6.836   6.995   0.028 -2.7280  1.0472 -1.5222
  127MOL    H1925471   6.997   6.971   7.752  0.2324  2.2009 -1.5522
  127MOL    H2025472   7.149   7.109   7.851  0.1365  1.7894 -0.6712
  127MOL    H2125473   7.042   7.159   0.004 -0.9607 -1.0229  0.6068
  127MOL    C2225474   7.007   7.255   7.787 -0.3770 -0.6164 -0.2850
  127MOL    C2325475   7.115   7.362   7.796 -0.3732 -0.6889  0.3795
  127MOL    C2425476   7.093   7.495   7.833  1.0837 -0.0232  0.9081
  127MOL    C2525477   7.205   7.601   7.847  0.0855  0.1371  0.0051
  127MOL    H2625478   7.002   7.225   7.683 -2.9935  0.0896 -0.3970
  127MOL    H2725479   6.916   7.299   7.829 -0.9456  1.1566 -3.2413
  127MOL    H2825480   7.217   7.338   7.773 -0.3703  0.0433 -0.3897
  127MOL    H2925481   6.997   7.531   7.865  0.7362 -0.2402  0.1047
  127MOL    H3025482   7.188   7.679   7.772 -0.0485  0.1725  0.0719
  127MOL    H3125483   7.305   7.565   7.825  0.6194  1.3584  0.3566
  127MOL    C3225484   7.202   7.673   0.008 -0.2578 -0.0513 -0.4272
  127MOL    C3325485   7.315   7.776   0.020  1.0258 -0.0171 -0.5846
  127MOL    C3425486   7.427   7.756   0.097  0.0979 -0.3177  0.3104
  127MOL    C3525487   7.536   7.857   0.118 -0.1462 -0.2161  0.1261
  127MOL    H3625488   7.100   7.709   0.026 -0.9550 -2.0281 -0.2823
  127MOL    H3725489   7.209   7.594   0.082  0.3260 -0.3852 -0.8366
  127MOL    H3825490   7.304   7.863   7.935 -0.3907 -0.8561 -1.5381
  127MOL    H3925491   7.432   7.664   0.153 -1.8897 -0.4478  0.3166
  127MOL    H4025492   7.568   7.860   0.222 -1.0274  0.1762  0.3966
  127MOL    H4125493   7.492   7.956   0.100 -1.6200 -0.9860 -0.5730
  127MOL    C4225494   7.665   7.824   0.030  1.2474  0.0854 -0.0183
  127MOL    C4325495   7.771   7.927   0.035  0.5662 -0.5974 -0.2834
  127MOL    C4425496   7.905   7.903   0.055 -0.1947  0.3631 -0.2386
  127MOL    C4525497   0.031   0.038   0.036  0.2869  0.2347 -0.3270
  127MOL    H4625498   7.708   7.726   0.048 -0.3925 -0.6382  0.1162
  127MOL    H4725499   7.636   7.832   7.902  0.7745  0.0194  0.1061
  127MOL    H4825500   7.739   0.051   0.014  1.3455 -0.2358  0.2392
  127MOL    H4925501   7.957   7.809   0.068 -0.5475  0.1799 -0.1353
  127MOL    H5025502   0.087   0.038   0.129  1.5639  0.5955 -1.0820
  127MOL    H5125503   7.950   0.130   0.037  0.3961  0.3008 -0.1281
  127MOL    C5225504   0.106   0.018   7.880  0.0773 -0.0244 -0.3758
  127MOL    C5325505   0.186   0.133   7.846 -0.8115  0.1861 -0.2531
  127MOL    C5425506   0.287   0.123   7.757  0.5030 -0.0758  0.8781
  127MOL    C5525507   0.371   0.236   7.702  0.2640 -0.5613 -0.6975
  127MOL    H5625508   0.166   7.904   7.887 -0.7380 -0.5881 -0.6687
  127MOL    H5725509   0.029   0.001   7.806 -0.0021  1.2035 -0.5899
  127MOL    H5825510   0.174   0.225   7.901 -0.5658  0.4532 -0.6423
  127MOL    H5925511   0.289   0.024   7.715  2.2245 -0.2112  1.2380
  127MOL    H6025512   0.345   0.331   7.747 -2.1313 -0.9885 -1.1435
  127MOL    H6125513   0.340   0.249   7.598 -0.9792  0.1664 -0.2407
  127MOL    C6225514   0.526   0.217   7.716  0.3626  0.5190  0.2515
  127MOL    C6325515   0.581   0.343   7.672 -0.0644 -0.0199  0.0512
  127MOL    C6425516   0.613   0.367   7.549  0.3655  0.3108  0.2044
  127MOL    C6525517   0.667   0.498   7.489  0.1507  0.0435 -0.1613
  127MOL    H6625518   0.556   0.189   7.817 -0.8921 -1.0814  0.1898
  127MOL    H6725519   0.557   0.139   7.647 -1.0883  1.2385 -1.2551
  127MOL    H6825520   0.595   0.414   7.752  2.6885  0.5349 -0.8699
  127MOL    H6925521   0.594   0.290   7.476  2.5553  0.5514 -0.6401
  127MOL    H7025522   0.603   0.494   7.401  0.8429 -2.6128 -0.5774
  127MOL    H7125523   0.773   0.482   7.473  0.7951  4.2667 -0.6810
  127MOL    C7225524   0.667   0.621   7.571 -0.1975 -0.0014 -0.0516
  127MOL    C7325525   0.739   0.734   7.503  0.8354 -0.1028  0.1824
  127MOL    C7425526   0.675   0.846   7.466 -0.1642 -0.0457 -0.7169
  127MOL    C7525527   0.726   0.950   7.373 -0.0357  0.1896 -0.3025
  127MOL    H7625528   0.571   0.651   7.614 -0.2190  0.9651 -0.7520
  127MOL    H7725529   0.732   0.601   7.655  1.2145 -0.6210 -1.2757
  127MOL    H7825530   0.824   0.696   7.448  0.5443 -0.5944  0.0621
  127MOL    H7925531   0.582   0.871   7.515 -0.5266 -0.8656 -0.9879
  127MOL    H8025532   0.674   0.938   7.278 -1.2867  0.2789  0.3636
  127MOL    H8125533   0.830   0.927   7.351 -0.0414 -0.3366  0.2098
  127MOL    C8225534   0.708   1.092   7.437 -0.2199  0.4920 -0.0503
  127MOL    C8325535   0.747   1.203   7.335 -0.5972  0.0368 -0.4314
  127MOL    C8425536   0.843   1.297   7.353 -0.1963  0.4224 -1.0098
  127MOL    C8525537   0.889   1.400   7.254 -0.0281 -0.0518  0.6682
  127MOL    H8625538   0.607   1.122   7.466  0.3874  1.5028  1.0314
  127MOL    H8725539   0.779   1.093   7.519  0.2096  1.1234 -0.4258
  127MOL    H8825540   0.694   1.191   7.242 -0.3692 -2.4670 -0.2808
  127MOL    H8925541   0.899   1.297   7.446 -2.3695 -0.0204  0.3357
  127MOL    H9025542   0.835   1.387   7.161  2.7022 -1.2777 -0.8089
  127MOL    H9125543   0.991   1.374   7.226 -0.2507  0.3622 -0.5456
  127MOL    C9225544   0.890   1.541   7.321  0.0619  0.6365 -0.0164
  127MOL    C9325545   0.749   1.596   7.327  0.1201 -0.4948 -0.5060
  127MOL    C9425546   0.718   1.725   7.315 -0.4257  0.8098  0.3413
  127MOL    C9525547   0.583   1.783   7.308  0.0055 -0.2983  0.5055
  127MOL    H9625548   0.916   1.523   7.425  2.3505  1.6588 -0.3707
  127MOL    H9725549   0.958   1.612   7.274 -2.6840  3.9869  0.8862
  127MOL    H9825550   0.665   1.530   7.337  0.3232 -0.5081  1.1717
  127MOL    H9925551   0.807   1.786   7.304 -1.7141  2.5826 -0.3493
  127MOL   H10025552   0.552   1.796   7.412 -2.9113  0.3290 -0.3829
  127MOL   H10125553   0.509   1.713   7.268  0.2120 -0.0937 -0.2487
  127MOL   C10225554   0.578   1.917   7.230  0.0997 -0.1938  0.2130
  127MOL   C10325555   0.449   1.992   7.252  0.2615  0.2132  0.0889
  127MOL   C10425556   0.362   2.022   7.155  0.3037  0.2996 -0.5114
  127MOL   C10525557   0.238   2.092   7.198  0.5364  0.6519 -0.1887
  127MOL   H10625558   0.658   1.985   7.260 -0.1134  0.7197 -1.2627
  127MOL   H10725559   0.591   1.889   7.125  0.1846  1.3240 -0.1897
  127MOL   H10825560   0.426   2.023   7.353 -0.7907 -0.3808  0.0387
  127MOL   H10925561   0.378   1.993   7.052 -0.6764  4.2714 -1.8587
  127MOL   H11025562   0.251   2.153   7.287  0.9935  0.3883 -0.0740
  127MOL   H11125563   0.181   2.004   7.226  0.5045  0.3964 -1.0241
  127MOL   C11225564   0.182   2.177   7.084 -0.4645  0.1144 -0.1964
  127MOL   C11325565   0.068   2.259   7.135  0.4330 -0.9693 -0.3168
  127MOL   C11425566   7.914   2.222   7.117 -0.6380 -0.6426  0.1700
  127MOL   C11525567   7.793   2.302   7.173  0.7111 -0.0293  0.5249
  127MOL   H11625568   0.253   2.251   7.047 -0.3200  0.3571  0.5544
  127MOL   H11725569   0.167   2.116   6.995  2.6626 -2.4634  0.9259
  127MOL   H11825570   0.091   2.350   7.189 -1.2253 -1.4115  1.2023
  127MOL   H11925571   7.887   2.132   7.063 -1.1036 -0.0664 -0.5510
  127MOL   H12025572   7.729   2.319   7.086  0.9381  1.4800  0.6376
  127MOL   H12125573   7.819   2.406   7.195  1.1865 -0.3594  1.5353
  127MOL   C12225574   7.724   2.228   7.279 -0.6394  0.3820  0.3426
  127MOL   C12325575   7.808   2.220   7.402  0.1680 -0.5451  0.0469
  127MOL   C12425576   7.850   2.110   7.465  1.1266  0.3161  0.2099
  127MOL   C12525577   7.916   2.105   7.603 -0.2066 -0.1386  0.3777
  127MOL   H12625578   7.630   2.276   7.304 -1.6943 -0.3604 -2.1131
  127MOL   H12725579   7.701   2.124   7.254  1.0683  0.2783 -0.9070
  127MOL   H12825580   7.835   2.315   7.445  0.9044 -0.8044  0.1590
  127MOL   H12925581   7.828   2.016   7.416 -0.4228 -0.1194  1.6829
  127MOL   H13025582   7.854   2.054   7.677  2.5816 -0.2981  2.6892
  127MOL   H13125583   7.936   2.209   7.626 -1.3295  0.2933 -0.5665
  127MOL   C13225584   0.075   2.042   7.598  0.7289  0.3097 -0.7478
  127MOL   C13325585   0.069   1.896   7.568  0.1700 -0.4882  0.5297
  127MOL   C13425586   0.164   1.831   7.498 -0.2225 -0.5896  0.1634
  127MOL   C13525587   0.172   1.683   7.460  0.7877 -0.0907 -0.3649
  127MOL   H13625588   0.140   2.098   7.531 -3.7127  1.9214 -3.9968
  127MOL   H13725589   0.118   2.019   7.695 -0.3170 -1.3613 -0.6633
  127MOL   H13825590   7.967   1.841   7.616 -0.0280 -1.8765 -1.3265
  127MOL   H13925591   0.238   1.893   7.449 -0.1013 -1.6253 -0.9956
  127MOL   H14025592   0.085   1.631   7.500  2.1475 -1.9240  0.3033
  127MOL   H14125593   0.256   1.643   7.517  2.3880  1.9827 -1.1812
  127MOL   C14225594   0.187   1.667   7.304  0.2605 -0.2625  0.1402
  127MOL   C14325595   0.275   1.547   7.269 -0.4754 -0.4524  0.3427
  127MOL   C14425596   0.234   1.462   7.172  0.5098  0.4746 -0.5158
  127MOL   C14525597   0.315   1.345   7.120  0.2098 -0.2649 -0.5631
  127MOL   H14625598   0.086   1.669   7.264  0.1752 -0.5637  0.3332
  127MOL   H14725599   0.241   1.755   7.270  0.3124  0.6796  2.5360
  127MOL   H14825600   0.369   1.535   7.321  0.1219 -0.6084 -0.7484
  127MOL   H14925601   0.140   1.470   7.120  0.4741 -0.9971 -0.6963
  127MOL   H15025602   0.256   1.282   7.053 -1.0543  0.7586 -0.4299
  127MOL   H15125603   0.344   1.290   7.209  2.3390  1.1433 -0.3231
  127MOL   C15225604   0.436   1.393   7.045  0.0053 -0.1451 -0.3812
  127MOL   C15325605   0.538   1.277   7.012  0.0270  0.0647 -0.6849
  127MOL   C15425606   0.599   1.269   6.889 -0.1686 -0.1035  0.0319
  127MOL   C15525607   0.699   1.159   6.836 -0.0947  0.3835 -0.8910
  127MOL   H15625608   0.424   1.457   6.958  1.4729 -1.7345 -1.7947
  127MOL   H15725609   0.502   1.445   7.114 -1.9752  0.6365  0.9476
  127MOL   H15825610   0.551   1.198   7.084  0.4543 -0.3986 -1.2753
  127MOL   H15925611   0.576   1.344   6.814 -0.6211 -0.9697 -0.7102
  127MOL   H16025612   0.682   1.150   6.729 -2.8555  1.0897 -0.5717
  127MOL   H16125613   0.664   1.066   6.881  0.4487 -0.2292 -1.7296
  127MOL   C16225614   0.845   1.176   6.867  0.0981 -0.3460 -0.1003
  127MOL   C16325615   0.930   1.058   6.834 -0.3431 -0.2376  0.0088
  127MOL   C16425616   1.003   1.042   6.728  0.4908  0.2648  0.1826
  127MOL   C16525617   1.083   0.920   6.695  0.5040 -0.3999  0.0552
  127MOL   H16625618   0.887   1.259   6.810 -0.0211 -0.4971 -0.4068
  127MOL   H16725619   0.844   1.198   6.974 -1.5665  1.9915 -0.5392
  127MOL   H16825620   0.919   0.968   6.893  0.3115 -1.6982 -2.0067
  127MOL   H16925621   1.021   1.132   6.670 -1.0617  0.9461  0.7284
  127MOL   H17025622   1.076   0.919   6.586 -1.4941 -0.7746  0.1738
  127MOL   H17125623   1.042   0.824   6.725  0.0312 -0.3314 -0.3602
  127MOL   C17225624   1.223   0.936   6.745  0.2997  0.1159 -0.1628
  127MOL   C17325625   1.307   0.817   6.711  0.5333 -0.4329  0.7335
  127MOL   C17425626   1.385   0.748   6.799 -0.3426  0.2070 -0.0554
  127MOL   C17525627   1.473   0.626   6.758 -0.0371 -0.0673  0.4256
  127MOL   H17625628   1.268   1.028   6.706  1.5989 -1.0134 -1.4368
  127MOL   H17725629   1.218   0.948   6.853  0.0712 -0.4474 -0.1135
  127MOL   H17825630   1.301   0.788   6.607 -0.8344 -2.3775  1.3165
  127MOL   H17925631   1.397   0.784   6.900 -1.2234  1.6238 -0.4507
  127MOL   H18025632   1.575   0.640   6.794  0.0770 -0.8674  0.4278
  127MOL   H18125633   1.478   0.623   6.649  1.7515  1.2631  0.4564
  127MOL   C18225634   1.402   0.497   6.817 -0.4727 -0.1086  0.1596
  127MOL   C18325635   1.486   0.380   6.791 -0.3081  0.1390 -0.0899
  127MOL   C18425636   1.499   0.277   6.874  0.0334 -0.5855  0.3240
  127MOL   C18525637   1.562   0.154   6.834  0.6763  0.2735 -0.0104
  127MOL   H18625638   1.381   0.521   6.922 -0.7885  0.8021 -0.1058
  127MOL   H18725639   1.307   0.484   6.765 -0.1807  0.5688 -0.5391
  127MOL   H18825640   1.543   0.369   6.699  0.5294 -2.4573  0.7098
  127MOL   H18925641   1.440   0.288   6.964 -0.4281  1.7184 -0.2196
  127MOL   H19025642   1.627   0.108   6.908 -1.2330 -1.4759  0.6044
  127MOL   H19125643   1.632   0.160   6.750 -1.6071 -0.0307 -1.9724
  127MOL   C19225644   1.472   0.039   6.785  0.1178 -0.2714 -0.4152
  127MOL   C19325645   1.394   7.965   6.897  0.6881  0.6713 -1.0404
  127MOL   C19425646   1.257   7.966   6.901  0.3872 -0.1107 -0.0423
  127MOL   C19525647   1.172   7.932   7.017 -0.6779 -0.2797 -1.0117
  127MOL   H19625648   1.404   0.082   6.712  0.7755 -0.1388 -0.9439
  127MOL   H19725649   1.534   7.939   6.739  1.1192  1.7144 -2.3933
  127MOL   H19825650   1.443   7.931   6.987 -1.2141 -0.5447 -0.4207
  127MOL   H19925651   1.198   0.016   6.814  1.2040  0.3817 -0.4509
  127MOL   H20025652   1.129   7.833   6.999 -0.8448 -0.7285  1.5999
  127MOL   H20125653   1.088   0.024   7.030 -2.2667 -1.5363 -4.1379
  127MOL   H20225654   1.233   7.934   7.107 -0.2551 -0.2208 -1.2978
  128MOL     C125655   2.836   0.341   5.814 -0.4027  0.0033  0.5358
  128MOL     C225656   2.846   0.187   5.786 -0.9972  0.1947 -0.3188
  128MOL     C325657   2.879   0.126   5.666  0.1793 -0.1831  0.3118
  128MOL     C425658   2.890   7.957   5.659  0.9024  0.9358 -0.1797
  128MOL     H525659   2.741   0.386   5.846 -1.0980 -1.2025  0.1788
  128MOL     H625660   2.865   0.393   5.722  0.3246 -0.7683  0.3254
  128MOL     H725661   2.829   0.125   5.872 -1.7417 -0.4168 -0.9027
  128MOL     H825662   2.881   0.181   5.573  1.6850 -0.1915  0.3220
  128MOL     H925663   2.832   7.913   5.741 -3.3796  0.1006 -3.4565
  128MOL    H1025664   2.990   7.924   5.684  1.3157  1.0794 -1.5842
  128MOL    H1125665   2.918   0.380   5.874 -0.0904 -0.6323  0.5275
  128MOL    C1225666   2.843   7.890   5.527  0.9339  0.2443 -0.2821
  128MOL    C1325667   2.954   7.907   5.426  0.8153 -0.6557  0.5602
  128MOL    C1425668   3.044   7.810   5.400  1.0064 -0.3189  0.0648
  128MOL    C1525669   3.158   7.828   5.300  0.3542  0.3714 -0.5191
  128MOL    H1625670   2.824   7.784   5.547 -0.6927  0.7581  1.1011
  128MOL    H1725671   2.751   7.925   5.480  0.7488 -0.4122 -0.4187
  128MOL    H1825672   2.966   0.027   5.379  0.2957 -1.8176 -2.0633
  128MOL    H1925673   3.033   7.715   5.449  3.4096 -0.0056  1.2602
  128MOL    H2025674   3.175   7.934   5.281  3.2535  0.0918  0.3067
  128MOL    H2125675   3.143   7.764   5.212  0.6728  2.1545 -1.8935
  128MOL    C2225676   3.289   7.777   5.368  0.4533  0.2039  0.7379
  128MOL    C2325677   3.407   7.793   5.281 -0.0358 -0.1516  0.2013
  128MOL    C2425678   3.510   7.872   5.299 -0.2386  0.3936  0.1036
  128MOL    C2525679   3.620   7.891   5.192 -0.0203  0.5285 -0.8610
  128MOL    H2625680   3.311   7.830   5.461  1.9053 -0.6282  0.8878
  128MOL    H2725681   3.273   7.678   5.410 -0.6905  0.3463  0.6572
  128MOL    H2825682   3.405   7.717   5.204  1.3181 -1.2302  1.1848
  128MOL    H2925683   3.504   7.941   5.383  1.0815 -0.2156  0.7072
  128MOL    H3025684   3.595   0.003   5.134 -1.7009  1.1008  0.6616
  128MOL    H3125685   3.635   7.802   5.131 -0.7446 -0.8423  0.9160
  128MOL    C3225686   3.756   7.926   5.258  0.0464  0.0118  0.8163
  128MOL    C3325687   3.761   0.086   5.326  0.1341  0.5084  0.1864
  128MOL    C3425688   3.834   0.190   5.270 -0.0465  0.0570 -0.3580
  128MOL    C3525689   3.820   0.332   5.326 -0.2372  0.2409  0.0318
  128MOL    H3625690   3.784   7.851   5.331  0.3533 -0.3220  0.3530
  128MOL    H3725691   3.840   7.909   5.191 -0.8316  0.4952 -0.4291
  128MOL    H3825692   3.689   0.105   5.404 -0.7990  0.9543 -0.7814
  128MOL    H3925693   3.884   0.167   5.177 -0.6741  0.2598 -0.7479
  128MOL    H4025694   3.925   0.358   5.338 -0.0987  0.2684 -1.1065
  128MOL    H4125695   3.773   0.333   5.424  1.8783  3.1650  1.0608
  128MOL    C4225696   3.744   0.430   5.242 -0.2840  0.5952 -0.3060
  128MOL    C4325697   3.589   0.405   5.238 -0.3932 -0.0549 -0.6245
  128MOL    C4425698   3.509   0.490   5.300  0.3617  0.8048  0.1727
  128MOL    C4525699   3.357   0.480   5.296  0.3198 -0.0460 -0.0651
  128MOL    H4625700   3.766   0.523   5.294  0.4001  0.1078  0.2856
  128MOL    H4725701   3.790   0.442   5.144  1.5395 -1.4529  0.2452
  128MOL    H4825702   3.544   0.324   5.184  0.7853 -0.3682 -1.1572
  128MOL    H4925703   3.547   0.571   5.361  2.0980  0.2161 -0.1138
  128MOL    H5025704   3.327   0.550   5.219  0.1075  0.7838  0.7603
  128MOL    H5125705   3.310   0.503   5.392 -1.4338 -2.1129 -0.3770
  128MOL    C5225706   3.310   0.337   5.265  0.0854 -0.0170  0.0405
  128MOL    C5325707   3.324   0.239   5.383 -1.0469 -0.3795 -0.0159
  128MOL    C5425708   3.243   0.231   5.490  0.4634 -0.1079  0.0752
  128MOL    C5525709   3.260   0.139   5.608  0.7581 -0.1366 -0.6018
  128MOL    H5625710   3.202   0.352   5.274 -0.0746  0.5801 -2.5669
  128MOL    H5725711   3.332   0.299   5.165 -1.6274  4.0013 -1.9534
  128MOL    H5825712   3.409   0.173   5.378 -0.3112  0.3323  2.2061
  128MOL    H5925713   3.158   0.296   5.500 -1.5572 -2.8633  1.7302
  128MOL    H6025714   3.341   0.071   5.583  2.8209  1.5695  1.2475
  128MOL    H6125715   3.163   0.090   5.616  0.3518  0.8220  0.5126
  128MOL    C6225716   3.302   0.222   5.732 -0.3544  0.6410  0.6296
  128MOL    C6325717   3.436   0.281   5.704 -0.0842  0.4419 -0.2412
  128MOL    C6425718   3.469   0.414   5.711 -0.3017  0.2688  0.7525
  128MOL    C6525719   3.608   0.455   5.666  1.3331 -0.1387  0.4732
  128MOL    H6625720   3.234   0.304   5.754 -1.9438 -0.4241 -0.2275
  128MOL    H6725721   3.311   0.161   5.822 -0.4018  1.1294  0.9696
  128MOL    H6825722   3.506   0.210   5.662 -0.8796  0.5610 -1.8106
  128MOL    H6925723   3.405   0.490   5.753 -0.9240 -0.8639  1.8917
  128MOL    H7025724   3.607   0.510   5.571 -0.0547  0.3862  0.7681
  128MOL    H7125725   3.662   0.361   5.652  0.0330 -0.8071 -0.1903
  128MOL    C7225726   3.678   0.537   5.773 -0.4070 -0.4112 -0.3841
  128MOL    C7325727   3.693   0.460   5.904 -0.2263  0.3329  0.1639
  128MOL    C7425728   3.799   0.393   5.950 -0.5914 -0.5362  0.7881
  128MOL    C7525729   3.818   0.331   6.088 -0.1670 -0.2383 -0.5866
  128MOL    H7625730   3.783   0.552   5.749 -0.5456  1.0264 -0.1338
  128MOL    H7725731   3.634   0.634   5.795 -0.1961 -1.2373  4.2086
  128MOL    H7825732   3.601   0.455   5.960 -1.1558  0.4510 -1.3325
  128MOL    H7925733   3.897   0.388   5.904 -1.3739 -0.6894 -0.9159
  128MOL    H8025734   3.855   0.232   6.063  0.9021  0.3753 -1.4443
  128MOL    H8125735   3.718   0.309   6.127  0.3996 -3.4217 -0.7414
  128MOL    C8225736   3.909   0.412   6.177 -0.2734  0.4805  0.1677
  128MOL    C8325737   3.911   0.354   6.318 -0.6366  0.5241  0.2108
  128MOL    C8425738   3.839   0.391   6.426 -0.2455 -0.2528 -0.4457
  128MOL    C8525739   3.839   0.325   6.565 -0.2307 -0.2635  0.1671
  128MOL    H8625740   4.010   0.401   6.137  0.5732 -0.8596  2.6184
  128MOL    H8725741   3.882   0.518   6.187 -1.6742  0.0422  1.3024
  128MOL    H8825742   3.977   0.269   6.323 -0.3521  0.4438 -3.4347
  128MOL    H8925743   3.787   0.485   6.407  0.6759  0.2923 -0.2970
  128MOL    H9025744   3.858   0.404   6.637  2.3670 -0.1155 -0.6245
  128MOL    H9125745   3.920   0.252   6.572  2.7255  2.9612  0.8972
  128MOL    C9225746   3.699   0.271   6.602  0.3489 -0.3988 -0.4956
  128MOL    C9325747   3.700   0.231   6.752  0.6295  0.4467 -1.0168
  128MOL    C9425748   3.606   0.269   6.846 -0.6489 -0.5643 -1.0390
  128MOL    C9525749   3.603   0.223   6.991  0.5736  0.4596  0.7644
  128MOL    H9625750   3.637   0.358   6.579  0.9712  0.0104 -0.6767
  128MOL    H9725751   3.672   0.194   6.530 -1.5823 -0.1583 -0.0420
  128MOL    H9825752   3.779   0.168   6.788 -0.3810 -1.7270 -2.4819
  128MOL    H9925753   3.528   0.333   6.810 -1.7745 -0.7424  0.9898
  128MOL   H10025754   3.693   0.174   7.026 -0.4027 -3.5863 -1.9802
  128MOL   H10125755   3.527   0.145   6.991 -0.5764  1.5210 -1.0216
  128MOL   C10225756   3.552   0.336   7.083  0.5644 -0.3120  0.0337
  128MOL   C10325757   3.555   0.298   7.230 -0.4107  0.1368  0.3779
  128MOL   C10425758   3.448   0.228   7.276  0.2764 -0.2515  0.1604
  128MOL   C10525759   3.419   0.193   7.418 -0.0261 -0.2246 -0.0266
  128MOL   H10625760   3.602   0.431   7.064 -1.3430  0.7919  0.4136
  128MOL   H10725761   3.449   0.343   7.050  0.1518  1.2984  1.6009
  128MOL   H10825762   3.634   0.325   7.298  0.9827 -3.5236  0.3342
  128MOL   H10925763   3.372   0.195   7.208  0.3900  1.2971 -0.7474
  128MOL   H11025764   3.317   0.226   7.435 -0.3141 -0.4615 -1.2475
  128MOL   H11125765   3.479   0.251   7.488  0.2415  0.4238 -0.7833
  128MOL   C11225766   3.434   0.043   7.450  0.4740 -0.4647 -0.4351
  128MOL   C11325767   3.401   0.011   7.595 -0.2192 -0.0147  0.2962
  128MOL   C11425768   3.397   7.859   7.634 -0.0479 -0.1487 -0.1386
  128MOL   C11525769   3.368   7.824   7.780 -0.4785 -0.1960 -0.3689
  128MOL   H11625770   3.379   7.954   7.383 -0.3514  0.6092 -0.8233
  128MOL   H11725771   3.541   0.021   7.440  0.6486  0.1643  0.0485
  128MOL   H11825772   3.397   0.096   7.662  0.1334  0.4585 -0.2788
  128MOL   H11925773   3.388   7.773   7.569  0.6167 -0.5182  0.2598
  128MOL   H12025774   3.369   7.918   7.836 -3.1071  0.7721 -1.8085
  128MOL   H12125775   3.459   7.777   7.815 -0.6273  0.5243  1.0098
  128MOL   C12225776   3.253   7.733   7.812 -0.0297  0.0060 -0.3487
  128MOL   C12325777   3.110   7.773   7.772  0.1261 -0.2897 -0.2596
  128MOL   C12425778   3.021   7.818   7.857 -0.1900 -0.4644  0.1457
  128MOL   C12525779   2.873   7.842   7.827 -0.1215 -0.3829  0.3443
  128MOL   H12625780   3.267   7.632   7.774 -0.6506 -1.5759  3.4769
  128MOL   H12725781   3.265   7.727   7.920 -0.1628 -1.3251 -0.4025
  128MOL   H12825782   3.087   7.764   7.667  1.1482 -0.8393 -0.4505
  128MOL   H12925783   3.039   7.814   7.963  0.1751  2.6774  0.2514
  128MOL   H13025784   2.865   7.813   7.722 -0.8850 -2.8867  1.0688
  128MOL   H13125785   2.862   7.950   7.840  0.3589 -0.1502 -1.0452
  128MOL   C13225786   2.773   7.764   7.906  0.0021  0.3085  0.2376
  128MOL   C13325787   2.773   7.821   0.074  0.5379  0.5244  0.7007
  128MOL   C13425788   2.824   7.763   0.181  0.5234 -0.0897  0.9701
  128MOL   C13525789   2.816   7.836   0.318 -0.4000  0.2044  0.5111
  128MOL   H13625790   2.674   7.775   7.862 -0.3399 -1.8290  0.4526
  128MOL   H13725791   2.796   7.658   7.904  2.7070  0.8611 -0.0769
  128MOL   H13825792   2.728   7.918   0.088  0.3599  0.5162  0.1976
  128MOL   H13925793   2.860   7.661   0.177 -2.4929 -1.2030  0.8426
  128MOL   H14025794   2.771   7.935   0.311 -0.7167  0.0343  0.1133
  128MOL   H14125795   2.922   7.854   0.339  0.2272 -1.8466 -0.6650
  128MOL   C14225796   2.766   7.751   0.431  0.0829  0.5772 -0.9311
  128MOL   C14325797   2.769   7.831   0.564  0.4448  0.2660  0.0980
  128MOL   C14425798   2.838   7.944   0.600 -0.9641 -0.2380 -0.1976
  128MOL   C14525799   2.829   0.037   0.734 -0.0686 -0.0562  0.3980
  128MOL   H14625800   2.668   7.708   0.410  1.2862 -2.5598 -0.4357
  128MOL   H14725801   2.835   7.667   0.439 -1.3953 -0.5557  0.2695
  128MOL   H14825802   2.712   7.778   0.639 -0.0567  0.5888 -0.0572
  128MOL   H14925803   2.904   0.011   0.527 -1.0644  0.3029  0.0300
  128MOL   H15025804   2.739   0.014   0.790 -0.7961 -0.5803 -0.9428
  128MOL   H15125805   2.816   0.143   0.708  1.9576  0.1296  0.0758
  128MOL   C15225806   2.960   0.028   0.812 -0.0131  0.2160 -0.2312
  128MOL   C15325807   2.946   0.075   0.954  0.6581 -0.3026 -0.2121
  128MOL   C15425808   2.989   0.023   1.069 -0.3160  0.1508 -0.6531
  128MOL   C15525809   2.979   0.100   1.200 -0.1317 -0.1691  0.1162
  128MOL   H15625810   2.986   7.900   0.820 -1.9741 -0.4533 -2.0908
  128MOL   H15725811   3.042   0.074   0.756  0.9844 -1.3844 -0.1153
  128MOL   H15825812   2.911   0.177   0.956  0.4235 -0.3955  1.0371
  128MOL   H15925813   3.021   7.897   1.068  0.7188  0.4606  0.1701
  128MOL   H16025814   2.941   0.200   1.180 -0.4690  0.2640  2.7367
  128MOL   H16125815   3.079   0.109   1.243  0.9034  0.1719 -2.2681
  128MOL   C16225816   2.897   0.013   1.298 -0.3924  0.5840 -0.2447
  128MOL   C16325817   2.886   0.052   1.443  0.5608 -0.2184 -0.2337
  128MOL   C16425818   2.984   0.109   1.513  0.1439  0.4247 -0.0159
  128MOL   C16525819   2.974   0.167   1.652  0.8634  0.3002 -0.6532
  128MOL   H16625820   2.792   0.018   1.270 -0.4221  1.3873 -0.0003
  128MOL   H16725821   2.928   7.885   1.289 -3.3247 -0.2123 -1.8529
  128MOL   H16825822   2.796   0.040   1.501  0.8337  1.5338  0.5746
  128MOL   H16925823   3.081   0.113   1.467  0.3854 -2.1164  0.1899
  128MOL   H17025824   2.870   0.177   1.685  0.5341  1.2950 -1.9360
  128MOL   H17125825   3.022   0.265   1.650 -0.3974  0.9178 -1.3167
  128MOL   C17225826   3.039   0.062   1.746 -0.6141  0.8195 -0.2238
  128MOL   C17325827   3.087   0.129   1.874  0.1545  0.1337 -0.1918
  128MOL   C17425828   3.084   0.071   1.993 -0.0591  0.0415  0.3138
  128MOL   C17525829   3.140   0.121   2.129  0.1206 -0.3568 -0.6333
  128MOL   H17625830   2.979   7.951   1.767 -0.4719  0.4659 -1.2625
  128MOL   H17725831   3.132   0.038   1.694 -2.1800 -0.0932 -2.6555
  128MOL   H17825832   3.109   0.234   1.883 -2.6105  0.7163  0.1117
  128MOL   H17925833   3.036   7.951   1.990 -1.2167  0.6242 -0.2693
  128MOL   H18025834   3.195   0.037   2.172 -0.8225 -0.4205  0.4795
  128MOL   H18125835   3.063   0.143   2.203 -0.0296 -1.1017 -0.5637
  128MOL   C18225836   3.225   0.253   2.135 -0.6523  0.2515  0.6048
  128MOL   C18325837   3.252   0.300   2.274 -0.3386  0.2207 -0.2399
  128MOL   C18425838   3.376   0.308   2.327 -0.0105 -0.3861 -0.4779
  128MOL   C18525839   3.400   0.352   2.471 -0.8811 -0.0347 -0.3648
  128MOL   H18625840   3.319   0.242   2.081 -0.4323 -0.1547  1.0671
  128MOL   H18725841   3.163   0.321   2.077  0.1805  0.4540 -0.0763
  128MOL   H18825842   3.166   0.333   2.331  0.8398 -0.2050  1.8536
  128MOL   H18925843   3.462   0.268   2.274 -1.5459 -1.6141 -2.1106
  128MOL   H19025844   3.432   0.272   2.538 -1.7280 -0.1268 -0.0686
  128MOL   H19125845   3.314   0.390   2.525 -0.5829 -3.8418  3.0886
  128MOL   C19225846   3.505   0.464   2.476 -0.1926  0.0376  0.3596
  128MOL   C19325847   3.634   0.428   2.410  0.1187  0.2683 -0.2881
  128MOL   C19425848   3.688   0.491   2.302  0.4192 -0.1989  0.1716
  128MOL   C19525849   3.809   0.446   2.233 -1.2395 -0.6276  0.5958
  128MOL   H19625850   3.462   0.550   2.426  0.8122  0.4025  0.1012
  128MOL   H19725851   3.526   0.492   2.580  1.0634  0.5112 -0.0066
  128MOL   H19825852   3.684   0.345   2.460 -1.2517 -0.2359  0.2586
  128MOL   H19925853   3.623   0.565   2.258 -0.5447  0.5546  2.8341
  128MOL   H20025854   3.880   0.525   2.211 -1.2222 -0.6879  0.4373
  128MOL   H20125855   3.782   0.421   2.130  1.4552 -0.3630 -0.2005
  128MOL   H20225856   3.862   0.365   2.284 -0.1939 -1.9014 -2.4032
  129MOL     C125857   4.719   0.022   6.571 -0.0792 -0.0591  0.1238
  129MOL     C225858   4.867   0.047   6.541 -0.1068  0.2296  0.3003
  129MOL     C325859   4.950   0.141   6.592 -0.1826 -0.1030  0.5006
  129MOL     C425860   5.100   0.156   6.572 -0.3856 -0.4589 -0.3274
  129MOL     H525861   4.655   0.019   6.483  0.1110  1.0800 -0.0565
  129MOL     H625862   4.695   0.104   6.638  0.4324  0.0624  0.1627
  129MOL     H725863   4.922   7.955   6.479  0.2201  0.1913  0.6357
  129MOL     H825864   4.908   0.222   6.649 -0.2647  1.2168 -1.4043
  129MOL     H925865   5.112   0.246   6.511 -2.6712  0.2651  0.2107
  129MOL    H1025866   5.146   0.075   6.515  2.4657  0.6769  0.2825
  129MOL    H1125867   4.716   7.902   6.622  3.2134  0.3815  1.2996
  129MOL    C1225868   5.171   0.172   6.699 -0.2094 -0.3723  0.4530
  129MOL    C1325869   5.133   0.297   6.780  0.0027 -0.4473 -0.1486
  129MOL    C1425870   5.227   0.381   6.833  0.2676  0.1188  0.0924
  129MOL    C1525871   5.211   0.494   6.931 -0.0178 -0.6034  0.1347
  129MOL    H1625872   5.145   0.089   6.764 -0.3804 -0.1334  0.6929
  129MOL    H1725873   5.279   0.168   6.681 -0.2287 -0.1123  0.2768
  129MOL    H1825874   5.028   0.314   6.802 -0.1588 -1.2727 -0.2662
  129MOL    H1925875   5.331   0.373   6.808  0.1921 -2.2455  0.4052
  129MOL    H2025876   5.107   0.491   6.965 -0.1210 -3.3822 -0.2881
  129MOL    H2125877   5.230   0.585   6.874 -2.2844 -0.1453  0.0585
  129MOL    C2225878   5.313   0.478   7.047 -0.2629  0.3029 -0.0364
  129MOL    C2325879   5.280   0.602   7.128  0.5416 -0.1793  0.2347
  129MOL    C2425880   5.348   0.718   7.124 -0.4449 -0.2677 -0.1206
  129MOL    C2525881   5.307   0.842   7.213 -1.1183  0.4532  0.6791
  129MOL    H2625882   5.296   0.386   7.102 -3.9190  0.0926 -1.3788
  129MOL    H2725883   5.415   0.473   7.010 -1.2430 -2.9734 -2.5443
  129MOL    H2825884   5.191   0.591   7.187  1.0580  3.1738  1.7332
  129MOL    H2925885   5.432   0.727   7.058  0.6732  0.1049  1.3284
  129MOL    H3025886   5.215   0.809   7.260 -0.8489 -1.1538  0.1035
  129MOL    H3125887   5.280   0.925   7.147 -0.6890  0.0194 -0.0496
  129MOL    C3225888   5.415   0.887   7.314 -0.3092  0.1486 -0.5603
  129MOL    C3325889   5.379   0.986   7.409  0.2793 -0.2032 -0.2373
  129MOL    C3425890   5.372   0.975   7.548 -0.7968  0.2019  0.3112
  129MOL    C3525891   5.319   1.077   7.644 -0.2113  0.4324 -0.7153
  129MOL    H3625892   5.450   0.795   7.362 -1.5610 -1.7493 -3.1296
  129MOL    H3725893   5.504   0.931   7.269 -0.5449  0.2616 -0.9176
  129MOL    H3825894   5.342   1.078   7.367  0.4489  0.1668  0.4152
  129MOL    H3925895   5.402   0.882   7.594 -1.5961  0.5006  1.4741
  129MOL    H4025896   5.325   1.171   7.588 -0.6617 -0.4526 -2.2791
  129MOL    H4125897   5.385   1.085   7.730  0.9208  0.9680 -1.6174
  129MOL    C4225898   5.184   1.042   7.696 -0.1021  0.4773  0.4456
  129MOL    C4325899   5.077   1.036   7.582 -0.7388  0.1703  0.3674
  129MOL    C4425900   4.966   1.110   7.562  0.6828 -0.4784 -0.4852
  129MOL    C4525901   4.861   1.106   7.452 -0.3442  0.2179  0.1754
  129MOL    H4625902   5.182   0.944   7.744  0.8043  0.2817  0.0957
  129MOL    H4725903   5.146   1.107   7.775 -3.3824 -0.8261  0.0347
  129MOL    H4825904   5.116   0.973   7.504  0.4322  0.3354  0.7990
  129MOL    H4925905   4.943   1.181   7.640  1.1098  0.8603 -1.5353
  129MOL    H5025906   4.900   1.173   7.376  0.6047 -0.5743 -0.0488
  129MOL    H5125907   4.767   1.140   7.496  0.0103  1.1457  0.2343
  129MOL    C5225908   4.834   0.972   7.394  0.3894  0.2956 -0.0373
  129MOL    C5325909   4.760   0.884   7.495  0.1671 -0.3015  0.1191
  129MOL    C5425910   4.824   0.790   7.562 -0.0088 -0.2684 -0.6052
  129MOL    C5525911   4.763   0.714   7.681  0.9620  0.1655 -0.1934
  129MOL    H5625912   4.771   0.994   7.308 -0.2603  2.8097  1.0568
  129MOL    H5725913   4.926   0.922   7.363 -1.2317 -1.7599 -1.6223
  129MOL    H5825914   4.657   0.909   7.516 -0.0549 -1.5815  0.5790
  129MOL    H5925915   4.927   0.766   7.540  0.4609  2.0282 -1.0897
  129MOL    H6025916   4.681   0.776   7.718  1.5746  1.0739 -0.3472
  129MOL    H6125917   4.829   0.724   7.767  0.7924 -0.2997 -0.0057
  129MOL    C6225918   4.723   0.566   7.648  0.7000 -0.2561  0.0590
  129MOL    C6325919   4.620   0.517   7.751 -0.4703 -0.3238  0.2069
  129MOL    C6425920   4.631   0.401   7.818  0.2244  0.3674 -0.4550
  129MOL    C6525921   4.548   0.345   7.935  0.5040  0.2024  0.2451
  129MOL    H6625922   4.674   0.580   7.552  0.7125  0.5662  0.1696
  129MOL    H6725923   4.802   0.492   7.632  0.0021 -1.3667  1.5381
  129MOL    H6825924   4.530   0.573   7.768 -0.4855 -0.3809  0.3102
  129MOL    H6925925   4.718   0.347   7.787  2.3987  2.4868  1.6816
  129MOL    H7025926   4.487   0.417   0.012  4.0781  1.4258  2.8173
  129MOL    H7125927   4.619   0.305   0.029  0.2272 -0.8527 -0.0580
  129MOL    C7225928   4.458   0.231   7.888 -0.8154 -0.3950 -0.5829
  129MOL    C7325929   4.546   0.104   7.876  0.6965  0.0572 -0.1562
  129MOL    C7425930   4.543   0.010   7.971  0.1634  0.7434 -0.9488
  129MOL    C7525931   4.645   7.876   0.004 -0.1269  0.9433  0.0020
  129MOL    H7625932   4.376   0.207   7.956 -0.9028 -1.0452 -0.9075
  129MOL    H7725933   4.403   0.257   7.797 -1.6675  0.9102  0.2959
  129MOL    H7825934   4.615   0.100   7.793  2.7853 -1.4807  1.5812
  129MOL    H7925935   4.476   0.016   0.079  1.9002 -0.1580  0.5084
  129MOL    H8025936   4.712   7.877   0.090  0.9598 -0.3241 -0.8109
  129MOL    H8125937   4.720   7.903   7.905  0.0947 -0.5525 -0.3326
  129MOL    C8225938   4.597   7.736   7.958 -0.7175  0.1759  0.5697
  129MOL    C8325939   4.691   7.630   0.039  0.5204  0.1562  0.3669
  129MOL    C8425940   4.651   7.557   0.142  0.4843 -0.1859  0.2258
  129MOL    C8525941   4.753   7.465   0.219  0.1943  0.8121 -0.0408
  129MOL    H8625942   4.499   7.726   0.028 -1.6698 -0.9078 -1.5698
  129MOL    H8725943   4.588   7.729   7.850  1.0233 -1.9859  0.5324
  129MOL    H8825944   4.788   7.630   7.968 -0.6948 -0.1437 -2.1862
  129MOL    H8925945   4.554   7.576   0.187  0.9266 -0.6774  1.4045
  129MOL    H9025946   4.852   7.484   0.178  0.0975  0.1670 -0.5921
  129MOL    H9125947   4.740   7.360   0.192  0.9555  1.2161 -2.0351
  129MOL    C9225948   4.756   7.483   0.366  0.3024  0.4294  0.0189
  129MOL    C9325949   4.833   7.368   0.428  0.0922 -0.0260 -0.1888
  129MOL    C9425950   4.908   7.380   0.538 -0.1561  0.3793 -0.4604
  129MOL    C9525951   4.974   7.255   0.604 -0.1012 -0.4808 -0.0290
  129MOL    H9625952   4.808   7.576   0.387  1.9490 -0.1866 -1.1805
  129MOL    H9725953   4.654   7.492   0.402  0.5207  0.1747  0.7095
  129MOL    H9825954   4.825   7.275   0.373 -0.3813  0.0478 -0.2446
  129MOL    H9925955   4.907   7.470   0.598 -0.1773 -0.5454  0.9537
  129MOL   H10025956   4.967   7.180   0.525 -1.0979  1.3564 -1.7251
  129MOL   H10125957   4.929   7.216   0.696 -1.5885  1.2083  0.0023
  129MOL   C10225958   5.123   7.280   0.608 -0.3363  0.6319 -0.0904
  129MOL   C10325959   5.210   7.154   0.615 -0.0054 -0.3005 -0.1044
  129MOL   C10425960   5.317   7.152   0.686  0.2111  0.0821  0.3642
  129MOL   C10525961   5.410   7.030   0.704 -0.2796 -0.6641  0.6162
  129MOL   H10625962   5.153   7.324   0.512  1.1100  0.8973  0.4676
  129MOL   H10725963   5.153   7.341   0.693 -2.6806  1.5240  0.1368
  129MOL   H10825964   5.177   7.065   0.565  2.0093 -1.8828  1.2982
  129MOL   H10925965   5.345   7.238   0.746  0.2366  1.4365 -1.5545
  129MOL   H11025966   5.388   6.950   0.634 -0.1297 -0.0532 -0.1374
  129MOL   H11125967   5.404   6.973   0.797 -1.2742 -1.1628  0.2475
  129MOL   C11225968   5.550   7.071   0.658 -0.1856  0.5582  0.0325
  129MOL   C11325969   5.647   6.960   0.649  0.0062 -0.7184 -0.6541
  129MOL   C11425970   5.752   6.931   0.721  1.1115 -0.4848  0.0970
  129MOL   C11525971   5.844   6.813   0.682  0.2917 -0.3630 -0.3449
  129MOL   H11625972   5.540   7.116   0.559 -2.4701 -0.0681 -0.0476
  129MOL   H11725973   5.589   7.142   0.731 -1.9382  0.5341  1.0162
  129MOL   H11825974   5.636   6.899   0.560  1.5376 -1.5989 -0.2633
  129MOL   H11925975   5.769   6.982   0.814 -0.1660  1.0207 -0.4763
  129MOL   H12025976   5.912   6.853   0.607  0.7715  0.4721  0.5108
  129MOL   H12125977   5.785   6.741   0.626  0.6459 -1.1189  0.2332
  129MOL   C12225978   5.911   6.739   0.803  0.6623 -0.9377 -1.1971
  129MOL   C12325979   5.998   6.821   0.895  0.2286  0.2598  0.2006
  129MOL   C12425980   6.042   6.944   0.882  0.8263 -0.4249  0.0628
  129MOL   C12525981   6.144   7.023   0.962 -0.1629  0.0754 -0.2281
  129MOL   H12625982   5.828   6.695   0.858 -0.7826  1.8564 -1.0402
  129MOL   H12725983   5.970   6.653   0.773  1.0635 -0.4503 -1.8196
  129MOL   H12825984   6.032   6.774   0.986  0.4442 -0.1985 -0.1150
  129MOL   H12925985   5.996   6.998   0.801 -0.8874  2.1159  2.6645
  129MOL   H13025986   6.233   7.024   0.899  0.0118 -2.9864 -0.0768
  129MOL   H13125987   6.177   6.971   1.052 -2.2320  2.3929  1.9664
  129MOL   C13225988   6.079   7.163   0.990 -0.0376  0.8530  0.0251
  129MOL   C13325989   5.964   7.154   1.092  0.4907  0.1498  0.3516
  129MOL   C13425990   5.833   7.176   1.063  0.3450 -0.0522 -0.1685
  129MOL   C13525991   5.717   7.135   1.153  0.3020  0.0303  0.2692
  129MOL   H13625992   6.155   7.223   1.040  0.3887 -0.2071  0.6666
  129MOL   H13725993   6.045   7.204   0.895  1.4658 -0.6968 -1.2352
  129MOL   H13825994   5.985   7.119   1.192  0.7384  0.4834  0.4197
  129MOL   H13925995   5.813   7.218   0.966 -1.7700 -0.5672  0.0250
  129MOL   H14025996   5.758   7.070   1.231  2.1585  1.1954  0.2989
  129MOL   H14125997   5.638   7.088   1.094 -2.5051  0.9039  3.2609
  129MOL   C14225998   5.652   7.247   1.228 -0.4611  0.2092  0.2866
  129MOL   C14325999   5.545   7.192   1.319 -0.0966 -0.3399 -0.4862
  129MOL   C14426000   5.444   7.259   1.360 -0.0430 -0.8793  0.2040
  129MOL   C14526001   5.338   7.190   1.433  0.1709  0.0466 -0.3996
  129MOL   H14626002   5.730   7.288   1.293 -0.4095 -0.4137  0.6153
  129MOL   H14726003   5.610   7.324   1.164 -0.8977 -0.2237  0.0519
  129MOL   H14826004   5.562   7.091   1.353 -3.4252 -1.0184 -0.6747
  129MOL   H14926005   5.432   7.362   1.328 -0.1808 -0.5363  1.3539
  129MOL   H15026006   5.393   7.111   1.485 -1.1731 -1.4443 -1.2090
  129MOL   H15126007   5.270   7.136   1.367  0.0352 -0.3435  0.0568
  129MOL   C15226008   5.267   7.286   1.529 -0.8122 -0.2015 -0.2494
  129MOL   C15326009   5.197   7.232   1.652 -0.5925  0.5818  0.1429
  129MOL   C15426010   5.066   7.233   1.665  0.5016 -0.2307 -0.5490
  129MOL   C15526011   4.995   7.169   1.783 -0.1086 -0.0335 -0.6289
  129MOL   H15626012   5.352   7.343   1.566  0.7360 -2.3015 -0.4407
  129MOL   H15726013   5.207   7.350   1.464 -2.1854 -1.0967  0.1076
  129MOL   H15826014   5.259   7.196   1.734 -0.5284  1.1038  0.3213
  129MOL   H15926015   5.007   7.281   1.588  2.6228  3.0359 -0.2789
  129MOL   H16026016   4.934   7.236   1.844  2.5754 -1.0551  3.4128
  129MOL   H16126017   5.076   7.128   1.843  0.8763 -0.3733 -2.1698
  129MOL   C16226018   4.913   7.053   1.737  0.4558 -0.2484  0.5886
  129MOL   C16326019   4.852   6.990   1.858 -0.0857  0.5331  0.0618
  129MOL   C16426020   4.719   7.005   1.891 -0.8996  0.4661  0.2164
  129MOL   C16526021   4.648   6.947   2.004 -0.1095 -0.0541  0.2435
  129MOL   H16626022   4.837   7.075   1.662 -0.0911 -1.5245  0.7589
  129MOL   H16726023   4.974   6.977   1.689 -0.9576 -0.5503 -0.7492
  129MOL   H16826024   4.924   6.942   1.923  0.1271 -1.0627 -1.3231
  129MOL   H16926025   4.656   7.069   1.831  0.4971  1.8192  0.1506
  129MOL   H17026026   4.587   7.032   2.034 -0.0196  0.3057 -0.5875
  129MOL   H17126027   4.716   6.923   2.086 -0.5817 -1.3926  0.2580
  129MOL   C17226028   4.562   6.827   1.945 -0.4591 -0.1117 -0.4453
  129MOL   C17326029   4.465   6.790   2.054  0.0107  0.1143  0.0637
  129MOL   C17426030   4.458   6.669   2.123  0.3797 -0.6643 -0.1519
  129MOL   C17526031   4.376   6.636   2.247 -0.3521  0.4095  0.4081
  129MOL   H17626032   4.507   6.862   1.858 -2.5505  1.0579  1.2721
  129MOL   H17726033   4.626   6.752   1.899  0.1546  0.0014  0.2116
  129MOL   H17826034   4.405   6.872   2.090 -0.2574 -0.0199 -0.0781
  129MOL   H17926035   4.525   6.590   2.093 -1.3049 -1.3305 -2.2616
  129MOL   H18026036   4.327   6.544   2.215  0.5132  0.6573 -1.7399
  129MOL   H18126037   4.307   6.715   2.275  0.1089 -0.2196  3.4993
  129MOL   C18226038   4.465   6.613   2.374  0.1769 -0.1713 -0.3742
  129MOL   C18326039   4.384   6.570   2.494 -0.2988  0.1062 -0.3460
  129MOL   C18426040   4.418   6.461   2.572  0.8448  0.1480  0.2473
  129MOL   C18526041   4.351   6.403   2.692 -0.2669  0.3856  0.1634
  129MOL   H18626042   4.555   6.558   2.347  1.2691  2.2440 -1.7709
  129MOL   H18726043   4.496   6.715   2.398 -1.3951  0.5047 -1.1866
  129MOL   H18826044   4.297   6.628   2.520 -0.1968  0.9068 -1.7228
  129MOL   H18926045   4.510   6.409   2.549  0.5743 -0.9440  1.5580
  129MOL   H19026046   4.366   6.296   2.703  1.1012  0.7960  2.7133
  129MOL   H19126047   4.242   6.415   2.687 -0.2379  0.0952 -1.3390
  129MOL   C19226048   4.403   6.465   2.822 -0.6231 -0.3892  0.3308
  129MOL   C19326049   4.332   6.417   2.946  0.0257 -0.2200 -0.1892
  129MOL   C19426050   4.390   6.383   3.069  0.0766 -0.1485 -0.4514
  129MOL   C19526051   4.314   6.366   3.202 -0.1981  0.6184 -0.1065
  129MOL   H19626052   4.510   6.450   2.835 -0.7815 -1.6582  0.2292
  129MOL   H19726053   4.400   6.574   2.811  0.0647 -0.2827  1.1156
  129MOL   H19826054   4.230   6.451   2.946  0.3026  0.7061  1.4846
  129MOL   H19926055   4.495   6.367   3.084  0.1690  1.5929  0.9154
  129MOL   H20026056   4.261   6.271   3.201  1.7643 -0.4993 -0.7990
  129MOL   H20126057   4.231   6.437   3.201  0.9571  2.0060 -1.6155
  129MOL   H20226058   4.372   6.389   3.291 -1.6164 -0.0430  0.9947
  130MOL     C126059   3.679   4.960   2.240  0.2392 -0.2590  0.3586
  130MOL     C226060   3.783   4.924   2.344  1.1825  0.0115  0.2432
  130MOL     C326061   3.874   4.831   2.330  0.0007  0.5093  0.1132
  130MOL     C426062   3.988   4.807   2.438 -0.1580 -0.3354  0.0209
  130MOL     H526063   3.713   5.052   2.193  0.1238 -1.2573 -1.7337
  130MOL     H626064   3.577   4.969   2.279  0.0446  0.9107 -0.4146
  130MOL     H726065   3.797   4.997   2.422 -1.9808  1.1406 -0.1916
  130MOL     H826066   3.866   4.761   2.248 -4.0040  0.9830  0.0186
  130MOL     H926067   3.981   4.872   2.525 -2.0985 -1.0818  0.4605
  130MOL    H1026068   4.073   4.841   2.379  1.0632 -0.9332  1.4069
  130MOL    H1126069   3.676   4.877   2.170 -2.8247 -1.7488  2.1257
  130MOL    C1226070   4.004   4.655   2.460  0.2610 -0.0087 -0.0706
  130MOL    C1326071   4.137   4.618   2.521 -0.0114  0.2018  0.3054
  130MOL    C1426072   4.151   4.514   2.602 -0.1025  0.2388  0.3441
  130MOL    C1526073   4.284   4.473   2.655 -0.0672  0.1087  0.0306
  130MOL    H1626074   3.930   4.606   2.524  1.1318 -1.2133  0.0307
  130MOL    H1726075   4.008   4.591   2.372 -0.6499 -2.4627  1.5835
  130MOL    H1826076   4.224   4.672   2.487  1.1990 -1.3594  0.8480
  130MOL    H1926077   4.070   4.446   2.625 -0.0876 -0.0240 -0.3540
  130MOL    H2026078   4.281   4.499   2.761 -0.9390  0.5269 -0.0972
  130MOL    H2126079   4.357   4.533   2.601  1.3282 -1.9211 -0.3953
  130MOL    C2226080   4.319   4.326   2.628  0.3265 -0.1619  0.1867
  130MOL    C2326081   4.417   4.268   2.731  1.0856 -0.3185 -0.2637
  130MOL    C2426082   4.541   4.228   2.694  0.9129 -0.7858  0.0160
  130MOL    C2526083   4.628   4.159   2.786 -0.1520 -0.2997  0.0703
  130MOL    H2626084   4.229   4.264   2.634  1.0960 -1.2614  0.4302
  130MOL    H2726085   4.358   4.308   2.528  1.4543  0.3535  0.5251
  130MOL    H2826086   4.378   4.268   2.832 -3.2958  0.4043 -1.8685
  130MOL    H2926087   4.566   4.230   2.589 -3.5058  2.3293 -1.1100
  130MOL    H3026088   4.642   4.057   2.749  0.4563 -0.3016  0.3066
  130MOL    H3126089   4.585   4.168   2.885  0.7746 -0.1548  0.4625
  130MOL    C3226090   4.771   4.217   2.797  0.1563  0.2809  0.0301
  130MOL    C3326091   4.876   4.115   2.809  1.1338  0.8381  0.1452
  130MOL    C3426092   4.973   4.095   2.719  0.0019 -0.0491 -0.1756
  130MOL    C3526093   5.063   3.972   2.716 -0.2733 -0.1379  0.0198
  130MOL    H3626094   4.801   4.278   2.712 -0.5527 -1.4306 -1.4816
  130MOL    H3726095   4.775   4.281   2.885 -1.0232 -1.3629  1.2964
  130MOL    H3826096   4.864   4.056   2.898 -2.8293  1.4063  0.0874
  130MOL    H3926097   4.978   4.166   2.637  0.9778  0.1707  0.0723
  130MOL    H4026098   5.042   3.909   2.629  1.0463 -0.7103  0.1126
  130MOL    H4126099   5.047   3.908   2.803  0.3204  1.2795  1.1961
  130MOL    C4226100   5.207   3.992   2.709 -0.3578 -0.5187  0.0502
  130MOL    C4326101   5.281   3.863   2.701 -0.4432 -0.0616 -0.3150
  130MOL    C4426102   5.357   3.827   2.601 -0.2802  0.5476  0.3430
  130MOL    C4526103   5.435   3.697   2.598  0.7450  0.0471  0.2428
  130MOL    H4626104   5.231   4.047   2.618 -1.9606 -0.6423 -0.4631
  130MOL    H4726105   5.244   4.055   2.790  0.2594 -2.9286  1.6839
  130MOL    H4826106   5.283   3.807   2.794  0.4652  0.5103  0.0197
  130MOL    H4926107   5.362   3.878   2.507  1.5303 -2.5117 -1.3032
  130MOL    H5026108   5.404   3.635   2.683  1.9595 -1.0961 -0.1367
  130MOL    H5126109   5.541   3.718   2.606  0.9642 -0.7706 -0.3887
  130MOL    C5226110   5.411   3.627   2.458  0.4325 -0.2499  0.1170
  130MOL    C5326111   5.465   3.488   2.447  0.0751 -0.3481 -0.0735
  130MOL    C5426112   5.463   3.413   2.333 -0.0670 -0.2849 -0.8702
  130MOL    C5526113   5.527   3.280   2.325 -0.0348 -0.0086  0.0393
  130MOL    H5626114   5.306   3.616   2.429 -0.5314  0.2540  3.2024
  130MOL    H5726115   5.458   3.686   2.380 -0.1367 -1.6440 -1.3000
  130MOL    H5826116   5.498   3.445   2.541 -1.2912 -2.2670 -0.4464
  130MOL    H5926117   5.429   3.455   2.239 -1.5465  2.6062  0.8870
  130MOL    H6026118   5.457   3.212   2.278 -1.5497  0.5126  1.5183
  130MOL    H6126119   5.525   3.222   2.417 -1.3012  0.4768  0.3166
  130MOL    C6226120   5.665   3.288   2.261 -0.4185  0.4822 -0.5925
  130MOL    C6326121   5.718   3.155   2.235 -0.6890 -0.0322 -0.2076
  130MOL    C6426122   5.750   3.126   2.111 -0.1972 -0.0040  0.2068
  130MOL    C6526123   5.803   2.996   2.066 -0.5346  0.7909  0.3249
  130MOL    H6626124   5.673   3.354   2.174 -0.5333 -0.1162 -1.0609
  130MOL    H6726125   5.732   3.330   2.337  0.4534 -0.2662 -0.9445
  130MOL    H6826126   5.733   3.091   2.321  0.6591  1.8518  0.9997
  130MOL    H6926127   5.744   3.199   2.032  0.9636 -0.4713 -0.3204
  130MOL    H7026128   5.798   2.966   1.962 -0.6503  0.9157  0.2946
  130MOL    H7126129   5.744   2.922   2.119  2.4357 -0.8786  1.4558
  130MOL    C7226130   5.962   2.993   2.072  0.5690  0.2202 -0.2613
  130MOL    C7326131   6.027   2.865   2.016 -0.3126  0.0891 -0.2733
  130MOL    C7426132   6.148   2.819   2.056  0.4777  0.1843  0.0081
  130MOL    C7526133   6.217   2.694   2.004 -0.1384 -0.8663  0.1254
  130MOL    H7626134   5.990   3.076   2.009 -1.1228  0.0630 -1.2619
  130MOL    H7726135   6.004   3.001   2.172  1.2678  1.0106 -0.6179
  130MOL    H7826136   5.978   2.815   1.934  0.8051 -0.4856 -0.6069
  130MOL    H7926137   6.206   2.883   2.121  2.2276  0.5561 -1.8458
  130MOL    H8026138   6.154   2.608   2.025  1.7106 -2.5432 -1.0597
  130MOL    H8126139   6.306   2.671   2.062  0.4865  2.3170  0.5640
  130MOL    C8226140   6.242   2.699   1.856 -0.4108  0.2349  0.2003
  130MOL    C8326141   6.325   2.583   1.810 -0.2563 -0.3185  0.1226
  130MOL    C8426142   6.307   2.522   1.693  0.3069  0.1899 -0.0952
  130MOL    C8526143   6.403   2.430   1.629 -0.0435  0.1581  0.0030
  130MOL    H8626144   6.158   2.706   1.787 -0.8627 -2.7926  0.3399
  130MOL    H8726145   6.302   2.789   1.847 -0.2940  0.3753  2.1862
  130MOL    H8826146   6.414   2.558   1.867  0.2813 -0.6154 -0.8309
  130MOL    H8926147   6.227   2.549   1.626 -0.4213 -1.1779  0.2114
  130MOL    H9026148   6.468   2.383   1.703  0.9095  0.4337 -0.6500
  130MOL    H9126149   6.464   2.491   1.563 -0.2237  0.7354  0.3645
  130MOL    C9226150   6.332   2.315   1.549 -0.3636  0.5444 -0.5872
  130MOL    C9326151   6.432   2.220   1.480  0.6007  0.5027  0.3321
  130MOL    C9426152   6.449   2.217   1.344  0.1575 -0.7560 -0.0697
  130MOL    C9526153   6.551   2.131   1.268  0.2807  0.2348 -0.3655
  130MOL    H9626154   6.280   2.248   1.617 -0.4432 -0.8289 -1.9646
  130MOL    H9726155   6.266   2.356   1.472 -0.3301  0.3894 -0.6979
  130MOL    H9826156   6.501   2.157   1.535  0.7364 -0.5343 -0.9968
  130MOL    H9926157   6.389   2.285   1.284 -0.2467  1.7254  3.0128
  130MOL   H10026158   6.625   2.091   1.337  0.1646 -1.3086 -1.1109
  130MOL   H10126159   6.620   2.194   1.211  0.4081 -0.3117 -0.8212
  130MOL   C10226160   6.475   2.018   1.201  0.3881  0.3075 -0.0033
  130MOL   C10326161   6.561   1.939   1.110 -0.3108 -0.1257  0.5048
  130MOL   C10426162   6.544   1.806   1.086 -0.0852  0.0232  0.1745
  130MOL   C10526163   6.634   1.717   0.999  0.2238  0.4612  0.1728
  130MOL   H10626164   6.420   1.952   1.268  1.4974  1.2961  1.9128
  130MOL   H10726165   6.400   2.071   1.142 -0.7741 -0.3739  0.8224
  130MOL   H10826166   6.634   1.990   1.049 -0.4270 -3.2385 -2.3709
  130MOL   H10926167   6.461   1.765   1.141 -0.9967  3.5815  1.5820
  130MOL   H11026168   6.713   1.786   0.970 -0.3782  1.6611  1.3396
  130MOL   H11126169   6.585   1.684   0.907 -0.1876 -0.5801  0.7691
  130MOL   C11226170   6.688   1.595   1.062 -0.1152 -0.6092 -0.0606
  130MOL   C11326171   6.577   1.495   1.084  0.3566 -0.2503 -0.1010
  130MOL   C11426172   6.598   1.361   1.072 -0.1761  0.4514 -0.0471
  130MOL   C11526173   6.496   1.252   1.091 -0.1672 -0.3463  0.1809
  130MOL   H11626174   6.770   1.556   1.002  0.2132  2.1144 -1.4745
  130MOL   H11726175   6.723   1.616   1.163 -1.7146 -0.0209  0.3863
  130MOL   H11826176   6.473   1.520   1.101 -0.4144 -1.5106 -2.5887
  130MOL   H11926177   6.698   1.329   1.049  0.0286 -1.7113  3.5329
  130MOL   H12026178   6.473   1.206   0.995  1.7110 -0.2343 -0.3442
  130MOL   H12126179   6.400   1.296   1.118 -0.0026 -0.2858  0.6568
  130MOL   C12226180   6.532   1.158   1.204  0.3584  0.6065  0.0625
  130MOL   C12326181   6.489   1.215   1.336  0.4576 -0.2589 -0.2035
  130MOL   C12426182   6.412   1.152   1.426 -0.5234 -0.7512 -0.0091
  130MOL   C12526183   6.405   1.206   1.565  0.5975  0.3489  0.3760
  130MOL   H12626184   6.496   1.055   1.197  0.5523  0.6321 -1.5130
  130MOL   H12726185   6.640   1.155   1.221  0.1319 -0.4293  1.3905
  130MOL   H12826186   6.523   1.317   1.350  0.9383 -0.6725  1.8408
  130MOL   H12926187   6.374   1.051   1.418 -0.0226 -0.8912 -0.7041
  130MOL   H13026188   6.304   1.242   1.585  0.5785 -0.2902  1.4754
  130MOL   H13126189   6.460   1.300   1.569  0.4038  0.5233 -0.8530
  130MOL   C13226190   6.445   1.115   1.679  0.5234 -0.7039  0.6602
  130MOL   C13326191   6.422   1.170   1.816 -0.0835  0.3183 -0.2685
  130MOL   C13426192   6.316   1.139   1.895  0.4151  0.4928 -0.3420
  130MOL   C13526193   6.308   1.197   2.039 -0.4056 -0.0845  0.4451
  130MOL   H13626194   6.382   1.028   1.661  1.3755 -0.9723 -1.2043
  130MOL   H13726195   6.549   1.080   1.673  1.3584  1.3527  2.4363
  130MOL   H13826196   6.502   1.231   1.855 -0.7682  1.7400 -1.0311
  130MOL   H13926197   6.240   1.075   1.853 -0.3809  0.1132  1.6264
  130MOL   H14026198   6.382   1.276   2.050 -2.6105  2.2270 -0.9213
  130MOL   H14126199   6.342   1.109   2.095  3.3423  0.0145 -1.5130
  130MOL   C14226200   6.166   1.232   2.088  0.7265  0.5978 -0.1497
  130MOL   C14326201   6.148   1.260   2.234 -0.3906 -0.0715 -0.5761
  130MOL   C14426202   6.243   1.271   2.323 -0.0890 -0.2421 -0.0957
  130MOL   C14526203   6.219   1.317   2.466 -0.3584  0.4444 -0.8058
  130MOL   H14626204   6.126   1.312   2.025  0.3865 -1.2840 -2.4142
  130MOL   H14726205   6.100   1.148   2.068  0.1444  0.7577  1.0242
  130MOL   H14826206   6.046   1.274   2.266  0.8186  1.1125  3.0068
  130MOL   H14926207   6.344   1.259   2.287  0.3355  2.0602  0.2134
  130MOL   H15026208   6.111   1.312   2.483 -0.6661  0.1335 -2.7876
  130MOL   H15126209   6.249   1.421   2.485 -1.6398  0.6119  0.4691
  130MOL   C15226210   6.289   1.226   2.561 -0.0801 -0.0701 -0.0169
  130MOL   C15326211   6.234   1.240   2.703  0.1378  1.1670 -0.3390
  130MOL   C15426212   6.293   1.302   2.805 -0.0174 -0.0955  0.0778
  130MOL   C15526213   6.242   1.309   2.944  0.9370  0.4748  0.6701
  130MOL   H15626214   6.274   1.121   2.534 -0.3552 -0.3279  1.0949
  130MOL   H15726215   6.395   1.251   2.560  0.4132 -1.9476  1.6728
  130MOL   H15826216   6.129   1.213   2.706  1.0088 -2.3116  1.4491
  130MOL   H15926217   6.397   1.325   2.783  0.4003 -1.9631  0.0119
  130MOL   H16026218   6.139   1.273   2.944  0.9756  0.3559  1.4311
  130MOL   H16126219   6.241   1.415   2.968 -3.3985  0.8687 -0.7698
  130MOL   C16226220   6.328   1.233   3.039 -0.3383 -0.0955  0.0340
  130MOL   C16326221   6.254   1.201   3.166 -0.4431 -0.0095  0.3649
  130MOL   C16426222   6.266   1.084   3.223 -0.0595 -0.2190  1.0769
  130MOL   C16526223   6.198   1.038   3.354  1.1861  0.1116  0.2931
  130MOL   H16626224   6.351   1.136   2.993  1.4335 -0.6273  1.9478
  130MOL   H16726225   6.407   1.304   3.061 -1.9750  1.2544  1.6842
  130MOL   H16826226   6.191   1.274   3.214 -0.6166 -0.3111  0.5958
  130MOL   H16926227   6.327   1.009   3.175 -1.5716 -0.5728 -0.3325
  130MOL   H17026228   6.129   0.956   3.336 -2.0008  2.6056  0.6558
  130MOL   H17126229   6.147   1.120   3.404  1.1317  0.5529 -0.4766
  130MOL   C17226230   6.309   0.992   3.450 -0.0363 -0.3324 -0.0072
  130MOL   C17326231   6.371   1.111   3.517  0.3823 -0.2330 -0.5414
  130MOL   C17426232   6.367   1.144   3.649  0.2049 -0.1981  0.3475
  130MOL   C17526233   6.416   1.278   3.707  0.5835 -0.2532 -0.2164
  130MOL   H17626234   6.262   0.931   3.526 -1.6277 -0.1302 -0.7989
  130MOL   H17726235   6.378   0.933   3.389 -1.0703  0.5896 -2.1415
  130MOL   H17826236   6.408   1.183   3.445  0.9642 -0.3401 -0.3565
  130MOL   H17926237   6.314   1.091   3.727  1.2334 -1.5606  0.1478
  130MOL   H18026238   6.513   1.304   3.663  1.2690  0.9941  1.9529
  130MOL   H18126239   6.443   1.258   3.810  0.3537 -1.6164 -0.4117
  130MOL   C18226240   6.312   1.401   3.701 -0.2447  0.2510 -0.0902
  130MOL   C18326241   6.286   1.446   3.558  0.5415  0.1573 -0.1409
  130MOL   C18426242   6.317   1.570   3.512 -0.3089 -0.4565 -0.5929
  130MOL   C18526243   6.284   1.616   3.377 -0.4104 -0.7985 -0.3593
  130MOL   H18626244   6.221   1.372   3.754  0.2840  1.3914  1.5017
  130MOL   H18726245   6.344   1.491   3.754  3.7745 -0.4512 -1.1803
  130MOL   H18826246   6.240   1.370   3.496 -0.3998 -1.4445  2.4333
  130MOL   H18926247   6.361   1.633   3.588 -3.3798  0.1381  0.7610
  130MOL   H19026248   6.211   1.693   3.401 -1.0291 -0.9414 -1.7312
  130MOL   H19126249   6.238   1.536   3.319  2.0595 -2.0940 -0.5967
  130MOL   C19226250   6.410   1.668   3.310 -0.2253  0.0345  0.3227
  130MOL   C19326251   6.399   1.677   3.159  0.3052 -0.8062  0.4807
  130MOL   C19426252   6.486   1.641   3.070 -0.3388 -0.6150  0.2865
  130MOL   C19526253   6.464   1.660   2.921  0.5882 -0.1761 -0.2763
  130MOL   H19626254   6.434   1.770   3.341  0.5979 -0.1277  0.2505
  130MOL   H19726255   6.504   1.618   3.334  1.4457  1.7100 -2.4042
  130MOL   H19826256   6.314   1.729   3.119  0.9351 -0.8774 -0.9672
  130MOL   H19926257   6.580   1.594   3.097  0.6493  0.9125 -0.4116
  130MOL   H20026258   6.429   1.762   2.907 -1.2905 -0.7209  0.4337
  130MOL   H20126259   6.396   1.587   2.876  0.0898  0.5219 -0.6592
  130MOL   H20226260   6.563   1.658   2.873  0.2321 -2.3747 -0.9902
  131MOL     C126261   5.796   7.778   2.101  1.0523  0.0782  0.1628
  131MOL     C226262   5.786   7.637   2.045  0.3472  0.6198  0.3158
  131MOL     C326263   5.766   7.601   1.919  0.4648  0.1439 -0.1917
  131MOL     C426264   5.748   7.454   1.874 -0.5895  0.8563  0.6610
  131MOL     H526265   5.794   7.849   2.018 -0.1485 -1.9754 -1.6386
  131MOL     H626266   5.880   7.791   2.168 -0.0547 -1.2266  1.8466
  131MOL     H726267   5.789   7.566   2.126 -0.2490 -1.4582 -1.4316
  131MOL     H826268   5.759   7.672   1.837  0.6121  0.2552 -0.1075
  131MOL     H926269   5.720   7.393   1.960  3.2108 -0.6612  0.9086
  131MOL    H1026270   5.838   7.421   1.822 -2.1483  0.5679 -1.9111
  131MOL    H1126271   5.720   7.802   2.175  1.0608 -0.4083  0.3296
  131MOL    C1226272   5.639   7.445   1.770 -0.2848 -0.6149 -1.1175
  131MOL    C1326273   5.612   7.308   1.701 -0.0854  0.4731  0.3365
  131MOL    C1426274   5.600   7.191   1.761 -0.4563  0.3963  0.3777
  131MOL    C1526275   5.577   7.058   1.696  0.0490 -0.5267  0.8026
  131MOL    H1626276   5.552   7.493   1.815  0.3655 -2.3410  2.1521
  131MOL    H1726277   5.658   7.517   1.691  3.0720  2.5184  2.4088
  131MOL    H1826278   5.589   7.326   1.597 -1.2563 -0.3134  0.4612
  131MOL    H1926279   5.632   7.188   1.864 -1.4509  1.6539  0.7356
  131MOL    H2026280   5.548   7.074   1.592  0.9192  2.9569  1.0480
  131MOL    H2126281   5.499   7.004   1.750  0.3982 -0.2591  1.5749
  131MOL    C2226282   5.684   6.963   1.695 -0.0356 -0.1348 -0.1984
  131MOL    C2326283   5.656   6.843   1.611  0.6533  0.4977 -0.4328
  131MOL    C2426284   5.676   6.708   1.635 -0.1684  0.3400  0.1760
  131MOL    C2526285   5.640   6.602   1.539  0.0590  0.0406 -0.5990
  131MOL    H2626286   5.765   7.014   1.643 -0.6987  0.2121 -0.8881
  131MOL    H2726287   5.720   6.934   1.794  1.8710 -0.8574 -1.0818
  131MOL    H2826288   5.621   6.875   1.514  0.8705  0.5075 -0.5072
  131MOL    H2926289   5.729   6.670   1.721 -2.7388 -3.1711  0.3026
  131MOL    H3026290   5.599   6.657   1.454  1.5980  1.6729 -0.3073
  131MOL    H3126291   5.561   6.543   1.587  1.4175 -1.6265 -0.3255
  131MOL    C3226292   5.753   6.510   1.495  0.1812  0.0539 -0.1203
  131MOL    C3326293   5.715   6.430   1.375  0.3262 -0.6490 -0.1441
  131MOL    C3426294   5.760   6.310   1.337 -0.3377  0.2396 -0.5411
  131MOL    C3526295   5.717   6.234   1.210 -0.0248 -0.4437  0.2946
  131MOL    H3626296   5.842   6.567   1.470 -0.1668  0.1085 -1.2913
  131MOL    H3726297   5.793   6.430   1.557 -1.2821 -0.6731 -0.0721
  131MOL    H3826298   5.629   6.472   1.325 -0.8496 -0.7613  1.7229
  131MOL    H3926299   5.837   6.265   1.398  0.6844  0.9222 -1.3322
  131MOL    H4026300   5.792   6.208   1.136 -0.7467  0.5385 -0.7932
  131MOL    H4126301   5.648   6.292   1.149 -0.0618 -2.6896 -1.8951
  131MOL    C4226302   5.646   6.108   1.252 -0.4888 -0.2422 -0.2896
  131MOL    C4326303   5.616   6.023   1.133  0.1859 -0.2080 -0.2620
  131MOL    C4426304   5.508   5.941   1.119 -0.2624 -0.1939 -0.4946
  131MOL    C4526305   5.489   5.844   1.009  0.0711 -0.4639  0.0607
  131MOL    H4626306   5.707   6.053   1.323  1.9313  1.1184 -1.2804
  131MOL    H4726307   5.552   6.119   1.307  0.0554  0.7450  0.4546
  131MOL    H4826308   5.696   6.020   1.060 -0.0512  1.8341 -0.6484
  131MOL    H4926309   5.439   5.941   1.203 -0.2053 -0.5774 -0.4506
  131MOL    H5026310   5.573   5.863   0.943 -0.9509  0.6599 -0.9578
  131MOL    H5126311   5.399   5.870   0.953  0.9331  1.1403 -0.6146
  131MOL    C5226312   5.486   5.704   1.067 -0.3958  0.0449  0.8743
  131MOL    C5326313   5.442   5.593   0.972 -0.3906  0.2457 -0.5268
  131MOL    C5426314   5.326   5.529   0.993 -0.2197 -0.1110 -0.1462
  131MOL    C5526315   5.262   5.436   0.894 -0.2230  0.6248 -0.0517
  131MOL    H5626316   5.583   5.680   1.110  0.2203  0.0946 -0.4605
  131MOL    H5726317   5.409   5.701   1.144 -1.9354 -2.2358 -0.6809
  131MOL    H5826318   5.494   5.584   0.877 -1.9001 -0.5354 -1.2940
  131MOL    H5926319   5.271   5.547   1.084  0.0466  0.6005 -0.1198
  131MOL    H6026320   5.311   5.441   0.797 -1.2045 -1.0219 -0.6486
  131MOL    H6126321   5.158   5.468   0.887 -1.0492 -1.8669  0.3196
  131MOL    C6226322   5.261   5.292   0.954 -0.3427 -0.4881 -0.6454
  131MOL    C6326323   5.180   5.285   1.079  0.1262  0.1495 -0.0305
  131MOL    C6426324   5.229   5.287   1.201  0.7765  0.1748 -0.4456
  131MOL    C6526325   5.142   5.294   1.323  0.0742 -0.4425 -0.0103
  131MOL    H6626326   5.216   5.216   0.891  0.0881 -1.8876  0.6895
  131MOL    H6726327   5.363   5.256   0.971 -0.1517  0.5603  0.5243
  131MOL    H6826328   5.075   5.303   1.062  0.1051 -1.0127 -1.2051
  131MOL    H6926329   5.335   5.269   1.215  0.7708  0.6214  0.2133
  131MOL    H7026330   5.152   5.202   1.381 -0.7460 -1.0170 -0.7614
  131MOL    H7126331   5.036   5.284   1.299  0.1459  0.0372 -0.5336
  131MOL    C7226332   5.164   5.415   1.407 -0.0595  0.2947 -0.0382
  131MOL    C7326333   5.310   5.437   1.445 -0.1049  0.6377 -0.3711
  131MOL    C7426334   5.391   5.537   1.404  0.2072  0.4233  0.2042
  131MOL    C7526335   5.538   5.541   1.437  0.3669  0.4847  0.5305
  131MOL    H7626336   5.130   5.499   1.347 -2.1281 -2.2749 -2.6150
  131MOL    H7726337   5.111   5.415   1.502  1.3142  1.9065  0.7656
  131MOL    H7826338   5.350   5.355   1.502  1.6578  2.0163  0.3959
  131MOL    H7926339   5.354   5.618   1.342  2.5150  0.3058 -1.4196
  131MOL    H8026340   5.590   5.514   1.345 -1.4545 -1.4273  0.0085
  131MOL    H8126341   5.558   5.458   1.505 -0.6205 -1.5353 -1.5731
  131MOL    C8226342   5.587   5.674   1.484 -0.1963 -0.0865 -0.3180
  131MOL    C8326343   5.742   5.679   1.480  0.0356  0.3871 -0.2788
  131MOL    C8426344   5.816   5.728   1.582 -0.3261 -0.5228  0.2693
  131MOL    C8526345   5.964   5.738   1.588  0.8387 -0.2947  0.3432
  131MOL    H8626346   5.541   5.763   1.440 -0.4555 -0.4713 -0.8273
  131MOL    H8726347   5.553   5.679   1.588  1.4292  1.9303  0.1510
  131MOL    H8826348   5.795   5.647   1.392  2.4866  0.8086  1.0036
  131MOL    H8926349   5.763   5.768   1.667  0.6721 -0.3163  0.7993
  131MOL    H9026350   6.016   5.684   1.509 -0.6247  1.1160 -1.6187
  131MOL    H9126351   5.993   5.687   1.680  1.3949  1.7444  1.3262
  131MOL    C9226352   6.007   5.886   1.589  0.5516  0.7434  0.5707
  131MOL    C9326353   5.972   5.969   1.698 -0.3277 -0.9156 -0.5872
  131MOL    C9426354   5.941   6.095   1.688  0.5990 -0.7438 -0.1495
  131MOL    C9526355   5.888   6.166   1.811  0.2849  0.2780 -0.1707
  131MOL    H9626356   6.116   5.880   1.580  0.4344 -2.6202  0.7332
  131MOL    H9726357   5.970   5.938   1.501 -0.1008 -2.0309 -0.8705
  131MOL    H9826358   5.960   5.919   1.793  2.1118 -1.6232 -0.6095
  131MOL    H9926359   5.940   6.142   1.590  0.5141  0.4188  0.4055
  131MOL   H10026360   5.956   6.250   1.825 -0.6050  0.5693  2.6717
  131MOL   H10126361   5.881   6.099   1.897 -0.2220 -0.9180 -1.1360
  131MOL   C10226362   5.745   6.223   1.790 -0.2626 -0.5403  0.2183
  131MOL   C10326363   5.685   6.297   1.908 -0.2816 -0.3374  0.1503
  131MOL   C10426364   5.617   6.415   1.920  0.0551 -0.5027 -0.4733
  131MOL   C10526365   5.558   6.462   2.054  0.1530  0.7084  0.3081
  131MOL   H10626366   5.728   6.287   1.704 -0.5631 -0.9046  0.0062
  131MOL   H10726367   5.679   6.138   1.773  0.2403 -1.0077  0.5786
  131MOL   H10826368   5.695   6.240   1.999  0.0436 -0.8748 -0.2194
  131MOL   H10926369   5.600   6.473   1.831 -2.5831  0.0568  0.3537
  131MOL   H11026370   5.550   6.570   2.041 -1.0904  0.7662  1.4108
  131MOL   H11126371   5.629   6.436   2.132 -1.0498 -2.8894  0.2829
  131MOL   C11226372   5.418   6.402   2.072  0.0050  0.1305  0.7787
  131MOL   C11326373   5.382   6.403   2.215 -0.1691 -0.4106 -0.5839
  131MOL   C11426374   5.330   6.298   2.280 -0.2263  0.0765 -0.9225
  131MOL   C11526375   5.277   6.314   2.423  0.6547 -0.1531 -0.3013
  131MOL   H11626376   5.343   6.446   2.006  1.1790 -1.0246 -1.3975
  131MOL   H11726377   5.426   6.296   2.050  3.0778  0.2833  0.9941
  131MOL   H11826378   5.384   6.499   2.265  0.4569 -1.1436  0.8268
  131MOL   H11926379   5.319   6.200   2.236  1.0515 -0.2216 -0.5851
  131MOL   H12026380   5.315   6.411   2.456  1.2332 -0.4907  0.0124
  131MOL   H12126381   5.321   6.234   2.481 -1.5818 -1.0688  0.1728
  131MOL   C12226382   5.123   6.317   2.433 -0.3267 -0.3423  0.2950
  131MOL   C12326383   5.073   6.397   2.545 -0.0021 -0.2175 -0.0249
  131MOL   C12426384   5.036   6.345   2.667  0.2012 -0.5011  0.4010
  131MOL   C12526385   5.013   6.433   2.788 -0.0213 -0.3665  0.0569
  131MOL   H12626386   5.086   6.370   2.345  0.5886 -1.2852 -0.6619
  131MOL   H12726387   5.071   6.222   2.419 -1.0527 -0.0259  0.7900
  131MOL   H12826388   5.067   6.504   2.533  1.1493 -0.1817 -0.3051
  131MOL   H12926389   5.062   6.243   2.693  0.3831 -1.3372 -2.7897
  131MOL   H13026390   5.037   6.535   2.758  0.7296 -0.2781  0.9531
  131MOL   H13126391   5.073   6.411   2.876 -0.5088 -0.1248  0.4526
  131MOL   C13226392   4.865   6.432   2.830  0.1431  0.1139  0.1558
  131MOL   C13326393   4.833   6.530   2.944 -0.2930 -0.1519 -0.5063
  131MOL   C13426394   4.789   6.489   3.063 -1.0580 -0.3481 -1.1732
  131MOL   C13526395   4.769   6.587   3.180  0.4318 -0.0238 -0.2285
  131MOL   H13626396   4.801   6.447   2.742  1.0437  3.6873  0.0403
  131MOL   H13726397   4.846   6.334   2.873 -1.8046  0.4407  0.0927
  131MOL   H13826398   4.837   6.635   2.923 -0.5399 -0.0686 -0.1349
  131MOL   H13926399   4.796   6.385   3.087  3.0888  0.0717 -0.1275
  131MOL   H14026400   4.855   6.653   3.183 -0.8438  1.7588 -1.8581
  131MOL   H14126401   4.770   6.514   3.260 -0.2887 -1.6188 -1.6275
  131MOL   C14226402   4.633   6.663   3.177 -0.2294 -0.4505 -0.1616
  131MOL   C14326403   4.613   6.749   3.052 -0.1574 -0.4644  0.3679
  131MOL   C14426404   4.577   6.878   3.053 -0.0496  0.4083  0.1863
  131MOL   C14526405   4.549   6.958   2.935 -1.0472  0.3106  0.3826
  131MOL   H14626406   4.548   6.595   3.180  0.6462 -1.6829 -1.9326
  131MOL   H14726407   4.618   6.728   3.263 -0.7643 -1.3217  0.4065
  131MOL   H14826408   4.623   6.697   2.958  2.4739 -1.0073  0.9372
  131MOL   H14926409   4.560   6.925   3.148  0.1243 -0.1246  0.4805
  131MOL   H15026410   4.554   7.064   2.959 -0.0852  0.1532  0.8919
  131MOL   H15126411   4.444   6.935   2.917 -0.9998  0.0437  0.4429
  131MOL   C15226412   4.637   6.929   2.813  0.5360 -0.6317  1.2534
  131MOL   C15326413   4.592   7.008   2.695  0.0331  0.7560  0.4369
  131MOL   C15426414   4.542   6.954   2.585  0.3236  0.2188  0.5280
  131MOL   C15526415   4.493   7.029   2.460 -0.2104  0.0335  0.1871
  131MOL   H15626416   4.739   6.962   2.831  0.5256  0.6135 -0.8698
  131MOL   H15726417   4.624   6.823   2.788 -1.1912  0.0546 -0.8563
  131MOL   H15826418   4.618   7.112   2.712  2.3925 -0.0277  1.7566
  131MOL   H15926419   4.521   6.848   2.582  1.1796  0.0140  1.4961
  131MOL   H16026420   4.567   6.995   2.387 -2.3688 -0.0624 -2.0146
  131MOL   H16126421   4.502   7.135   2.481  1.4835  0.4162 -2.2574
  131MOL   C16226422   4.345   6.992   2.421  0.1872 -0.1300 -0.1396
  131MOL   C16326423   4.266   6.965   2.540 -0.3663  0.2526  0.1590
  131MOL   C16426424   4.159   6.882   2.543  0.1913 -0.5793 -0.2864
  131MOL   C16526425   4.062   6.882   2.657  0.6355 -0.5196  0.1858
  131MOL   H16626426   4.294   7.075   2.372  0.5932 -1.4735 -2.9453
  131MOL   H16726427   4.349   6.902   2.359  0.8224  0.9057 -1.6160
  131MOL   H16826428   4.293   7.035   2.617  1.5456 -1.0226  0.6841
  131MOL   H16926429   4.131   6.822   2.458  0.0571 -0.9062 -0.0117
  131MOL   H17026430   3.974   6.933   2.619  0.2152 -1.0684  0.4334
  131MOL   H17126431   4.103   6.948   2.734 -0.7948  1.7587 -0.9660
  131MOL   C17226432   4.043   6.737   2.708 -0.3721  0.1052  0.3824
  131MOL   C17326433   3.943   6.720   2.818 -0.3349  0.2659 -0.0066
  131MOL   C17426434   3.845   6.632   2.824  0.1147 -0.1073 -0.4664
  131MOL   C17526435   3.745   6.625   2.941 -0.4124  0.1197 -0.4383
  131MOL   H17626436   4.019   6.668   2.627  1.2735  0.4045 -0.3894
  131MOL   H17726437   4.132   6.692   2.752  0.5142  1.2074 -0.2553
  131MOL   H17826438   3.955   6.786   2.903  1.1075 -2.1573  1.7243
  131MOL   H17926439   3.823   6.556   2.750  0.4325  0.4012 -1.0864
  131MOL   H18026440   3.652   6.582   2.904 -1.8966  2.8090  0.1013
  131MOL   H18126441   3.730   6.726   2.978 -1.3124 -0.5173  0.9866
  131MOL   C18226442   3.782   6.529   3.059 -0.1446 -0.0672 -0.1407
  131MOL   C18326443   3.800   6.387   3.014 -0.3789 -0.0972 -0.0744
  131MOL   C18426444   3.920   6.329   3.000  0.1444  0.3474 -0.3217
  131MOL   C18526445   3.944   6.179   2.968 -0.1480 -0.1881 -0.4009
  131MOL   H18626446   3.881   6.559   3.092  0.1387 -0.3663 -0.7127
  131MOL   H18726447   3.722   6.534   3.149  0.7061 -0.2618  0.4425
  131MOL   H18826448   3.710   6.333   2.988 -0.0361 -0.9455  0.4861
  131MOL   H18926449   4.010   6.388   3.003  1.2799 -1.3838  0.5948
  131MOL   H19026450   3.910   6.162   2.866  2.8526 -1.2510 -1.2571
  131MOL   H19126451   3.877   6.122   3.033  0.7559 -0.5571  0.2215
  131MOL   C19226452   4.086   6.135   2.996 -0.4652 -0.5990  0.4299
  131MOL   C19326453   4.104   5.989   2.953 -0.5839  0.4886  0.3430
  131MOL   C19426454   4.204   5.929   2.882  0.4780  0.2903 -1.4237
  131MOL   C19526455   4.202   5.780   2.845  0.0434 -0.3224 -0.2049
  131MOL   H19626456   4.148   6.193   2.928 -0.4628 -2.0326 -0.8174
  131MOL   H19726457   4.101   6.137   3.104 -1.2469  1.4065  0.5129
  131MOL   H19826458   4.028   5.918   2.982 -1.0616  0.9879  0.3149
  131MOL   H19926459   4.289   5.990   2.857  0.7764  0.0999 -0.8863
  131MOL   H20026460   4.293   5.747   2.895 -1.0481  0.1220  2.1562
  131MOL   H20126461   4.189   5.747   2.742  2.3857 -0.1310 -0.6013
  131MOL   H20226462   4.112   5.742   2.894  0.5006 -0.6013  0.4240
  132MOL     C126463   1.097   1.207   3.221  0.5686  0.2577  0.7010
  132MOL     C226464   0.970   1.271   3.290  0.2500  0.0174 -0.0585
  132MOL     C326465   0.853   1.208   3.314 -0.9285  0.3489 -0.3420
  132MOL     C426466   0.726   1.263   3.380 -0.5530  0.1285 -1.1925
  132MOL     H526467   1.192   1.218   3.273  1.6642 -0.2999 -1.1753
  132MOL     H626468   1.099   1.258   3.125 -0.5360 -2.1505 -0.6375
  132MOL     H726469   0.981   1.376   3.312 -1.3432  0.0304  0.7592
  132MOL     H826470   0.832   1.107   3.282  1.0415 -0.6848  1.4420
  132MOL     H926471   0.742   1.348   3.446  0.5594 -0.4996 -0.6549
  132MOL    H1026472   0.687   1.181   3.441 -0.4355  1.1021  0.2059
  132MOL    H1126473   1.090   1.102   3.194  2.2878  0.4502 -0.5811
  132MOL    C1226474   0.626   1.301   3.275  0.6745 -0.1857  0.6352
  132MOL    C1326475   0.488   1.349   3.335 -0.1282  0.2300 -0.2858
  132MOL    C1426476   0.373   1.285   3.311  0.1151 -0.5346 -0.7231
  132MOL    C1526477   0.231   1.341   3.352  0.7527  0.0776 -0.8515
  132MOL    H1626478   0.668   1.377   3.209 -0.4268 -2.2136 -2.5431
  132MOL    H1726479   0.627   1.222   3.200 -0.5024  1.2160 -0.8917
  132MOL    H1826480   0.488   1.446   3.381 -0.0366  0.1563 -0.1332
  132MOL    H1926481   0.391   1.186   3.272  0.3374 -1.7105  2.2170
  132MOL    H2026482   0.181   1.365   3.258 -1.1762  1.1834  0.4183
  132MOL    H2126483   0.247   1.428   3.416  1.9933 -1.0259  0.3753
  132MOL    C2226484   0.151   1.231   3.427  0.0196 -0.2018  0.8115
  132MOL    C2326485   0.204   1.207   3.568  0.4327  0.4137 -0.1036
  132MOL    C2426486   0.121   1.227   3.672 -0.5114  0.5044 -0.3341
  132MOL    C2526487   0.163   1.220   3.820 -0.4755 -0.3694 -0.6723
  132MOL    H2626488   0.048   1.265   3.435  0.4733  1.7708 -1.2247
  132MOL    H2726489   0.141   1.144   3.361 -0.3048  1.5071 -1.4555
  132MOL    H2826490   0.308   1.184   3.582 -0.2917 -2.6029  0.8866
  132MOL    H2926491   0.018   1.253   3.654 -0.5643  1.8960  1.7002
  132MOL    H3026492   0.268   1.192   3.808  0.2460  2.2921 -0.9327
  132MOL    H3126493   0.112   1.136   3.868 -1.8970  1.2894  0.7936
  132MOL    C3226494   0.160   1.369   3.878 -0.0934 -0.3559  0.3767
  132MOL    C3326495   0.186   1.373   4.026 -0.1440 -0.2751  0.2603
  132MOL    C3426496   0.107   1.414   4.126 -0.4393  0.2932  0.0881
  132MOL    C3526497   0.147   1.432   4.273  0.3446  0.1645  0.5545
  132MOL    H3626498   0.237   1.428   3.827 -1.1103  1.3295  0.7695
  132MOL    H3726499   0.062   1.410   3.854  0.7029  0.3360 -1.8341
  132MOL    H3826500   0.288   1.350   4.053  1.6103  1.4429 -4.4507
  132MOL    H3926501   0.009   1.449   4.096  1.0481  3.9838 -0.6995
  132MOL    H4026502   0.133   1.534   4.308  1.8479  0.0060  1.6901
  132MOL    H4126503   0.254   1.409   4.274  0.1187 -0.8942  0.8980
  132MOL    C4226504   0.079   1.328   4.367 -0.8795  0.3451  0.2532
  132MOL    C4326505   0.116   1.358   4.509  0.2120  0.1828 -0.0349
  132MOL    C4426506   0.164   1.267   4.595  0.3163 -0.2954 -0.0222
  132MOL    C4526507   0.190   1.293   4.744 -0.1188  0.2117  1.1309
  132MOL    H4626508   7.949   1.329   4.349 -0.7656  2.8292 -0.5896
  132MOL    H4726509   0.109   1.232   4.325  0.9835  0.9624  0.1329
  132MOL    H4826510   0.102   1.458   4.545  0.9292  0.2190  0.1587
  132MOL    H4926511   0.170   1.165   4.559  0.0550 -0.9559  1.7829
  132MOL    H5026512   0.140   1.220   4.807  1.7259 -2.5837 -0.5407
  132MOL    H5126513   0.143   1.385   4.778 -0.8098 -0.1433  1.1409
  132MOL    C5226514   0.344   1.297   4.771 -0.1392 -0.1717 -0.9985
  132MOL    C5326515   0.404   1.157   4.780  0.1372 -0.3920 -0.4153
  132MOL    C5426516   0.404   1.095   4.901  0.5077  0.5335  0.2076
  132MOL    C5526517   0.454   0.956   4.915  0.6137  0.4794  0.5211
  132MOL    H5626518   0.399   1.358   4.700  0.2324  0.2791 -0.3372
  132MOL    H5726519   0.370   1.342   4.868  1.0855 -2.9588  0.0251
  132MOL    H5826520   0.443   1.106   4.694  2.2239  2.6725 -1.3849
  132MOL    H5926521   0.360   1.143   4.986 -1.7487 -1.6848  0.3492
  132MOL    H6026522   0.495   0.928   4.817 -1.5016  0.6183 -0.4409
  132MOL    H6126523   0.373   0.887   4.941  0.4214 -0.2746 -1.8531
  132MOL    C6226524   0.559   0.948   5.028 -0.2063 -0.0994 -0.6491
  132MOL    C6326525   0.616   0.808   5.027  0.6639  0.7318 -0.6233
  132MOL    C6426526   0.602   0.718   5.125  0.3255  0.0219 -0.1488
  132MOL    C6526527   0.673   0.590   5.127 -0.5411  0.4148 -0.2467
  132MOL    H6626528   0.651   1.005   5.017  0.4532 -0.9602  0.2424
  132MOL    H6726529   0.520   0.968   5.128 -1.0955  1.3973 -1.2839
  132MOL    H6826530   0.673   0.773   4.943 -1.1121 -3.2892 -0.3071
  132MOL    H6926531   0.544   0.743   5.212 -1.0123 -0.7073 -0.8112
  132MOL    H7026532   0.753   0.586   5.053 -0.8179 -2.2423 -0.4672
  132MOL    H7126533   0.596   0.517   5.101 -1.3384  1.3294 -0.4688
  132MOL    C7226534   0.737   0.576   5.261  0.3462  1.4553 -0.3381
  132MOL    C7326535   0.824   0.453   5.250 -0.3969 -0.1630 -0.3784
  132MOL    C7426536   0.957   0.454   5.252 -1.0687 -0.5134  0.7206
  132MOL    C7526537   1.035   0.331   5.221  0.1791  0.2631 -0.2726
  132MOL    H7626538   0.797   0.663   5.287  0.4294  2.1358 -2.6685
  132MOL    H7726539   0.669   0.549   5.341  0.0853  0.4505 -0.8880
  132MOL    H7826540   0.777   0.356   5.239 -0.5143 -0.3726  1.6720
  132MOL    H7926541   1.018   0.542   5.266 -0.0441 -0.9620 -0.7544
  132MOL    H8026542   0.981   0.251   5.169 -1.3456  1.2640 -0.2645
  132MOL    H8126543   1.046   0.288   5.320  2.9079  0.6033 -0.3793
  132MOL    C8226544   1.164   0.364   5.147  0.2087 -0.1644  0.1707
  132MOL    C8326545   1.243   0.240   5.109 -0.0794  0.2477 -0.1558
  132MOL    C8426546   1.353   0.187   5.168 -0.1018  0.5664  0.5768
  132MOL    C8526547   1.427   0.059   5.126 -0.2457 -0.8746  0.0553
  132MOL    H8626548   1.134   0.419   5.058  0.2912  0.7656  0.7127
  132MOL    H8726549   1.234   0.420   5.208 -0.1073  0.5341 -0.1101
  132MOL    H8826550   1.209   0.183   5.024 -1.3031  0.5024  0.1526
  132MOL    H8926551   1.395   0.236   5.255 -1.3595  1.6400  0.5985
  132MOL    H9026552   1.368   0.006   5.051 -0.5719 -0.8018  0.2574
  132MOL    H9126553   1.433   7.975   5.216  1.1621  1.1168  1.3427
  132MOL    C9226554   1.566   0.088   5.065  0.5798  0.4505 -0.5199
  132MOL    C9326555   1.645   7.933   5.034  0.2848 -0.1867 -1.2754
  132MOL    C9426556   1.680   7.895   4.910  0.5400 -0.3009  0.0740
  132MOL    C9526557   1.742   7.761   4.877  0.3273  0.1209  0.1268
  132MOL    H9626558   1.546   0.142   4.973 -3.6513  0.4354  0.2688
  132MOL    H9726559   1.618   0.158   5.131  1.9002  0.6132 -1.7123
  132MOL    H9826560   1.660   7.858   5.111 -1.1972 -0.3414 -1.1273
  132MOL    H9926561   1.663   7.965   4.830 -2.9974 -1.4511 -0.2498
  132MOL   H10026562   1.738   7.696   4.965 -1.3917 -0.5156 -0.3939
  132MOL   H10126563   1.846   7.789   4.859 -0.1254  1.2345 -0.8291
  132MOL   C10226564   1.693   7.704   4.745  0.1273  0.6813  0.5630
  132MOL   C10326565   1.543   7.671   4.743 -0.4505 -0.0685 -0.4204
  132MOL   C10426566   1.479   7.550   4.741  0.3557  0.4022 -0.5748
  132MOL   C10526567   1.333   7.534   4.717 -0.5853 -0.1248  0.1524
  132MOL   H10626568   1.713   7.760   4.654  0.1997 -0.7953 -0.3447
  132MOL   H10726569   1.744   7.612   4.717 -2.2167 -0.3225 -0.5524
  132MOL   H10826570   1.483   7.758   4.720  0.7653 -0.3523 -5.0693
  132MOL   H10926571   1.539   7.461   4.757 -1.0900 -0.9096 -2.1726
  132MOL   H11026572   1.284   7.628   4.693  1.8842  0.8956 -1.0908
  132MOL   H11126573   1.288   7.494   4.807 -0.8486 -3.1821 -1.2724
  132MOL   C11226574   1.306   7.437   4.605  0.0898 -0.4063  0.2028
  132MOL   C11326575   1.164   7.399   4.602 -1.1784  0.4842  1.2020
  132MOL   C11426576   1.129   7.273   4.601  0.1747 -1.0388  0.5095
  132MOL   C11526577   0.981   7.234   4.584  0.2177  0.2094  0.9699
  132MOL   H11626578   1.339   7.466   4.506 -0.8773  1.2102  0.3360
  132MOL   H11726579   1.364   7.345   4.618  2.3739  1.0196  0.5046
  132MOL   H11826580   1.094   7.478   4.581 -1.7631 -0.4267 -0.3863
  132MOL   H11926581   1.198   7.192   4.618 -0.7099 -1.5815  1.5640
  132MOL   H12026582   0.957   7.222   4.478 -3.1360 -0.9355  1.7802
  132MOL   H12126583   0.930   7.325   4.617 -0.1903  0.6555 -0.8362
  132MOL   C12226584   0.945   7.123   4.679  0.2896  0.6526  0.0627
  132MOL   C12326585   0.804   7.072   4.654  0.1972 -0.1680  0.6553
  132MOL   C12426586   0.702   7.080   4.740 -0.4023  0.1459 -0.3476
  132MOL   C12526587   0.562   7.038   4.707  0.3928  0.1388 -0.2017
  132MOL   H12626588   1.016   7.043   4.658  1.1051  1.5776 -0.7601
  132MOL   H12726589   0.958   7.151   4.784  2.4261 -0.1976  0.0569
  132MOL   H12826590   0.779   7.042   4.554  1.3055  0.2165  0.2494
  132MOL   H12926591   0.711   7.097   4.846  1.2325 -0.4151 -0.3785
  132MOL   H13026592   0.548   7.035   4.598 -0.5052 -2.8525 -0.0491
  132MOL   H13126593   0.505   7.130   4.722  1.6866  1.1449 -1.3531
  132MOL   C13226594   0.517   6.914   4.781 -0.3869  0.6178 -0.7668
  132MOL   C13326595   0.388   6.859   4.736  0.9505  0.2914  0.1002
  132MOL   C13426596   0.280   6.827   4.817 -0.2026 -0.4669  0.1572
  132MOL   C13526597   0.151   6.764   4.765 -0.2379  0.5239 -0.1006
  132MOL   H13626598   0.597   6.845   4.758 -0.3111  0.6825 -0.6981
  132MOL   H13726599   0.518   6.929   4.889 -0.2197  0.0229 -0.6854
  132MOL   H13826600   0.379   6.848   4.629  1.7658 -0.1919  0.0820
  132MOL   H13926601   0.285   6.842   4.924 -0.3343  0.4391  0.0450
  132MOL   H14026602   0.137   6.663   4.805  3.6350  0.1120  0.4029
  132MOL   H14126603   0.160   6.749   4.658  1.7200 -1.6486  0.3190
  132MOL   C14226604   0.028   6.861   4.781  0.1808  0.3220  0.8628
  132MOL   C14326605   7.898   6.812   4.690  0.1196  0.5930  0.0742
  132MOL   C14426606   7.782   6.754   4.724  0.0040  0.4612  0.1917
  132MOL   C14526607   7.664   6.706   4.641  0.2307 -0.5212 -0.5830
  132MOL   H14626608   0.000   6.865   4.887  1.7282  2.1327  1.2412
  132MOL   H14726609   0.053   6.965   4.759 -1.4665  0.8407  1.3044
  132MOL   H14826610   7.912   6.834   4.585 -0.6059  1.6976  0.2025
  132MOL   H14926611   7.761   6.729   4.826 -3.5015  1.1742 -0.3082
  132MOL   H15026612   7.641   6.600   4.650 -2.8299  0.3356  3.6023
  132MOL   H15126613   7.674   6.721   4.534  0.1345 -0.6704 -0.6115
  132MOL   C15226614   7.535   6.771   4.691  1.2148  0.1820  0.6958
  132MOL   C15326615   7.415   6.749   4.604  0.5482  0.2215 -0.0553
  132MOL   C15426616   7.310   6.834   4.602  0.3682  0.0678 -0.3281
  132MOL   C15526617   7.194   6.838   4.505  0.3140  1.1174 -0.3321
  132MOL   H15626618   7.521   6.731   4.791  0.1249 -0.0606  0.4522
  132MOL   H15726619   7.550   6.878   4.709  2.1435  0.5059 -1.7229
  132MOL   H15826620   7.420   6.662   4.540  1.1162 -1.2418  1.9336
  132MOL   H15926621   7.301   6.911   4.677 -0.2616  2.6926 -2.9635
  132MOL   H16026622   7.218   6.807   4.404 -2.6222  0.6797 -0.9576
  132MOL   H16126623   7.150   6.938   4.495 -2.5491 -0.1148 -0.6063
  132MOL   C16226624   7.082   6.750   4.565 -0.2852 -0.9117  0.2543
  132MOL   C16326625   6.963   6.766   4.470  0.1107  1.1582 -0.6254
  132MOL   C16426626   6.909   6.664   4.400  0.1298 -0.7789 -0.9231
  132MOL   C16526627   6.790   6.683   4.308 -1.0457  0.1060  0.2381
  132MOL   H16626628   7.112   6.646   4.579 -0.5150 -0.9653  0.3556
  132MOL   H16726629   7.071   6.786   4.667 -0.3002 -2.4403  0.8125
  132MOL   H16826630   6.917   6.862   4.452 -1.5359  0.3357 -0.8611
  132MOL   H16926631   6.951   6.565   4.409 -0.9372 -0.9625  3.1946
  132MOL   H17026632   6.762   6.788   4.319 -0.4104  0.4109 -0.9185
  132MOL   H17126633   6.716   6.607   4.331 -0.8098 -1.3862 -3.5657
  132MOL   C17226634   6.827   6.659   4.160 -0.7682  0.4616  0.6774
  132MOL   C17326635   6.891   6.778   4.091  0.2197 -0.1922 -0.1555
  132MOL   C17426636   7.005   6.762   4.023  0.4580  0.1438 -0.5776
  132MOL   C17526637   7.081   6.870   3.950  0.4448  0.0245  0.2858
  132MOL   H17626638   6.895   6.575   4.144 -0.6516  0.7779 -0.6097
  132MOL   H17726639   6.732   6.641   4.110  0.4294 -2.4706 -0.6792
  132MOL   H17826640   6.832   6.869   4.097 -0.2789 -0.3938 -1.8487
  132MOL   H17926641   7.053   6.665   4.017 -0.7804 -0.5594  0.4998
  132MOL   H18026642   7.110   6.830   3.853 -0.7802  0.1716 -0.1500
  132MOL   H18126643   7.171   6.900   4.004  1.6775 -0.9011 -1.2229
  132MOL   C18226644   7.003   7.007   3.927  0.3029  0.6981 -0.2994
  132MOL   C18326645   7.065   7.084   3.813  0.9068  0.3226 -0.4092
  132MOL   C18426646   7.147   7.188   3.826  0.7504  0.5873  0.5596
  132MOL   C18526647   7.206   7.259   3.699  0.5971  0.0086 -0.6986
  132MOL   H18626648   6.897   6.988   3.913  0.9661 -3.9726  0.0711
  132MOL   H18726649   7.020   7.057   4.023  1.7792 -0.1407 -0.0975
  132MOL   H18826650   7.036   7.043   3.717 -1.4531  1.1241 -0.0490
  132MOL   H18926651   7.187   7.230   3.917  0.8783 -0.8213  1.1724
  132MOL   H19026652   7.198   7.367   3.715  0.1406  0.0926 -1.4890
  132MOL   H19126653   7.146   7.237   3.612 -0.6620 -1.5513  0.5411
  132MOL   C19226654   7.351   7.216   3.675  0.2937 -0.0474  0.0956
  132MOL   C19326655   7.389   7.251   3.534  0.7040  0.5133 -0.2407
  132MOL   C19426656   7.453   7.173   3.447 -0.2425 -0.3756  0.9280
  132MOL   C19526657   7.477   7.207   3.302  0.3589 -0.5809  0.2673
  132MOL   H19626658   7.421   7.271   3.737  0.9984 -0.5065 -0.2899
  132MOL   H19726659   7.357   7.109   3.694 -0.9729 -0.2557 -0.5617
  132MOL   H19826660   7.359   7.351   3.507  0.5998  0.3558 -0.7013
  132MOL   H19926661   7.488   7.073   3.467 -0.2222 -0.9293 -1.6590
  132MOL   H20026662   7.576   7.169   3.275  0.8266 -1.0762  2.6152
  132MOL   H20126663   7.459   7.312   3.276  1.4982 -0.7488 -1.3185
  132MOL   H20226664   7.406   7.146   3.247  0.0326 -0.8396  0.9741
  133MOL     C126665   4.218   6.181   2.132  0.2166  0.1235 -0.4415
  133MOL     C226666   4.275   6.227   2.000  0.5755 -0.8136  0.2599
  133MOL     C326667   4.277   6.353   1.960 -0.0021 -0.0996 -0.1136
  133MOL     C426668   4.339   6.397   1.831  0.2353 -0.3097  0.4161
  133MOL     H526669   4.201   6.073   2.126 -0.9401  0.2609  0.1938
  133MOL     H626670   4.122   6.221   2.163  0.0572  0.2208 -1.0643
  133MOL     H726671   4.314   6.148   1.939  1.8168  1.6932 -2.3298
  133MOL     H826672   4.233   6.420   2.032  2.1918  0.0290  1.1596
  133MOL     H926673   4.340   6.305   1.773 -0.3922  0.2753 -0.5334
  133MOL    H1026674   4.442   6.434   1.834 -0.0618  0.3693  4.2429
  133MOL    H1126675   4.281   6.187   2.221 -0.4447 -1.3635  0.1456
  133MOL    C1226676   4.261   6.511   1.751  0.3008  0.3032 -0.0988
  133MOL    C1326677   4.348   6.592   1.652 -0.3383  0.4343  0.0572
  133MOL    C1426678   4.326   6.719   1.623 -0.2755  0.1396  0.5301
  133MOL    C1526679   4.414   6.795   1.514  0.0133 -0.1706 -0.4634
  133MOL    H1626680   4.166   6.474   1.713 -0.0131  0.2373  0.7310
  133MOL    H1726681   4.228   6.584   1.825 -0.9898  0.1554 -0.5200
  133MOL    H1826682   4.419   6.538   1.591  1.0690  1.2895  0.9145
  133MOL    H1926683   4.251   6.771   1.679 -0.3574  0.7261 -0.1231
  133MOL    H2026684   4.348   6.844   1.443  1.0526 -0.4486 -1.6348
  133MOL    H2126685   4.474   6.718   1.467  0.6158 -0.5054  0.8297
  133MOL    C2226686   4.518   6.886   1.568 -0.4852 -0.5925  0.2002
  133MOL    C2326687   4.592   6.949   1.455  0.6041  0.1343 -0.0624
  133MOL    C2426688   4.720   6.929   1.425 -0.5613  0.2865  0.6247
  133MOL    C2526689   4.789   6.976   1.299  0.1621  0.6600 -0.3687
  133MOL    H2626690   4.467   6.963   1.625  0.3358  1.1314 -1.3554
  133MOL    H2726691   4.600   6.846   1.629  0.0771  0.3849  0.0853
  133MOL    H2826692   4.540   7.012   1.384 -1.5300  1.2677  2.4467
  133MOL    H2926693   4.776   6.864   1.491 -1.8467 -0.7943  0.6764
  133MOL    H3026694   4.717   7.023   1.234 -1.1915 -0.8135  0.0389
  133MOL    H3126695   4.818   6.877   1.262 -0.4474  1.0247 -1.8462
  133MOL    C3226696   4.911   7.063   1.330 -0.3065 -0.2714 -0.0530
  133MOL    C3326697   4.940   7.154   1.207 -0.4080  0.5338  0.0842
  133MOL    C3426698   5.041   7.129   1.124 -0.0062  0.2482 -0.0600
  133MOL    C3526699   5.073   7.208   1.005  0.0952  0.3714  0.1864
  133MOL    H3626700   4.896   7.130   1.415 -0.4429  0.9820 -1.0548
  133MOL    H3726701   4.999   7.005   1.360 -0.5156 -1.0639 -0.9484
  133MOL    H3826702   4.881   7.241   1.178  0.7623  1.4188  0.3228
  133MOL    H3926703   5.114   7.050   1.138  0.4801  0.9310  1.3238
  133MOL    H4026704   4.978   7.250   0.970 -0.0996 -0.8232 -0.7546
  133MOL    H4126705   5.113   7.149   0.923 -0.8690 -1.1341  0.7895
  133MOL    C4226706   5.165   7.324   1.044  0.2205 -0.1196 -0.0516
  133MOL    C4326707   5.103   7.426   1.135  0.4662  0.6845 -0.2220
  133MOL    C4426708   5.159   7.499   1.235 -0.2564  0.0774  0.2935
  133MOL    C4526709   5.082   7.597   1.315 -0.0899  0.0451 -0.1077
  133MOL    H4626710   5.251   7.277   1.092  0.8915  0.0788 -1.0492
  133MOL    H4726711   5.195   7.373   0.951  1.9296 -1.3416 -0.1749
  133MOL    H4826712   4.996   7.434   1.123  0.3468 -0.3776  0.0823
  133MOL    H4926713   5.265   7.481   1.251 -0.2913 -1.1871 -0.8177
  133MOL    H5026714   5.074   7.569   1.420  3.5321  1.0679  0.5343
  133MOL    H5126715   4.987   7.606   1.263 -0.9592 -2.5091  0.9960
  133MOL    C5226716   5.135   7.741   1.317 -0.0962  0.1415 -0.2475
  133MOL    C5326717   5.202   7.795   1.198 -0.6458  0.7660  0.6863
  133MOL    C5426718   5.319   7.871   1.203  0.3722 -0.1917  0.0801
  133MOL    C5526719   5.374   7.944   1.081 -0.0191 -0.3727 -0.4568
  133MOL    H5626720   5.049   7.803   1.342  1.1877  2.0842 -0.5402
  133MOL    H5726721   5.205   7.755   1.399  2.1017 -2.7076 -1.5327
  133MOL    H5826722   5.149   7.771   1.107 -1.6753  4.5593  0.2263
  133MOL    H5926723   5.364   7.893   1.299  0.8519  1.0104 -0.4081
  133MOL    H6026724   5.362   0.072   1.105  1.1387 -0.5220  0.8139
  133MOL    H6126725   5.323   7.919   0.988 -0.8226  0.5202 -0.2644
  133MOL    C6226726   5.524   7.927   1.066 -0.2237  0.0793 -0.1908
  133MOL    C6326727   5.565   0.023   0.943 -0.1397 -0.0942 -0.4658
  133MOL    C6426728   5.600   7.931   0.833 -0.2263  0.3054 -0.1208
  133MOL    C6526729   5.645   0.005   0.695 -0.4639 -0.0492 -0.5148
  133MOL    H6626730   5.580   7.976   1.146  0.3621  2.3008 -1.9323
  133MOL    H6726731   5.547   7.821   1.080  0.7467 -0.0228 -2.4662
  133MOL    H6826732   5.568   0.131   0.938 -1.3217 -0.1055 -1.8117
  133MOL    H6926733   5.598   7.823   0.839  0.9321  0.2299 -0.9445
  133MOL    H7026734   5.638   0.113   0.701 -2.8235 -0.2191  0.5375
  133MOL    H7126735   5.559   7.961   0.631 -0.4533 -1.4136 -0.1006
  133MOL    C7226736   5.789   7.922   0.669  0.2186 -0.1711 -0.0143
  133MOL    C7326737   5.883   0.012   0.765  0.3662 -0.3511 -1.1114
  133MOL    C7426738   5.978   7.915   0.832 -0.2626  0.6298  0.1327
  133MOL    C7526739   6.085   0.007   0.915 -0.0881  0.3430  0.4336
  133MOL    H7626740   5.778   7.818   0.700  2.1962 -0.6897 -0.9435
  133MOL    H7726741   5.824   7.914   0.566 -1.7063 -3.7018 -0.4833
  133MOL    H7826742   5.884   0.119   0.756 -1.2616 -0.2740 -0.5090
  133MOL    H7926743   5.973   7.807   0.837  1.3201  0.5430  0.0282
  133MOL    H8026744   6.053   7.968   1.018  1.2245 -0.3531  0.7449
  133MOL    H8126745   6.099   0.112   0.891  1.1118 -0.2394 -1.5583
  133MOL    C8226746   6.217   7.918   0.899  0.5945  0.5223 -0.3411
  133MOL    C8326747   6.332   0.021   0.956  0.5877  0.4471 -0.1083
  133MOL    C8426748   6.380   7.977   1.077 -0.1010  0.1977  0.4898
  133MOL    C8526749   6.501   0.080   1.123 -0.1432 -0.0453 -0.2847
  133MOL    H8626750   6.210   7.812   0.924 -0.8091  1.4068  3.4023
  133MOL    H8726751   6.225   7.915   0.791 -1.3409 -0.6486 -0.4751
  133MOL    H8826752   6.384   0.098   0.900  2.5911 -0.1832  0.8336
  133MOL    H8926753   6.326   7.914   1.146 -1.4946 -0.3840 -1.0919
  133MOL    H9026754   6.483   0.148   1.207  1.1624  0.1980 -0.1929
  133MOL    H9126755   6.520   0.154   1.045  1.8685  0.8799  1.0355
  133MOL    C9226756   6.616   7.969   1.168 -0.6194 -0.1266  0.1884
  133MOL    C9326757   6.601   7.904   1.301 -0.3511  0.2416  0.0383
  133MOL    C9426758   6.592   7.770   1.318  0.2727 -0.2504  0.1137
  133MOL    C9526759   6.562   7.695   1.447 -0.8367 -0.6979  0.2071
  133MOL    H9626760   6.647   7.899   1.090  0.9418 -1.4311  1.9653
  133MOL    H9726761   6.704   0.053   1.184 -0.8271 -0.2861  1.9832
  133MOL    H9826762   6.589   7.970   1.386  1.2802 -2.1838  2.2220
  133MOL    H9926763   6.599   7.714   1.226  0.5051 -0.2947  0.1602
  133MOL   H10026764   6.590   7.761   1.529 -0.0209 -1.7018  0.7478
  133MOL   H10126765   6.626   7.607   1.449 -0.0171 -0.1748 -1.4439
  133MOL   C10226766   6.405   7.673   1.458 -0.1789  0.1472 -0.2328
  133MOL   C10326767   6.321   7.801   1.483 -0.0667  0.1504 -0.3725
  133MOL   C10426768   6.218   7.851   1.410 -0.2351 -0.4778  0.5076
  133MOL   C10526769   6.145   0.003   1.455 -0.2130 -0.2198 -0.0229
  133MOL   H10626770   6.358   7.627   1.371 -1.4730  0.5307  0.2609
  133MOL   H10726771   6.383   7.604   1.540 -0.6141  1.7709  1.0278
  133MOL   H10826772   6.358   7.857   1.569 -0.3537 -0.5616  0.2211
  133MOL   H10926773   6.177   7.796   1.326  0.2407 -1.8600  1.1527
  133MOL   H11026774   6.171   0.055   1.547 -0.4344  0.3789 -0.2962
  133MOL   H11126775   6.047   7.939   1.480 -0.8571  1.4340  0.2765
  133MOL   C11226776   6.128   0.108   1.338 -0.2484  0.2045  0.3159
  133MOL   C11326777   6.057   0.238   1.369 -0.6065 -0.1492  0.0327
  133MOL   C11426778   6.115   0.355   1.409  0.3380 -0.4076  0.2935
  133MOL   C11526779   6.033   0.467   1.468 -0.4188  0.2406  0.2414
  133MOL   H11626780   6.226   0.133   1.296 -0.9143  1.6007 -0.4280
  133MOL   H11726781   6.087   0.072   1.244  0.4389  0.5872 -0.1340
  133MOL   H11826782   5.949   0.233   1.373 -0.7433  1.5255 -1.1534
  133MOL   H11926783   6.221   0.369   1.403  0.0936  0.5412 -2.1552
  133MOL   H12026784   5.931   0.429   1.473  0.0635 -1.1130 -0.0532
  133MOL   H12126785   6.030   0.550   1.398  2.1813 -0.3767 -0.6410
  133MOL   C12226786   6.088   0.519   1.601  0.8375 -0.4374 -0.0721
  133MOL   C12326787   6.044   0.416   1.710 -0.4134  0.1817 -0.0089
  133MOL   C12426788   5.993   0.455   1.828  0.0708  0.2197  0.5395
  133MOL   C12526789   5.945   0.361   1.933 -0.2437 -0.7599 -0.0947
  133MOL   H12626790   6.195   0.536   1.612  0.8551 -0.8625  0.4329
  133MOL   H12726791   6.058   0.620   1.629  0.1095 -0.7916  0.4400
  133MOL   H12826792   6.042   0.311   1.681  1.4594 -0.5763  2.4143
  133MOL   H12926793   6.009   0.559   1.855  0.0573  0.8707 -1.8596
  133MOL   H13026794   5.977   0.400   2.030 -0.2982 -0.3354 -0.2430
  133MOL   H13126795   6.002   0.270   1.919 -1.4983 -1.5828  0.0418
  133MOL   C13226796   5.798   0.333   1.939  0.0184  0.2467  0.1068
  133MOL   C13326797   5.754   0.258   2.060 -0.0793  0.2931 -0.3397
  133MOL   C13426798   5.650   0.282   2.137  0.3983  0.0953 -0.4940
  133MOL   C13526799   5.622   0.194   2.257  0.3282 -0.2930 -0.2377
  133MOL   H13626800   5.753   0.432   1.947 -0.9355 -0.3247  2.2490
  133MOL   H13726801   5.758   0.301   1.843 -0.1712  2.3976 -0.5606
  133MOL   H13826802   5.814   0.174   2.091 -0.9573 -0.3469 -0.3310
  133MOL   H13926803   5.578   0.359   2.111  1.3392  0.5345 -1.8498
  133MOL   H14026804   5.664   0.245   2.343 -1.2892  0.5533  0.0738
  133MOL   H14126805   5.669   0.096   2.244  2.4826  0.3920  2.0504
  133MOL   C14226806   5.473   0.165   2.273  0.3430  0.0774 -0.0027
  133MOL   C14326807   5.400   0.249   2.368 -0.1198  0.6217  0.2051
  133MOL   C14426808   5.301   0.216   2.457  0.4957 -0.6555  0.0322
  133MOL   C14526809   5.223   0.320   2.545  0.6285 -0.6207  0.1477
  133MOL   H14626810   5.430   0.162   2.173 -1.4653 -1.1144  0.7778
  133MOL   H14726811   5.461   0.065   2.314  2.3767  0.7428  2.3118
  133MOL   H14826812   5.432   0.352   2.357  0.9437  0.0287 -2.4007
  133MOL   H14926813   5.263   0.115   2.463  0.3858 -0.6795 -0.9923
  133MOL   H15026814   5.116   0.309   2.526  0.3446 -0.5555  1.6549
  133MOL   H15126815   5.249   0.421   2.511 -0.0001 -0.8146 -0.9374
  133MOL   C15226816   5.244   0.300   2.695 -0.0180  0.4123 -0.5086
  133MOL   C15326817   5.130   0.348   2.783 -0.5799 -0.0970 -0.1457
  133MOL   C15426818   5.141   0.447   2.873 -0.2154  0.3469 -0.4205
  133MOL   C15526819   5.044   0.485   2.982 -0.1949  0.3837 -0.3296
  133MOL   H15626820   5.276   0.196   2.706  1.9873  1.0746  0.0400
  133MOL   H15726821   5.328   0.365   2.716 -0.7065  1.1006  0.1566
  133MOL   H15826822   5.038   0.294   2.767 -0.9178  0.7651 -1.1596
  133MOL   H15926823   5.231   0.504   2.889 -1.0561  1.2920  1.0695
  133MOL   H16026824   5.026   0.402   3.050 -2.0306  1.3743  0.4532
  133MOL   H16126825   4.943   0.511   2.950  0.1718  0.8072 -1.1689
  133MOL   C16226826   5.094   0.613   3.061  0.6099 -0.2933  0.5236
  133MOL   C16326827   5.201   0.588   3.164 -0.2204 -0.3736  0.0979
  133MOL   C16426828   5.251   0.471   3.200  0.2913 -0.4256 -1.2099
  133MOL   C16526829   5.345   0.449   3.312  0.2333  0.4529  0.9256
  133MOL   H16626830   5.128   0.688   2.990 -0.4497 -1.0834 -0.8362
  133MOL   H16726831   5.015   0.656   3.121  0.9229  0.8587  0.1249
  133MOL   H16826832   5.228   0.679   3.217 -0.4665  0.5456 -1.3313
  133MOL   H16926833   5.210   0.382   3.154 -1.2342 -1.4719  2.0024
  133MOL   H17026834   5.386   0.546   3.338  2.5420 -0.9551  2.6834
  133MOL   H17126835   5.430   0.389   3.280 -0.2522  1.1085 -1.7351
  133MOL   C17226836   5.286   0.394   3.439 -0.0140 -0.1032  0.1309
  133MOL   C17326837   5.392   0.389   3.550 -0.6080  0.1412  0.2022
  133MOL   C17426838   5.509   0.454   3.562  0.7084  0.2937  0.5375
  133MOL   C17526839   5.596   0.434   3.683  0.3709 -0.1623 -0.4160
  133MOL   H17626840   5.187   0.433   3.462 -0.6044 -1.7875  0.5255
  133MOL   H17726841   5.272   0.287   3.420  1.1526 -0.6176  1.9624
  133MOL   H17826842   5.382   0.305   3.618  0.7835 -0.7806 -0.7007
  133MOL   H17926843   5.551   0.523   3.490  1.1781  0.1611  0.6887
  133MOL   H18026844   5.552   0.352   3.740 -1.6139 -0.6590 -2.5778
  133MOL   H18126845   5.592   0.528   3.738  0.0821 -0.5902  0.2969
  133MOL   C18226846   5.744   0.407   3.662  0.5283  0.0805 -0.1470
  133MOL   C18326847   5.771   0.305   3.562  0.3858 -0.8500  0.3249
  133MOL   C18426848   5.864   0.320   3.465  0.0864  0.1434 -0.5994
  133MOL   C18526849   5.877   0.224   3.346  0.1155  0.1042 -0.0537
  133MOL   H18626850   5.784   0.503   3.629  0.2649 -0.4415 -2.0484
  133MOL   H18726851   5.795   0.373   3.752  2.6075  0.7949 -1.0222
  133MOL   H18826852   5.714   0.213   3.561 -0.6715 -0.1958 -0.1277
  133MOL   H18926853   5.918   0.413   3.456 -0.0558  0.2630 -0.2110
  133MOL   H19026854   5.830   0.128   3.369 -1.5415  0.5206 -1.6052
  133MOL   H19126855   5.978   0.183   3.346 -0.0072 -0.2004  0.1534
  133MOL   C19226856   5.830   0.286   3.210  0.1717 -0.5247 -0.7518
  133MOL   C19326857   5.710   0.224   3.154 -0.3791 -0.4017  0.4346
  133MOL   C19426858   5.629   0.297   3.075  0.1206 -0.3924  0.0289
  133MOL   C19526859   5.493   0.251   3.003 -1.0822 -0.1546  0.2642
  133MOL   H19626860   5.823   0.393   3.227  0.0413 -0.4557 -1.2314
  133MOL   H19726861   5.911   0.261   3.142 -0.9997  0.3674 -2.5146
  133MOL   H19826862   5.684   0.122   3.179  2.1806 -1.1536  0.2190
  133MOL   H19926863   5.653   0.400   3.054  1.3528 -0.3102  1.7514
  133MOL   H20026864   5.414   0.325   3.017 -0.7746 -0.1399  2.1455
  133MOL   H20126865   5.467   0.149   3.030  0.5454 -0.7339 -0.2471
  133MOL   H20226866   5.516   0.245   2.897 -0.0565 -0.0645  0.4734
  134MOL     C126867   0.168   4.086   4.495 -0.2145 -0.5863  0.7501
  134MOL     C226868   0.181   4.224   4.424 -0.2357  0.2996  0.3119
  134MOL     C326869   0.116   4.258   4.311 -0.8448 -0.6124  0.0298
  134MOL     C426870   0.135   4.389   4.233  0.5213  0.3120  0.6832
  134MOL     H526871   0.096   4.028   4.437 -0.0383 -0.2117  0.1394
  134MOL     H626872   0.105   4.105   4.582 -0.6103 -0.5907  0.4670
  134MOL     H726873   0.246   4.300   4.466  0.4405  0.1572 -0.4510
  134MOL     H826874   0.043   4.188   4.272 -0.6657 -0.9981  0.3885
  134MOL     H926875   0.178   4.366   4.136 -0.2803  0.0863  0.3799
  134MOL    H1026876   0.200   4.464   4.279 -0.5532  1.6909 -0.0283
  134MOL    H1126877   0.258   4.033   4.526 -0.7629 -0.4738  2.5839
  134MOL    C1226878   0.001   4.462   4.214 -0.2263  0.0586  0.4571
  134MOL    C1326879   0.050   4.580   4.123  0.0521  0.2820  0.3816
  134MOL    C1426880   7.948   4.631   4.031 -0.0425 -0.5185  0.2789
  134MOL    C1526881   0.008   4.743   3.935  0.2244 -0.1206  0.4928
  134MOL    H1626882   7.912   4.393   4.162 -0.1579 -0.8936  1.6222
  134MOL    H1726883   7.926   4.509   4.299  0.9806 -1.1100  1.8594
  134MOL    H1826884   0.146   4.624   4.148  1.0702 -0.3388 -2.2458
  134MOL    H1926885   7.861   4.577   3.997  0.8188 -0.2506 -2.4811
  134MOL    H2026886   7.960   4.701   3.837 -1.0942  2.5472 -0.3458
  134MOL    H2126887   0.115   4.764   3.939  0.0899  0.6424  0.1280
  134MOL    C2226888   7.915   4.873   3.973 -0.2683  0.2521  0.1068
  134MOL    C2326889   7.923   4.982   3.871 -0.1192  0.6460 -0.1580
  134MOL    C2426890   7.831   5.004   3.774 -0.0972  0.2720 -0.2114
  134MOL    C2526891   7.845   5.119   3.672  0.4581 -0.0295  0.7558
  134MOL    H2626892   7.813   4.839   3.991  0.3259 -0.7351  1.7410
  134MOL    H2726893   7.956   4.914   4.065  2.3393 -0.6563 -0.6059
  134MOL    H2826894   0.022   5.054   3.896  0.2313 -0.0274  0.7425
  134MOL    H2926895   7.750   4.934   3.761  0.5904 -0.6676  0.5047
  134MOL    H3026896   7.741   5.144   3.651  0.2265 -0.7423  1.0329
  134MOL    H3126897   7.878   5.083   3.575  0.9549  1.0648  0.5137
  134MOL    C3226898   7.938   5.236   3.698 -0.9726  0.1066 -0.0133
  134MOL    C3326899   7.897   5.374   3.645 -0.7880 -0.0289 -0.0676
  134MOL    C3426900   7.884   5.482   3.721 -0.7700  1.0144 -0.5986
  134MOL    C3526901   7.847   5.611   3.661 -0.1151  0.5897 -0.2200
  134MOL    H3626902   7.957   5.240   3.806  1.3550  0.3396 -0.3988
  134MOL    H3726903   0.062   5.217   3.661  0.1117  2.4969  1.5829
  134MOL    H3826904   7.859   5.367   3.544 -0.2177 -1.8230 -0.1697
  134MOL    H3926905   7.908   5.489   3.826 -0.3212  3.8074 -0.8619
  134MOL    H4026906   7.816   5.599   3.557  1.8483 -0.0506 -0.7648
  134MOL    H4126907   7.934   5.675   3.653 -0.7004  1.4343  0.1666
  134MOL    C4226908   7.752   5.695   3.751  0.6565 -0.2543  0.1138
  134MOL    C4326909   7.687   5.803   3.675 -0.7884  0.2321  0.5541
  134MOL    C4426910   7.688   5.927   3.725  0.1992 -0.5318 -0.3127
  134MOL    C4526911   7.625   6.052   3.658 -0.0327 -0.0197 -0.6002
  134MOL    H4626912   7.671   5.630   3.784  0.8206 -0.6718 -0.3014
  134MOL    H4726913   7.801   5.728   3.842  1.1531  1.7245 -0.8388
  134MOL    H4826914   7.643   5.790   3.577  1.2406 -0.9654 -0.2232
  134MOL    H4926915   7.740   5.953   3.816  0.3675  3.0913 -1.3640
  134MOL    H5026916   7.548   6.022   3.586 -0.1600 -1.1770  0.0190
  134MOL    H5126917   7.704   6.095   3.597 -0.9086  0.6459 -1.2916
  134MOL    C5226918   7.574   6.167   3.749  0.2838 -0.5004 -0.2139
  134MOL    C5326919   7.677   6.226   3.840  0.8891  0.9348 -0.4452
  134MOL    C5426920   7.708   6.351   3.854  0.1529  0.3663  0.2314
  134MOL    C5526921   7.800   6.415   3.960 -0.0384  0.0998 -0.0836
  134MOL    H5626922   7.540   6.244   3.680 -1.4830 -0.8704  0.2321
  134MOL    H5726923   7.487   6.125   3.799 -0.8384  1.0193 -0.8646
  134MOL    H5826924   7.714   6.158   3.915 -1.5809 -2.8547 -2.4994
  134MOL    H5926925   7.652   6.414   3.787 -0.6610  0.9652  1.4463
  134MOL    H6026926   7.738   6.476   4.025  0.5800  2.5288 -1.6999
  134MOL    H6126927   7.852   6.497   3.908 -2.4120  1.9653  0.4055
  134MOL    C6226928   7.897   6.334   4.040 -0.2832  0.3833  0.2465
  134MOL    C6326929   0.024   6.260   3.946 -0.2076 -0.8556  0.0175
  134MOL    C6426930   0.021   6.129   3.921 -0.4078  0.0601 -0.0532
  134MOL    C6526931   0.100   6.057   3.817  0.2440 -0.9891 -0.4359
  134MOL    H6626932   7.959   6.391   4.109  0.3541  1.8318 -1.4671
  134MOL    H6726933   7.830   6.261   4.085 -0.4065 -0.9639 -2.0478
  134MOL    H6826934   0.097   6.317   3.891 -0.2897 -1.7962 -1.0981
  134MOL    H6926935   7.918   6.079   3.974  0.0627 -0.9580 -0.2791
  134MOL    H7026936   0.181   6.114   3.773 -0.3010 -0.8941 -1.3322
  134MOL    H7126937   0.030   6.034   3.736 -0.1407 -2.3325  0.2467
  134MOL    C7226938   0.140   5.922   3.891  0.2243 -0.1148 -0.7178
  134MOL    C7326939   0.233   5.831   3.813 -0.0222  0.9547 -0.4984
  134MOL    C7426940   0.221   5.698   3.784 -0.0127 -0.4850  0.1557
  134MOL    C7526941   0.312   5.613   3.704  0.7211 -0.1036 -0.3991
  134MOL    H7626942   0.194   5.941   3.984 -3.0402  0.1386  1.1847
  134MOL    H7726943   0.056   5.860   3.921  1.8614 -1.2925  1.5978
  134MOL    H7826944   0.311   5.886   3.764  1.0329  2.2149  2.4356
  134MOL    H7926945   0.131   5.644   3.811 -0.4010 -0.0501 -0.2608
  134MOL    H8026946   0.408   5.660   3.687  0.1233  1.2449 -0.1171
  134MOL    H8126947   0.263   5.592   3.609 -0.2732 -0.0334  0.0838
  134MOL    C8226948   0.352   5.475   3.766  0.1124  0.3850 -0.2944
  134MOL    C8326949   0.429   5.396   3.667 -0.0547 -0.7589 -0.1306
  134MOL    C8426950   0.545   5.333   3.695  0.6117  0.1843  0.4370
  134MOL    C8526951   0.620   5.253   3.602  0.0322  0.1555  0.6273
  134MOL    H8626952   0.409   5.480   3.858 -2.4563 -2.1107  1.5388
  134MOL    H8726953   0.263   5.412   3.778 -0.1247  1.0150  1.2416
  134MOL    H8826954   0.375   5.386   3.574 -1.5942 -0.5250  0.7368
  134MOL    H8926955   0.592   5.343   3.791  2.5199 -1.0659 -0.3398
  134MOL    H9026956   0.713   5.309   3.595  0.7885 -1.1728 -0.1800
  134MOL    H9126957   0.567   5.252   3.507 -0.3525 -1.2340  0.8457
  134MOL    C9226958   0.648   5.108   3.655  0.1624 -0.3208  0.4241
  134MOL    C9326959   0.524   5.015   3.666 -0.3234 -0.1609 -0.4662
  134MOL    C9426960   0.397   5.049   3.626  0.5410 -0.5354 -0.2065
  134MOL    C9526961   0.276   4.957   3.653 -0.0084  0.1442  0.2756
  134MOL    H9626962   0.724   5.047   3.605 -0.1948  0.1787 -0.7415
  134MOL    H9726963   0.709   5.115   3.745 -0.1942  0.7830  0.5903
  134MOL    H9826964   0.548   4.928   3.724 -0.0213 -0.0141 -0.3682
  134MOL    H9926965   0.374   5.146   3.583  1.7718 -0.5539 -0.9335
  134MOL   H10026966   0.214   5.001   3.731 -0.6991  2.1915 -1.3715
  134MOL   H10126967   0.311   4.859   3.686 -1.4154 -0.6684 -0.6355
  134MOL   C10226968   0.195   4.946   3.530  0.0043 -0.4401  0.1964
  134MOL   C10326969   0.088   4.839   3.542  0.6279  0.4988  0.2675
  134MOL   C10426970   0.002   4.802   3.440 -0.0886  0.8604 -0.0696
  134MOL   C10526971   7.865   4.711   3.455  0.1957  0.5118  0.3736
  134MOL   H10626972   0.149   5.038   3.494  0.3841  0.7614  2.6813
  134MOL   H10726973   0.263   4.915   3.451  0.9318 -0.0540  0.8348
  134MOL   H10826974   0.091   4.794   3.640  1.6729  4.3315  2.0848
  134MOL   H10926975   0.015   4.850   3.344 -0.6327  0.0341 -0.5603
  134MOL   H11026976   7.854   4.682   3.559 -1.6908  0.7998  0.2654
  134MOL   H11126977   7.874   4.620   3.396  0.5631 -0.5674  2.0864
  134MOL   C11226978   7.740   4.776   3.400 -0.0420 -0.6619  0.2657
  134MOL   C11326979   7.618   4.696   3.437  0.5996  0.7193 -0.7368
  134MOL   C11426980   7.510   4.741   3.508  0.3998  0.2106  0.2253
  134MOL   C11526981   7.399   4.650   3.553 -0.2718  0.6250 -0.3168
  134MOL   H11626982   7.738   4.881   3.430  0.0798 -1.2660  2.4297
  134MOL   H11726983   7.750   4.772   3.291 -0.3259 -0.4074  0.2299
  134MOL   H11826984   7.626   4.590   3.419  1.3566  1.1417 -2.9770
  134MOL   H11926985   7.504   4.843   3.543  0.0835  0.2337  0.1082
  134MOL   H12026986   7.391   4.661   3.661 -2.5121 -2.2022 -0.1339
  134MOL   H12126987   7.429   4.547   3.532  0.1709  1.1156 -2.1325
  134MOL   C12226988   7.274   4.678   3.472 -0.0891  0.2323  0.7214
  134MOL   C12326989   7.155   4.622   3.533  0.4682  0.4024 -0.4322
  134MOL   C12426990   7.041   4.682   3.557  0.0508  0.9182 -0.5913
  134MOL   C12526991   6.931   4.637   3.655 -0.0381 -0.0055 -0.7865
  134MOL   H12626992   7.252   4.785   3.465  0.7276  0.3250 -0.8046
  134MOL   H12726993   7.282   4.657   3.365 -1.5480 -0.5647  0.7564
  134MOL   H12826994   7.169   4.528   3.585 -0.8188  0.5669  0.2323
  134MOL   H12926995   7.019   4.777   3.510 -0.4975  1.9561  1.6849
  134MOL   H13026996   6.961   4.697   3.740  0.5374 -2.9683  1.1847
  134MOL   H13126997   6.933   4.532   3.686  3.2386  0.1526 -0.2800
  134MOL   C13226998   6.788   4.672   3.596 -0.2087  0.0389 -0.5412
  134MOL   C13326999   6.685   4.692   3.706 -0.5209  0.6888  0.2222
  134MOL   C13427000   6.559   4.652   3.695 -0.5418 -0.8798 -0.3499
  134MOL   C13527001   6.444   4.687   3.791  0.5801 -0.7293 -0.4597
  134MOL   H13627002   6.804   4.768   3.548 -1.9043  0.9201  0.5902
  134MOL   H13727003   6.747   4.608   3.518  1.3093  0.3889 -1.6365
  134MOL   H13827004   6.713   4.757   3.788 -0.9662  2.8625 -1.2779
  134MOL   H13927005   6.537   4.583   3.615  0.7746  0.2556 -1.7266
  134MOL   H14027006   6.462   4.782   3.843 -4.1137  0.4090 -0.6674
  134MOL   H14127007   6.435   4.612   3.870  0.7097  1.0108  1.2456
  134MOL   C14227008   6.317   4.696   3.706 -0.5085 -0.1932  0.7886
  134MOL   C14327009   6.205   4.753   3.786 -0.1188  0.0551  0.0866
  134MOL   C14427010   6.087   4.691   3.820  0.1568  0.3736  0.1602
  134MOL   C14527011   5.969   4.760   3.896 -0.1144 -0.4606 -0.2556
  134MOL   H14627012   6.334   4.767   3.625  0.2880 -1.5211 -0.2226
  134MOL   H14727013   6.282   4.601   3.666  0.6619 -0.5826  0.6822
  134MOL   H14827014   6.196   4.861   3.791 -2.0273 -0.0787  0.0992
  134MOL   H14927015   6.067   4.588   3.796 -1.9002  1.1051 -1.4082
  134MOL   H15027016   6.000   4.860   3.928 -0.7559 -0.2673 -0.2403
  134MOL   H15127017   5.969   4.721   3.998 -0.5734  0.0298 -0.0692
  134MOL   C15227018   5.822   4.762   3.837 -0.4473  0.0282 -0.5550
  134MOL   C15327019   5.729   4.863   3.904  0.2065  0.4961 -0.3221
  134MOL   C15427020   5.601   4.844   3.945  0.6074 -0.0085 -0.4980
  134MOL   C15527021   5.504   4.943   4.014  0.8736  0.2828 -0.7557
  134MOL   H15627022   5.827   4.782   3.730 -0.5560  1.2511 -0.3391
  134MOL   H15727023   5.777   4.663   3.848 -0.0333  0.1580  2.5189
  134MOL   H15827024   5.771   4.960   3.927  3.2213 -1.3155  2.3271
  134MOL   H15927025   5.561   4.745   3.924 -1.0958  0.7899 -1.1624
  134MOL   H16027026   5.547   5.043   4.028 -0.7185  0.7716  0.8184
  134MOL   H16127027   5.489   4.911   4.117  0.6466  0.0310 -0.8665
  134MOL   C16227028   5.370   4.969   3.945 -0.5456  0.6201  0.0886
  134MOL   C16327029   5.308   5.092   3.995  0.0307 -0.2508 -0.2755
  134MOL   C16427030   5.216   5.096   4.091 -0.2020 -0.0564  0.5760
  134MOL   C16527031   5.167   5.221   4.161  0.1626 -0.7846 -0.3626
  134MOL   H16627032   5.380   4.981   3.837 -0.9687 -2.9385 -0.4036
  134MOL   H16727033   5.300   4.889   3.971  2.4832 -2.1436  0.0298
  134MOL   H16827034   5.352   5.186   3.966 -4.0885  2.0164  0.4592
  134MOL   H16927035   5.168   5.006   4.127 -0.8847  0.7720  1.7954
  134MOL   H17027036   5.065   5.252   4.138 -0.0230 -0.8381  0.3703
  134MOL   H17127037   5.224   5.297   4.109  0.0650 -2.5498 -3.1561
  134MOL   C17227038   5.193   5.214   4.310  0.2009  0.7075 -0.5611
  134MOL   C17327039   5.151   5.341   4.389 -0.3369 -0.6806  0.0212
  134MOL   C17427040   5.239   5.424   4.433 -0.3963 -0.5539  0.0332
  134MOL   C17527041   5.209   5.552   4.499  0.3706 -0.1777  0.5042
  134MOL   H17627042   5.153   5.130   4.365 -0.5471  1.9663  0.8432
  134MOL   H17727043   5.300   5.194   4.313 -0.2912 -2.1801 -1.1522
  134MOL   H17827044   5.044   5.355   4.393 -0.1149  1.6818 -0.9526
  134MOL   H17927045   5.343   5.395   4.424 -0.3172 -0.9578  2.0573
  134MOL   H18027046   5.166   5.628   4.434  2.3411 -0.4523 -1.1853
  134MOL   H18127047   5.307   5.594   4.523  0.9146 -0.6814 -0.7536
  134MOL   C18227048   5.125   5.543   4.633 -0.3445 -0.2781 -0.8883
  134MOL   C18327049   5.102   5.678   4.701  0.0258  0.2945 -0.0573
  134MOL   C18427050   5.149   5.711   4.819  0.0869  0.2703 -0.5157
  134MOL   C18527051   5.122   5.849   4.883  0.0337  0.3529 -0.0176
  134MOL   H18627052   5.026   5.504   4.609 -0.6146 -1.1239  1.5050
  134MOL   H18727053   5.165   5.472   4.705 -1.2999  1.8533  1.7961
  134MOL   H18827054   5.031   5.737   4.645 -1.3473 -1.4963 -0.2685
  134MOL   H18927055   5.227   5.657   4.872 -1.7624 -1.9048  0.0316
  134MOL   H19027056   5.060   5.832   4.971  1.2750  1.2197  1.0349
  134MOL   H19127057   5.060   5.899   4.809 -1.5559 -1.0778  0.3163
  134MOL   C19227058   5.250   5.930   4.933  0.0691 -0.4645 -0.1816
  134MOL   C19327059   5.217   6.030   5.044 -0.0562  0.5999  0.5427
  134MOL   C19427060   5.268   6.013   5.168  0.0329 -0.3657  0.2556
  134MOL   C19527061   5.260   6.119   5.283 -0.1084 -0.5287  0.4496
  134MOL   H19627062   5.332   5.870   4.973  1.1466  1.1172  0.0403
  134MOL   H19727063   5.290   5.994   4.854  3.1535 -0.5408  1.2542
  134MOL   H19827064   5.160   6.118   5.018  0.0517  0.3648 -0.4972
  134MOL   H19927065   5.337   5.932   5.182 -0.5689 -0.7935  0.7926
  134MOL   H20027066   5.210   6.073   5.367 -0.3113 -0.3896  0.4066
  134MOL   H20127067   5.209   6.212   5.258  3.0775  1.6034  1.4519
  134MOL   H20227068   5.356   6.149   5.326 -0.1899 -1.2457  1.1320
  135MOL     C127069   0.193   7.062   4.507 -0.4932 -0.3183 -0.0357
  135MOL     C227070   0.100   7.180   4.481 -1.2412 -0.5251 -0.0656
  135MOL     C327071   0.037   7.196   4.364 -0.3299 -0.0334  0.2666
  135MOL     C427072   7.905   7.297   4.336  0.1842 -0.1259  0.3986
  135MOL     H527073   0.146   6.978   4.558 -1.1063  0.1692  0.2044
  135MOL     H627074   0.284   7.094   4.558  0.1685 -1.6125 -0.3601
  135MOL     H727075   0.064   7.236   4.566  1.7697 -2.2919  2.4918
  135MOL     H827076   0.063   7.142   4.274 -1.7479  2.6694 -1.8324
  135MOL     H927077   7.881   7.343   4.432  0.8832 -0.2023  0.6142
  135MOL    H1027078   7.811   7.256   4.299 -0.2308  1.3550 -0.1943
  135MOL    H1127079   0.231   7.018   4.415  1.0830  1.2377 -0.1423
  135MOL    C1227080   7.953   7.401   4.237  0.0140  0.0895 -0.6163
  135MOL    C1327081   7.846   7.503   4.193 -0.1286 -0.2893 -0.1459
  135MOL    C1427082   7.722   7.521   4.246 -0.0233  0.3471  0.2633
  135MOL    C1527083   7.624   7.618   4.189  0.0941 -0.2577 -0.4046
  135MOL    H1627084   0.060   7.451   4.285  0.0295 -0.0057 -0.5421
  135MOL    H1727085   0.003   7.357   4.142  0.4819 -1.1460  0.0730
  135MOL    H1827086   7.871   7.572   4.115 -2.0215 -0.3480 -0.8200
  135MOL    H1927087   7.693   7.463   4.332 -1.0125  0.6430  0.1412
  135MOL    H2027088   7.591   7.591   4.089  1.0359  0.1777 -0.8357
  135MOL    H2127089   7.672   7.713   4.164 -1.6819  0.5877 -0.7126
  135MOL    C2227090   7.506   7.653   4.284  0.5245  0.4847  0.8242
  135MOL    C2327091   7.417   7.529   4.286  0.3930  0.0264 -0.1615
  135MOL    C2427092   7.284   7.536   4.299 -0.1187  0.8180  0.3007
  135MOL    C2527093   7.199   7.416   4.323 -0.7596  0.2227  0.4278
  135MOL    H2627094   7.527   7.686   4.385  1.4714  1.9523  0.1676
  135MOL    H2727095   7.457   7.742   4.245  0.8933  0.7476  0.9571
  135MOL    H2827096   7.466   7.434   4.305 -0.7077 -0.6193 -0.4715
  135MOL    H2927097   7.235   7.630   4.276 -0.2035  0.5080 -0.8581
  135MOL    H3027098   7.135   7.438   4.409 -1.4490  2.6501 -0.6878
  135MOL    H3127099   7.257   7.327   4.351 -2.2790 -1.4177 -1.5160
  135MOL    C3227100   7.102   7.388   4.205 -0.1896  0.2812 -0.8218
  135MOL    C3327101   7.032   7.254   4.236  0.4407 -0.4072  0.0801
  135MOL    C3427102   6.895   7.235   4.228 -0.3181 -0.3354  0.3251
  135MOL    C3527103   6.817   7.108   4.267  0.2916 -0.0348  0.0041
  135MOL    H3627104   7.031   7.470   4.195  1.4880  1.9660  0.5931
  135MOL    H3727105   7.157   7.379   4.111  1.1280  1.8963 -0.2453
  135MOL    H3827106   7.098   7.171   4.251  1.4724 -0.1111 -2.5803
  135MOL    H3927107   6.828   7.307   4.182  0.5084  0.6994  0.7306
  135MOL    H4027108   6.891   7.031   4.289 -0.5597 -0.6362  0.7880
  135MOL    H4127109   6.761   7.073   4.180 -0.9886  1.0214  0.3773
  135MOL    C4227110   6.714   7.133   4.372  0.6065  0.5029  1.1430
  135MOL    C4327111   6.781   7.144   4.510 -0.3658 -0.3646 -0.4588
  135MOL    C4427112   6.811   7.260   4.573 -0.5426 -0.3205  0.0765
  135MOL    C4527113   6.875   7.261   4.714  0.2978 -0.4923  0.2797
  135MOL    H4627114   6.637   7.206   4.346 -0.8781 -1.7165 -0.9633
  135MOL    H4727115   6.654   7.042   4.374  2.1734 -0.5947 -0.5201
  135MOL    H4827116   6.809   7.050   4.555 -1.1940 -1.4994 -2.2730
  135MOL    H4927117   6.803   7.356   4.525  0.2673 -0.4758 -0.3784
  135MOL    H5027118   6.833   7.177   4.770 -1.4251 -0.4753 -0.9266
  135MOL    H5127119   6.842   7.353   4.763  0.4828  1.6863 -3.4959
  135MOL    C5227120   7.027   7.247   4.707  0.1860 -0.4885  0.3635
  135MOL    C5327121   7.096   7.334   4.815  0.4440  0.1989  1.0281
  135MOL    C5427122   7.168   7.439   4.794  0.2948  0.1338  0.3924
  135MOL    C5527123   7.244   7.522   4.899  0.6684  0.2255 -0.4139
  135MOL    H5627124   7.061   7.144   4.699  0.6132 -0.2466 -1.1228
  135MOL    H5727125   7.055   7.297   4.615  0.7250  0.7133  1.1656
  135MOL    H5827126   7.091   7.301   4.918 -1.6140  0.8845  1.1687
  135MOL    H5927127   7.187   7.471   4.693  2.1338  0.3266  0.7866
  135MOL    H6027128   7.351   7.510   4.887  0.4949 -2.2591  0.1441
  135MOL    H6127129   7.210   7.479   4.993 -0.4761 -0.2047 -1.0113
  135MOL    C6227130   7.203   7.672   4.881 -1.3564  0.5235  0.5063
  135MOL    C6327131   7.249   7.722   4.741 -0.0415 -0.0523  0.1804
  135MOL    C6427132   7.161   7.781   4.659 -0.6028  0.2582  0.4358
  135MOL    C6527133   7.183   7.813   4.513  0.4343 -0.1079 -0.0477
  135MOL    H6627134   7.096   7.691   4.890 -1.2528  0.5008  1.9938
  135MOL    H6727135   7.260   7.722   4.959  0.3166  0.3500 -0.5912
  135MOL    H6827136   7.349   7.697   4.711  0.1181  0.4159  0.3114
  135MOL    H6927137   7.066   7.808   4.701 -0.8884  2.1739 -1.3920
  135MOL    H7027138   7.265   7.760   4.467  0.1134  1.7725 -2.9150
  135MOL    H7127139   7.208   7.919   4.514  0.6111 -0.1510  0.0965
  135MOL    C7227140   7.053   7.789   4.438 -0.6645  0.1082  0.0786
  135MOL    C7327141   7.041   7.882   4.316  0.4298  0.4254  0.3350
  135MOL    C7427142   6.928   7.950   4.285 -0.5368 -0.0995  0.4414
  135MOL    C7527143   6.910   0.052   4.158 -0.3329  0.0429  0.0081
  135MOL    H7627144   7.066   7.693   4.389 -1.8822  0.7193 -1.4825
  135MOL    H7727145   6.968   7.790   4.506 -0.8108 -0.4323 -0.0911
  135MOL    H7827146   7.125   7.857   4.253 -0.4938  1.0025 -1.1541
  135MOL    H7927147   6.845   7.953   4.355 -0.9037  0.8396 -0.0339
  135MOL    H8027148   7.002   0.058   4.101  0.2275  2.7651  1.1254
  135MOL    H8127149   6.886   0.153   4.190 -1.4405  0.1389 -1.0780
  135MOL    C8227150   6.796   7.956   4.079  0.2029  0.4124  0.1726
  135MOL    C8327151   6.742   0.062   3.971  0.3450  0.2355 -0.6866
  135MOL    C8427152   6.615   0.090   3.934 -0.3545 -0.2337 -0.4450
  135MOL    C8527153   6.587   0.176   3.813  0.2343 -0.1676 -0.2575
  135MOL    H8627154   6.828   7.855   4.055  0.2600  0.3390  0.5554
  135MOL    H8727155   6.709   7.934   4.141 -0.2644  1.1634 -0.2022
  135MOL    H8827156   6.816   0.110   3.908  1.4193  0.2789  0.5809
  135MOL    H8927157   6.524   0.069   3.989  0.9130 -1.1940  1.3423
  135MOL    H9027158   6.678   0.198   3.758 -0.0979 -0.7441 -1.0537
  135MOL    H9127159   6.538   0.268   3.846 -0.1873 -0.1839 -0.8220
  135MOL    C9227160   6.486   0.101   3.715 -0.6492  0.1516 -0.3640
  135MOL    C9327161   6.350   0.085   3.785  0.4362  0.5346  0.6307
  135MOL    C9427162   6.242   0.165   3.753 -0.2827 -0.8098 -0.6577
  135MOL    C9527163   6.097   0.167   3.813  0.3375  0.3393  0.0086
  135MOL    H9627164   6.463   0.162   3.627 -0.2960  1.0995  0.1880
  135MOL    H9727165   6.507   7.973   3.693 -0.2679  0.2168 -0.3156
  135MOL    H9827166   6.333   0.006   3.858 -0.1337  0.7542  0.7333
  135MOL    H9927167   6.252   0.245   3.682 -1.7890  0.2552  0.3186
  135MOL   H10027168   6.027   0.186   3.732  1.2094 -2.1979 -1.3700
  135MOL   H10127169   6.087   0.252   3.881 -0.0326  0.2367  0.0799
  135MOL   C10227170   6.061   0.045   3.894  0.3296 -0.2105  0.2873
  135MOL   C10327171   5.911   0.038   3.927  0.0404 -0.1088 -0.4616
  135MOL   C10427172   5.814   7.942   3.869 -0.9162 -0.1762 -0.9293
  135MOL   C10527173   5.674   7.947   3.907  0.1079 -0.9410  0.4815
  135MOL   H10627174   6.092   7.931   3.842 -0.4342 -0.4130  0.1804
  135MOL   H10727175   6.119   0.034   3.986  1.8650 -1.6716 -0.8137
  135MOL   H10827176   5.893   0.110   4.006  0.3206  1.8893 -2.1795
  135MOL   H10927177   5.842   7.875   3.789 -0.4541 -0.9873 -0.0979
  135MOL   H11027178   5.661   0.021   4.002 -0.6946 -0.1344 -0.0464
  135MOL   H11127179   5.635   7.848   3.932 -0.1587 -0.7730  0.7385
  135MOL   C11227180   5.585   0.040   3.804  0.2484 -0.4896 -0.1515
  135MOL   C11327181   5.437   0.051   3.844  0.2832 -0.1045 -0.4920
  135MOL   C11427182   5.335   7.975   3.779  0.4374 -0.3614  0.1125
  135MOL   C11527183   5.195   0.007   3.814  0.0173 -0.7531  0.9965
  135MOL   H11627184   5.606   0.146   3.793 -2.0713 -0.1704 -1.8729
  135MOL   H11727185   5.586   7.964   3.708  1.3011  0.7413 -0.8397
  135MOL   H11827186   5.431   0.126   3.922 -0.2028 -0.1296 -0.5038
  135MOL   H11927187   5.367   7.900   3.708 -1.3094 -1.8489  0.8430
  135MOL   H12027188   5.169   0.069   3.900  1.3410 -0.3076  1.0943
  135MOL   H12127189   5.149   7.891   3.846 -0.3189 -0.5560  1.0857
  135MOL   C12227190   5.111   0.080   3.699 -0.4938 -0.3092  0.4662
  135MOL   C12327191   4.981   0.121   3.757 -0.0166  0.0020  0.3539
  135MOL   C12427192   4.866   0.072   3.703  0.1809 -0.0277  0.2051
  135MOL   C12527193   4.728   0.113   3.738 -0.0951  0.5143 -0.3116
  135MOL   H12627194   5.158   0.173   3.666 -0.8097 -0.1133  0.5585
  135MOL   H12727195   5.104   0.017   3.610 -1.2854  0.8746 -0.3271
  135MOL   H12827196   4.973   0.198   3.832 -2.1609 -1.0820  1.2860
  135MOL   H12927197   4.874   7.959   3.643 -1.6084  0.3259 -0.5886
  135MOL   H13027198   4.737   0.178   3.825 -2.1619  1.2738 -0.6469
  135MOL   H13127199   4.668   0.034   3.784 -0.5516  1.4551  0.7411
  135MOL   C13227200   4.652   0.189   3.633  0.6047 -0.0212  0.0880
  135MOL   C13327201   4.508   0.194   3.667  0.1991 -0.0293  0.5962
  135MOL   C13427202   4.435   0.297   3.697 -0.4246 -0.1782  0.1550
  135MOL   C13527203   4.287   0.304   3.727 -0.1775 -0.1555 -0.7997
  135MOL   H13627204   4.689   0.288   3.607 -0.5897  0.6548  0.9141
  135MOL   H13727205   4.661   0.135   3.538 -2.0944 -2.6536  1.2461
  135MOL   H13827206   4.462   0.099   3.646 -0.6183  0.5261 -0.1715
  135MOL   H13927207   4.486   0.391   3.712 -1.1275  0.3968 -0.9985
  135MOL   H14027208   4.237   0.381   3.670  0.1846 -0.3251 -1.3521
  135MOL   H14127209   4.278   0.334   3.831  3.9323 -0.5371 -0.2368
  135MOL   C14227210   4.216   0.161   3.718 -0.4048 -0.4559  0.4985
  135MOL   C14327211   4.069   0.177   3.710  0.6957  0.2738  0.4224
  135MOL   C14427212   3.977   0.092   3.761 -0.3988 -0.1182 -0.3262
  135MOL   C14527213   3.832   0.113   3.758  0.0585  0.2262 -0.2100
  135MOL   H14627214   4.232   0.119   3.619 -0.8524  0.3221  0.0879
  135MOL   H14727215   4.248   0.090   3.794 -2.7396 -1.1542  0.8919
  135MOL   H14827216   4.037   0.270   3.665 -0.8005 -0.1038  0.6756
  135MOL   H14927217   4.008   0.009   3.822  0.2874  1.8089  2.0290
  135MOL   H15027218   3.789   0.016   3.732 -0.7146  0.6112 -0.3732
  135MOL   H15127219   3.798   0.176   3.676  0.8865  1.6224  0.5087
  135MOL   C15227220   3.789   0.147   3.893  0.4255  0.3834  0.3984
  135MOL   C15327221   3.643   0.196   3.898 -0.7118 -0.1525 -0.0954
  135MOL   C15427222   3.599   0.305   3.961  0.2443  0.2642  0.3372
  135MOL   C15527223   3.453   0.342   3.949 -0.0417 -0.1751 -0.1016
  135MOL   H15627224   3.799   0.058   3.955 -4.1100 -0.0073  0.7981
  135MOL   H15727225   3.850   0.224   3.940  1.5693 -1.1810  1.5080
  135MOL   H15827226   3.565   0.136   3.854  0.3693  0.5067 -3.0714
  135MOL   H15927227   3.672   0.373   4.003  3.7314 -3.0914 -0.0068
  135MOL   H16027228   3.402   0.317   4.042  0.6508  0.2863  0.4034
  135MOL   H16127229   3.399   0.282   3.876 -1.2299  1.3173 -0.4849
  135MOL   C16227230   3.444   0.491   3.922 -0.2561 -0.0717 -0.7488
  135MOL   C16327231   3.306   0.555   3.897  0.6148  0.2640 -0.0944
  135MOL   C16427232   3.250   0.664   3.949  0.0702 -0.1598  0.0420
  135MOL   C16527233   3.108   0.710   3.912 -0.3985 -0.0130  0.0683
  135MOL   H16627234   3.483   0.541   4.011 -0.3280 -1.5285  0.1074
  135MOL   H16727235   3.503   0.510   3.832 -1.0764 -0.8215 -1.4505
  135MOL   H16827236   3.248   0.493   3.831  0.5532  0.1893  0.0281
  135MOL   H16927237   3.303   0.721   4.023 -1.9817  0.3300  1.1354
  135MOL   H17027238   3.044   0.689   3.997  0.9359 -1.6151  0.6882
  135MOL   H17127239   3.054   0.652   3.837 -0.1096  0.3233 -0.4117
  135MOL   C17227240   3.105   0.852   3.873  0.2611  0.7501  0.0370
  135MOL   C17327241   2.970   0.892   3.821  0.0929  0.1949  0.2112
  135MOL   C17427242   2.873   0.976   3.873 -0.5884 -0.1081  0.1584
  135MOL   C17527243   2.745   0.998   3.798  0.0298 -0.4243 -0.6572
  135MOL   H17627244   3.127   0.916   3.959 -2.4469  1.0010  0.5823
  135MOL   H17727245   3.175   0.873   3.792  3.1997  0.7831  2.4849
  135MOL   H17827246   2.945   0.850   3.726 -3.2622 -0.4457  1.3266
  135MOL   H17927247   2.888   1.026   3.968  1.5137 -0.5455  0.0819
  135MOL   H18027248   2.761   0.986   3.691  1.0453 -1.3130 -0.4161
  135MOL   H18127249   2.718   1.102   3.815  1.6476 -0.1184  0.1727
  135MOL   C18227250   2.627   0.903   3.834 -0.6135  0.5025 -0.2056
  135MOL   C18327251   2.658   0.758   3.805  0.0063 -0.3752 -0.0143
  135MOL   C18427252   2.671   0.666   3.906 -0.1027 -0.1419 -0.2104
  135MOL   C18527253   2.714   0.520   3.902 -0.6736  0.0326  0.2721
  135MOL   H18627254   2.587   0.913   3.935  2.3539  1.1819  0.9352
  135MOL   H18727255   2.546   0.931   3.767 -1.2122  1.0540  0.7359
  135MOL   H18827256   2.665   0.744   3.698 -0.8162  1.3554 -0.3227
  135MOL   H18927257   2.677   0.711   4.004 -0.2317  0.1405 -0.3309
  135MOL   H19027258   2.631   0.464   3.945 -0.1572 -0.9998 -0.0526
  135MOL   H19127259   2.800   0.508   3.968 -0.4773 -1.7815 -0.2956
  135MOL   C19227260   2.750   0.461   3.763  0.3730  0.0384 -0.3256
  135MOL   C19327261   2.848   0.345   3.772  0.6995 -0.0847  0.2348
  135MOL   C19427262   2.975   0.351   3.722  0.2382  0.3610  0.4998
  135MOL   C19527263   3.076   0.235   3.715  0.1995 -0.2029 -0.0164
  135MOL   H19627264   2.655   0.422   3.727 -0.8213  0.6284  2.0807
  135MOL   H19727265   2.779   0.544   3.699  0.8656 -0.6562 -1.0092
  135MOL   H19827266   2.807   0.253   3.812  0.7748  0.5838  1.8828
  135MOL   H19927267   3.010   0.443   3.677  2.9135 -2.4311 -3.4218
  135MOL   H20027268   3.033   0.146   3.762  1.4538 -1.3756 -1.0334
  135MOL   H20127269   3.163   0.272   3.769 -0.3155 -1.0129  1.3964
  135MOL   H20227270   3.105   0.213   3.612  1.4661 -0.3003  0.3467
  136MOL     C127271   0.746   3.068   0.507 -0.2092  0.5577  1.2185
  136MOL     C227272   0.734   3.006   0.642  0.3652  0.6670  0.6455
  136MOL     C327273   0.844   2.990   0.718 -0.0693 -0.2191 -0.2785
  136MOL     C427274   0.847   2.946   0.859  0.2222  0.0025  0.3766
  136MOL     H527275   0.678   3.153   0.501  1.2229  1.6067 -0.5804
  136MOL     H627276   0.698   2.992   0.445  1.8674  0.1084  0.1440
  136MOL     H727277   0.637   2.983   0.682  1.2282 -1.8799  1.4068
  136MOL     H827278   0.937   3.018   0.671  0.6635 -0.6583  0.8897
  136MOL     H927279   0.890   2.846   0.847 -0.3906  0.0046 -2.0870
  136MOL    H1027280   0.744   2.935   0.891  0.6715 -1.3837  1.4264
  136MOL    H1127281   0.844   3.097   0.471 -1.9252  0.4542 -3.9309
  136MOL    C1227282   0.938   3.045   0.943 -0.3906 -0.5468 -0.6251
  136MOL    C1327283   0.877   3.180   0.958  0.0018  0.5594  0.5363
  136MOL    C1427284   0.836   3.226   1.076  0.4412 -0.0329  0.6030
  136MOL    C1527285   0.775   3.359   1.118  0.6612  0.0960  0.5614
  136MOL    H1627286   0.949   2.998   1.041 -2.5996  0.3703  0.0993
  136MOL    H1727287   1.036   3.051   0.896 -1.0291  1.1335 -1.7468
  136MOL    H1827288   0.870   3.247   0.874 -1.8973  0.9169  0.9436
  136MOL    H1927289   0.847   3.170   1.168 -2.5784  1.1265  1.7491
  136MOL    H2027290   0.847   3.406   1.186  0.8678  1.1624 -0.3781
  136MOL    H2127291   0.685   3.332   1.174  1.0978 -1.2961  0.6148
  136MOL    C2227292   0.738   3.459   1.010  0.1979 -0.3590 -0.9996
  136MOL    C2327293   0.621   3.399   0.925 -0.3728  0.0058  0.4734
  136MOL    C2427294   0.617   3.372   0.793 -0.3377 -0.7743 -0.3150
  136MOL    C2527295   0.485   3.319   0.727 -0.5928 -0.7613 -0.1336
  136MOL    H2627296   0.697   3.554   1.044  0.0350 -0.6552 -0.3706
  136MOL    H2727297   0.825   3.474   0.945  0.9577  2.7198  0.6212
  136MOL    H2827298   0.537   3.392   0.992  0.9489 -2.1208  1.9685
  136MOL    H2927299   0.712   3.390   0.745 -1.3797  1.6069 -1.5579
  136MOL    H3027300   0.410   3.294   0.802 -1.0510  0.6631 -0.0935
  136MOL    H3127301   0.511   3.224   0.680  0.6116 -0.3210 -0.3763
  136MOL    C3227302   0.421   3.408   0.617 -0.3697 -0.1529 -0.3512
  136MOL    C3327303   0.289   3.340   0.562 -0.1171 -0.0045 -0.4979
  136MOL    C3427304   0.270   3.205   0.555 -0.2358  0.8912  0.8928
  136MOL    C3527305   0.142   3.132   0.501 -0.1297  0.0845 -0.0375
  136MOL    H3627306   0.392   3.496   0.675 -0.3443 -0.1957 -0.2743
  136MOL    H3727307   0.484   3.428   0.530  0.3338  0.4956  0.3078
  136MOL    H3827308   0.215   3.401   0.513 -0.5551 -1.0507 -1.1494
  136MOL    H3927309   0.344   3.138   0.598  0.2308  1.2352  0.6215
  136MOL    H4027310   0.188   3.079   0.418  0.8399  0.8791 -0.0315
  136MOL    H4127311   0.069   3.196   0.452 -1.8635 -2.5409 -0.9115
  136MOL    C4227312   0.072   3.051   0.613 -0.3552 -0.3730 -0.4327
  136MOL    C4327313   0.008   3.138   0.713 -0.1736 -0.0646  0.9231
  136MOL    C4427314   7.857   3.182   0.698 -0.6183  1.0496  0.4547
  136MOL    C4527315   7.780   3.276   0.798 -0.0682  0.3727  0.1066
  136MOL    H4627316   7.973   2.988   0.565 -0.5102 -1.6568  1.4515
  136MOL    H4727317   0.132   2.979   0.669 -1.4185 -2.3876 -1.8149
  136MOL    H4827318   0.069   3.171   0.795  2.4901 -0.5081 -0.8272
  136MOL    H4927319   7.804   3.151   0.609 -0.9887 -1.5215  1.5115
  136MOL    H5027320   7.768   3.373   0.749  1.5284 -0.0135 -1.1114
  136MOL    H5127321   7.856   3.288   0.876  2.0501  1.6618 -2.0721
  136MOL    C5227322   7.645   3.227   0.844 -0.1406 -0.1308  0.7314
  136MOL    C5327323   7.545   3.237   0.738  0.5691 -0.7556 -0.6156
  136MOL    C5427324   7.463   3.343   0.721 -0.3227 -0.5052 -0.1127
  136MOL    C5527325   7.362   3.364   0.607 -0.5036 -0.0718 -0.2673
  136MOL    H5627326   7.659   3.121   0.867 -2.7154 -0.3957  1.2298
  136MOL    H5727327   7.618   3.293   0.926  2.3130 -0.0203  1.4881
  136MOL    H5827328   7.529   3.160   0.663 -1.7668 -1.7284  0.8350
  136MOL    H5927329   7.473   3.422   0.793 -0.7537  0.7517 -1.4131
  136MOL    H6027330   7.259   3.357   0.642 -0.4148 -0.8435 -0.1648
  136MOL    H6127331   7.378   3.291   0.528  1.8387  0.0866  0.0428
  136MOL    C6227332   7.367   3.510   0.554 -0.1406  0.1196 -0.1537
  136MOL    C6327333   7.262   3.518   0.443 -0.2176 -0.1384  0.3001
  136MOL    C6427334   7.138   3.571   0.446  0.2330  0.2929  0.3814
  136MOL    C6527335   7.044   3.577   0.330  0.2753 -0.2278  0.4998
  136MOL    H6627336   7.336   3.587   0.625 -0.6409  0.1683 -0.4239
  136MOL    H6727337   7.464   3.527   0.506 -1.1375 -0.4762 -2.4700
  136MOL    H6827338   7.291   3.461   0.356 -0.9073 -1.6773  1.0624
  136MOL    H6927339   7.098   3.606   0.539  1.5646  0.4186  0.9243
  136MOL    H7027340   6.947   3.531   0.353  0.0695  0.4241  0.9383
  136MOL    H7127341   7.096   3.523   0.251  0.2829 -1.4757  1.3363
  136MOL    C7227342   7.000   3.725   0.301  0.1243 -0.4873 -0.0240
  136MOL    C7327343   6.909   3.732   0.175 -0.6423 -0.4175  0.7412
  136MOL    C7427344   6.788   3.779   0.176  0.0263 -0.2243  0.4724
  136MOL    C7527345   6.705   3.799   0.047 -0.0474 -0.1218  0.1204
  136MOL    H7627346   6.963   3.788   0.382  0.9894 -1.2062  0.9322
  136MOL    H7727347   7.085   3.784   0.268 -1.7631  3.9097  2.4522
  136MOL    H7827348   6.957   3.694   0.087 -0.2325 -0.6618  1.0704
  136MOL    H7927349   6.744   3.816   0.268 -0.0163 -0.6344  0.6186
  136MOL    H8027350   6.610   3.749   0.062 -1.8456  3.0907  0.0487
  136MOL    H8127351   6.760   3.758   7.939 -0.4019 -1.0108  0.3257
  136MOL    C8227352   6.679   3.953   0.022 -0.1241 -0.2873  0.0781
  136MOL    C8327353   6.581   3.977   7.885 -0.4555  0.7272 -0.5197
  136MOL    C8427354   6.456   4.020   7.901 -0.3488 -0.1097  0.2138
  136MOL    C8527355   6.365   4.056   7.783 -1.0378 -0.0426  0.4166
  136MOL    H8627356   6.639   3.999   0.113  0.6860  0.6109 -0.0171
  136MOL    H8727357   6.776   4.000   0.007 -0.2739  0.2341  0.6846
  136MOL    H8827358   6.631   3.963   7.790  1.0397 -0.0364  0.3446
  136MOL    H8927359   6.416   4.042   0.022  0.6800 -1.4498  0.9391
  136MOL    H9027360   6.402   4.002   7.696 -1.5532  0.8061 -0.3455
  136MOL    H9127361   6.360   4.160   7.750 -0.9702 -0.1084  0.2014
  136MOL    C9227362   6.224   3.997   7.795 -0.2712 -0.3179  0.3495
  136MOL    C9327363   6.118   4.088   7.853  0.3308  0.4467 -0.8369
  136MOL    C9427364   5.994   4.119   7.805 -0.1522 -0.4191  0.0218
  136MOL    C9527365   5.895   4.210   7.877  0.0158 -0.7971  0.3929
  136MOL    H9627366   6.190   3.980   7.693  0.2158  1.2960 -0.0958
  136MOL    H9727367   6.233   3.908   7.857  0.3873  0.4320  1.3435
  136MOL    H9827368   6.135   4.134   7.949  2.6371  1.0523 -1.4955
  136MOL    H9927369   5.968   4.073   7.711  0.1039 -2.0957  0.7582
  136MOL   H10027370   5.859   4.277   7.798  1.5342 -1.2932 -0.7573
  136MOL   H10127371   5.955   4.263   7.951 -1.5997  1.4197  0.1607
  136MOL   C10227372   5.779   4.133   7.931 -0.3717  0.4269 -0.8370
  136MOL   C10327373   5.833   4.024   0.049  0.0331  0.1756  0.2683
  136MOL   C10427374   5.896   4.056   0.159 -0.3075  1.0775 -0.5304
  136MOL   C10527375   5.963   3.948   0.241 -0.0378  0.2422 -0.4237
  136MOL   H10627376   5.713   4.204   0.006 -0.2102 -0.2597  0.3310
  136MOL   H10727377   5.730   4.089   7.844 -0.5055  1.4095 -1.2657
  136MOL   H10827378   5.826   3.925   0.006 -2.8736  0.9065 -1.0721
  136MOL   H10927379   5.904   4.156   0.199  1.7608  0.3891  0.8728
  136MOL   H11027380   5.953   3.844   0.208 -1.1931 -0.5287  2.1401
  136MOL   H11127381   5.927   3.947   0.344  0.6516  1.8055 -0.1531
  136MOL   C11227382   6.118   3.964   0.254 -0.4030  0.5603 -0.2531
  136MOL   C11327383   6.193   3.846   0.320  0.3648  0.0039 -0.0880
  136MOL   C11427384   6.265   3.853   0.430  0.4868  0.3365 -0.2629
  136MOL   C11527385   6.333   3.737   0.494  0.1470 -0.9307 -0.6380
  136MOL   H11627386   6.166   3.980   0.157 -0.0440  0.8521 -0.0300
  136MOL   H11727387   6.142   4.049   0.319  0.9964 -0.2886  0.3596
  136MOL   H11827388   6.180   3.754   0.266 -0.6800 -0.7938  1.4710
  136MOL   H11927389   6.269   3.940   0.493  1.0969 -0.9463  1.5090
  136MOL   H12027390   6.401   3.697   0.419  1.3277 -0.8723  0.3781
  136MOL   H12127391   6.263   3.654   0.506  0.5462 -1.2347 -0.3976
  136MOL   C12227392   6.410   3.765   0.622  0.0068  0.1709  0.3870
  136MOL   C12327393   6.330   3.806   0.742 -0.2302 -0.1848 -0.9372
  136MOL   C12427394   6.300   3.728   0.846 -0.3786 -0.5804 -0.4032
  136MOL   C12527395   6.239   3.770   0.974  0.7430 -0.4321 -0.2921
  136MOL   H12627396   6.464   3.672   0.633 -0.5870 -0.2727 -0.3760
  136MOL   H12727397   6.474   3.851   0.602  0.5938 -0.0698  1.2385
  136MOL   H12827398   6.299   3.910   0.741 -0.9840 -0.4087 -2.8307
  136MOL   H12927399   6.331   3.625   0.850  0.5953 -0.2810 -0.2026
  136MOL   H13027400   6.213   3.876   0.977  0.1483 -0.6021  1.5930
  136MOL   H13127401   6.312   3.757   1.053  0.9284  1.4280 -0.1208
  136MOL   C13227402   6.108   3.691   1.008  0.1487 -0.5564 -0.6789
  136MOL   C13327403   6.035   3.747   1.138  0.2864  0.0140 -0.5364
  136MOL   C13427404   5.917   3.809   1.141 -0.0680  0.6261  0.3438
  136MOL   C13527405   5.868   3.861   1.272  0.5201  0.1340  0.0582
  136MOL   H13627406   6.034   3.676   0.930 -1.3377 -4.4248  1.3142
  136MOL   H13727407   6.140   3.588   1.026  0.0365 -0.3981  0.4718
  136MOL   H13827408   6.088   3.746   1.233 -2.8465  0.3495  1.2897
  136MOL   H13927409   5.850   3.825   1.058 -0.6741 -1.1000  0.4754
  136MOL   H14027410   5.853   3.969   1.277 -2.9403 -0.3735  3.5709
  136MOL   H14127411   5.940   3.824   1.345  1.1841 -0.1504 -0.7408
  136MOL   C14227412   5.729   3.800   1.308 -0.8752  0.2626 -0.1478
  136MOL   C14327413   5.669   3.879   1.422  0.7463  0.2176 -0.4460
  136MOL   C14427414   5.640   3.822   1.545 -0.1518 -0.0580  1.2425
  136MOL   C14527415   5.586   3.903   1.665 -0.3974  0.4023 -0.0180
  136MOL   H14627416   5.664   3.819   1.223  0.5194  1.0376 -1.0526
  136MOL   H14727417   5.731   3.694   1.336 -0.3419  0.9273  2.5367
  136MOL   H14827418   5.642   3.982   1.407 -1.6180 -0.7347 -3.2075
  136MOL   H14927419   5.655   3.717   1.565 -0.6813  0.0566  2.2993
  136MOL   H15027420   5.556   4.000   1.625 -2.0534 -0.0351  0.1300
  136MOL   H15127421   5.669   3.897   1.736  1.1907  1.1670 -1.7582
  136MOL   C15227422   5.460   3.841   1.729  0.1881 -0.3977  0.0240
  136MOL   C15327423   5.347   3.824   1.633  0.2914 -0.2376  0.0622
  136MOL   C15427424   5.288   3.708   1.600 -0.3356 -0.1780  0.4345
  136MOL   C15527425   5.172   3.687   1.503  0.8090 -0.4094  0.2241
  136MOL   H15627426   5.492   3.747   1.774  1.3292  0.3299  0.7351
  136MOL   H15727427   5.426   3.907   1.808  0.3148  0.0017 -0.2559
  136MOL   H15827428   5.320   3.907   1.569  0.4040 -0.8409 -0.7807
  136MOL   H15927429   5.325   3.616   1.644 -0.7969  0.2405  1.7353
  136MOL   H16027430   5.230   3.667   1.413  0.6784  0.0347  0.0400
  136MOL   H16127431   5.116   3.778   1.481  3.9064  1.1059 -1.7884
  136MOL   C16227432   5.064   3.582   1.531 -0.1981  0.5354 -0.1743
  136MOL   C16327433   4.976   3.532   1.419  0.2795 -0.3245 -0.0731
  136MOL   C16427434   4.863   3.589   1.369 -0.0482 -0.3254  0.0689
  136MOL   C16527435   4.790   3.541   1.247  0.6273 -0.6088  0.4189
  136MOL   H16627436   5.115   3.495   1.573 -1.2169  1.0563  2.2029
  136MOL   H16727437   4.996   3.616   1.609 -0.1569 -1.9780  1.0277
  136MOL   H16827438   5.012   3.441   1.372  0.1771 -0.7067  0.5736
  136MOL   H16927439   4.844   3.688   1.408 -0.6260 -1.0152  1.5714
  136MOL   H17027440   4.835   3.454   1.198  1.1888  0.4099 -0.8911
  136MOL   H17127441   4.784   3.611   1.164 -0.8273 -1.6208 -0.3574
  136MOL   C17227442   4.652   3.485   1.277  0.8417 -0.3471  0.0883
  136MOL   C17327443   4.591   3.431   1.149  0.4745  0.4813  0.3978
  136MOL   C17427444   4.469   3.456   1.108  0.4673  0.0691 -0.1695
  136MOL   C17527445   4.405   3.383   0.991 -0.3454  0.5145  0.0596
  136MOL   H17627446   4.646   3.416   1.361 -0.1162 -0.3827 -0.0035
  136MOL   H17727447   4.584   3.563   1.309 -2.5209 -3.1047 -0.0530
  136MOL   H17827448   4.657   3.356   1.106  1.4028  2.3631 -1.5809
  136MOL   H17927449   4.409   3.529   1.161  0.9618  0.0636  0.3943
  136MOL   H18027450   4.484   3.313   0.964 -0.8591 -0.2590  0.5204
  136MOL   H18127451   4.387   3.447   0.905 -1.8119  0.4736  0.3312
  136MOL   C18227452   4.272   3.309   1.015  0.0859  0.6721 -0.0387
  136MOL   C18327453   4.203   3.275   0.884  0.1148 -0.7226 -0.0364
  136MOL   C18427454   4.174   3.153   0.842 -0.9030 -0.0949 -0.4337
  136MOL   C18527455   4.104   3.114   0.708 -0.4156  0.7211  0.0122
  136MOL   H18627456   4.293   3.219   1.072  0.9400  0.0485 -1.2954
  136MOL   H18727457   4.206   3.374   1.073 -1.9096  0.1650 -1.7046
  136MOL   H18827458   4.179   3.358   0.819  0.7448  1.4852  2.4464
  136MOL   H18927459   4.189   3.072   0.912 -0.8086 -0.1942 -0.5690
  136MOL   H19027460   4.093   3.199   0.641  1.1134 -0.5661 -1.9249
  136MOL   H19127461   4.003   3.081   0.730 -0.7017  1.0482 -0.8105
  136MOL   C19227462   4.184   2.998   0.636  0.4108  0.5225  0.1316
  136MOL   C19327463   4.111   2.949   0.514 -0.0539 -0.1076  0.2611
  136MOL   C19427464   4.155   2.940   0.387  0.1240  0.1836 -0.6337
  136MOL   C19527465   4.075   2.865   0.285  0.2027  0.1172 -0.1050
  136MOL   H19627466   4.281   3.031   0.601  0.5325  1.0474  0.9512
  136MOL   H19727467   4.201   2.907   0.693  2.1659 -0.0839 -1.3118
  136MOL   H19827468   4.010   2.915   0.531 -0.2992 -1.1390 -2.9631
  136MOL   H19927469   4.253   2.976   0.359  0.8320 -0.9910  0.2688
  136MOL   H20027470   4.011   2.938   0.237  0.5238 -2.0900 -4.0977
  136MOL   H20127471   4.015   2.782   0.323  1.6108 -0.6517  0.5224
  136MOL   H20227472   4.147   2.815   0.221  0.8978  1.2688 -0.2348
  137MOL     C127473   6.861   4.949   0.685  0.2007  0.1697 -0.6113
  137MOL     C227474   6.977   4.988   0.771  0.5800 -0.4702 -0.1727
  137MOL     C327475   7.092   4.921   0.770  0.3774 -0.2825 -0.4015
  137MOL     C427476   7.212   4.953   0.856  0.5924 -0.9233 -0.7137
  137MOL     H527477   6.859   5.012   0.596 -0.3805  0.2618 -0.5393
  137MOL     H627478   6.768   4.965   0.739  1.7180  1.8303  1.5931
  137MOL     H727479   6.967   5.080   0.827 -1.0198 -1.4360  1.1768
  137MOL     H827480   7.091   4.830   0.712  2.1174  0.4567 -1.6345
  137MOL     H927481   7.201   5.039   0.922 -1.2719 -1.8170  0.1895
  137MOL    H1027482   7.293   4.986   0.792  1.6445 -0.4833  0.8158
  137MOL    H1127483   6.862   4.842   0.666  2.2159  0.1923 -0.7333
  137MOL    C1227484   7.255   4.837   0.937 -0.4609  0.2812 -0.0389
  137MOL    C1327485   7.367   4.866   1.031  0.7414 -0.9307 -0.3130
  137MOL    C1427486   7.475   4.788   1.048  0.1948 -0.5192 -0.1635
  137MOL    C1527487   7.585   4.823   1.144 -0.9098 -0.5972  0.2196
  137MOL    H1627488   7.170   4.806   0.998  2.3118 -0.6439  3.5155
  137MOL    H1727489   7.284   4.748   0.881 -1.9825 -0.5635  0.4764
  137MOL    H1827490   7.352   4.959   1.084 -1.5497 -0.1689 -2.2565
  137MOL    H1927491   7.481   4.696   0.992 -0.2458 -0.6559  0.0123
  137MOL    H2027492   7.618   4.731   1.192  0.5973  0.0681  0.4871
  137MOL    H2127493   7.539   4.874   1.229 -0.0475 -1.0502  0.9694
  137MOL    C2227494   7.699   4.906   1.091  0.2295  0.0514 -0.1137
  137MOL    C2327495   7.656   5.048   1.052 -0.3411  0.6825  0.4012
  137MOL    C2427496   7.674   5.104   0.933 -0.5311  0.3529 -0.2220
  137MOL    C2527497   7.615   5.231   0.897 -0.1302 -0.1288  0.1656
  137MOL    H2627498   7.785   4.917   1.157 -0.1847 -0.0960  0.4484
  137MOL    H2727499   7.733   4.870   0.994 -0.1687  1.8316 -0.9413
  137MOL    H2827500   7.605   5.100   1.131  0.2327  0.3318  1.0033
  137MOL    H2927501   7.729   5.058   0.852 -0.2715  1.3930 -0.6428
  137MOL    H3027502   7.570   5.278   0.984  1.6329  2.1973 -0.1430
  137MOL    H3127503   7.541   5.206   0.821 -2.3848  3.9489  0.8888
  137MOL    C3227504   7.720   5.327   0.836 -0.3898 -0.2703  0.0181
  137MOL    C3327505   7.647   5.464   0.814 -0.3480  0.3608  0.1108
  137MOL    C3427506   7.679   5.576   0.879 -0.3944 -0.1620  0.3330
  137MOL    C3527507   7.610   5.707   0.846  0.6203 -0.1109 -0.3712
  137MOL    H3627508   7.807   5.335   0.901  0.6468 -1.6235 -1.1780
  137MOL    H3727509   7.756   5.287   0.742 -1.6856 -0.7520 -0.2777
  137MOL    H3827510   7.563   5.475   0.747 -0.3760  0.7015  0.2040
  137MOL    H3927511   7.758   5.584   0.953 -2.1546  0.4652  2.2002
  137MOL    H4027512   7.554   5.732   0.936 -2.7832 -1.9430 -1.8744
  137MOL    H4127513   7.531   5.680   0.776 -0.4638 -3.0186  1.8407
  137MOL    C4227514   7.712   5.815   0.794  0.6170 -0.3830  0.0097
  137MOL    C4327515   7.652   5.957   0.798  0.9652  0.2726 -0.1534
  137MOL    C4427516   7.577   6.004   0.693  0.7434  0.2093  0.3309
  137MOL    C4527517   7.538   6.154   0.679  0.1859 -0.1104 -0.6101
  137MOL    H4627518   7.806   5.798   0.847  0.4140 -1.0419  0.1589
  137MOL    H4727519   7.730   5.775   0.694  0.1289 -1.2906  0.2800
  137MOL    H4827520   7.677   6.007   0.891  0.8320  1.3754 -0.7107
  137MOL    H4927521   7.552   5.931   0.618  0.9621 -1.5134  1.8965
  137MOL    H5027522   7.563   6.201   0.584  0.5935  0.0345 -0.4341
  137MOL    H5127523   7.600   6.215   0.745  0.5998 -3.1576  1.9444
  137MOL    C5227524   7.384   6.188   0.698 -0.5019  0.6724 -0.7822
  137MOL    C5327525   7.316   6.114   0.816 -0.0656 -0.5388  0.2096
  137MOL    C5427526   7.207   6.170   0.878 -0.4719 -0.3386  0.1395
  137MOL    C5527527   7.137   6.095   0.990  0.2670  0.4263 -0.8451
  137MOL    H5627528   7.360   6.294   0.693  0.4977  0.9570  0.3477
  137MOL    H5727529   7.323   6.156   0.613  1.3311 -0.3382 -1.7388
  137MOL    H5827530   7.344   6.012   0.836 -1.7554 -1.3904 -1.5214
  137MOL    H5927531   7.170   6.268   0.853 -0.0284 -0.0435  0.6357
  137MOL    H6027532   7.193   6.009   1.024 -1.3965 -1.0673 -1.7866
  137MOL    H6127533   7.056   6.056   0.928  1.1601 -1.9486 -0.5528
  137MOL    C6227534   7.089   6.179   1.109 -0.3370  0.2976 -0.0276
  137MOL    C6327535   6.966   6.127   1.184  0.2803  0.3374  0.5424
  137MOL    C6427536   6.964   6.103   1.316  0.6741 -0.2217 -0.1444
  137MOL    C6527537   6.862   6.021   1.392  0.6045  0.7894  0.1019
  137MOL    H6627538   7.170   6.196   1.179  1.8974  1.4017 -2.7605
  137MOL    H6727539   7.062   6.283   1.088  1.5908  0.6350 -0.8857
  137MOL    H6827540   6.888   6.083   1.125  0.6333 -0.7641  0.8878
  137MOL    H6927541   7.047   6.148   1.369 -1.1600  0.6812  2.0734
  137MOL    H7027542   6.810   6.103   1.443 -0.6790  1.3993 -2.1303
  137MOL    H7127543   6.910   5.958   1.468 -0.4461 -2.2627 -1.6937
  137MOL    C7227544   6.773   5.930   1.308 -0.0863 -0.7223  0.9503
  137MOL    C7327545   6.832   5.804   1.248  0.3665 -0.4804 -0.3669
  137MOL    C7427546   6.958   5.772   1.268  0.2355  0.0837 -0.1688
  137MOL    C7527547   7.048   5.670   1.200 -0.2182 -0.0624  0.6731
  137MOL    H7627548   6.687   5.905   1.370  0.5396 -0.5134  1.9169
  137MOL    H7727549   6.739   5.982   1.218 -2.0244 -2.0563  0.8673
  137MOL    H7827550   6.760   5.757   1.182  0.0813 -1.8264  0.8758
  137MOL    H7927551   7.011   5.825   1.345  0.6286 -0.2805 -0.1895
  137MOL    H8027552   6.977   5.615   1.137 -1.8191  2.4959  0.1775
  137MOL    H8127553   7.100   5.608   1.273 -0.7031 -1.4747 -0.1487
  137MOL    C8227554   7.158   5.759   1.128 -0.1019 -0.4884  0.1188
  137MOL    C8327555   7.215   5.693   1.010 -0.0785  0.4116  0.6998
  137MOL    C8427556   7.234   5.559   1.000  0.3791 -1.0506 -0.4099
  137MOL    C8527557   7.300   5.496   0.886 -0.1279  0.7843 -0.1982
  137MOL    H8627558   7.100   5.845   1.096  2.4700  1.8331  1.5353
  137MOL    H8727559   7.224   5.799   1.205 -1.0151  1.7453 -0.2255
  137MOL    H8827560   7.264   5.764   0.945 -1.8285  0.7363 -0.2899
  137MOL    H8927561   7.190   5.499   1.078  1.8556 -2.6253 -0.7451
  137MOL    H9027562   7.388   5.445   0.923  1.5951  1.7559 -2.8462
  137MOL    H9127563   7.340   5.575   0.822  1.2106  0.7099  0.5293
  137MOL    C9227564   7.212   5.413   0.791 -0.0535  0.6912 -0.3138
  137MOL    C9327565   7.282   5.389   0.658 -0.3727  1.2952 -0.5476
  137MOL    C9427566   7.320   5.264   0.618  0.0313 -0.7319  0.5094
  137MOL    C9527567   7.401   5.238   0.494 -0.1457 -0.0714 -0.0606
  137MOL    H9627568   7.197   5.320   0.847 -0.4152  1.5853  1.1176
  137MOL    H9727569   7.117   5.456   0.756 -0.0483  0.7280 -0.2842
  137MOL    H9827570   7.310   5.477   0.603  0.2936  1.9090  0.7494
  137MOL    H9927571   7.311   5.179   0.684  1.8183  0.7483  2.7485
  137MOL   H10027572   7.392   5.323   0.426  1.6219  1.4230  1.5139
  137MOL   H10127573   7.364   5.149   0.444  1.0015 -1.0238  0.7535
  137MOL   C10227574   7.555   5.215   0.514  0.5023  0.2980  0.3186
  137MOL   C10327575   7.632   5.175   0.390  0.5121  0.2794 -0.5390
  137MOL   C10427576   7.584   5.140   0.274  0.2583  0.4905  0.5930
  137MOL   C10527577   7.677   5.097   0.160 -0.5945 -0.5294 -0.0820
  137MOL   H10627578   7.601   5.309   0.542 -0.5165 -0.0768  3.4372
  137MOL   H10727579   7.576   5.141   0.592  0.3636 -1.2290 -1.0705
  137MOL   H10827580   7.739   5.165   0.400  0.2862 -2.6222 -0.7562
  137MOL   H10927581   7.478   5.148   0.255  0.5173  1.0851 -0.6597
  137MOL   H11027582   7.667   4.989   0.161  0.7435 -0.6547  0.1203
  137MOL   H11127583   7.781   5.118   0.187 -0.8215 -1.3938  1.5118
  137MOL   C11227584   7.636   5.158   0.025 -0.6909 -0.2124  0.2323
  137MOL   C11327585   7.492   5.142   7.955  0.1946  0.6506  0.5433
  137MOL   C11427586   7.471   5.067   7.848 -0.0416 -0.5342  1.0942
  137MOL   C11527587   7.334   5.041   7.782  0.2144  0.3284  0.2871
  137MOL   H11627588   7.665   5.263   0.016  1.0849 -0.6432  0.7228
  137MOL   H11727589   7.692   5.092   7.936 -0.8984  0.4484 -0.6162
  137MOL   H11827590   7.417   5.196   0.034  0.3068  0.6304  0.7158
  137MOL   H11927591   7.555   5.028   7.793 -0.5475 -1.3259  0.8834
  137MOL   H12027592   7.253   5.061   7.852 -0.6059  1.6599 -1.0417
  137MOL   H12127593   7.331   4.933   7.770 -0.0638 -0.0531  3.3343
  137MOL   C12227594   7.320   5.090   7.639 -0.6275  0.7818  0.1354
  137MOL   C12327595   7.178   5.059   7.577 -0.3151 -0.4969 -0.5010
  137MOL   C12427596   7.157   4.979   7.472  0.3526 -0.2683  0.1140
  137MOL   C12527597   7.026   4.952   7.402 -0.4789  0.1418  0.3281
  137MOL   H12627598   7.344   5.196   7.644  0.3024  0.4857  2.5689
  137MOL   H12727599   7.387   5.034   7.573 -0.3804  1.4088 -0.1470
  137MOL   H12827600   7.091   5.096   7.629  0.5371  1.7736 -0.6340
  137MOL   H12927601   7.241   4.923   7.434  2.4782  2.8718 -0.0181
  137MOL   H13027602   6.944   5.011   7.443 -0.4235 -0.2862  1.0610
  137MOL   H13127603   7.004   4.847   7.423 -1.1777  0.6749  2.4108
  137MOL   C13227604   7.045   4.968   7.248  0.3388 -0.0753 -0.8479
  137MOL   C13327605   6.922   4.921   7.178 -0.3149  0.6941  0.1399
  137MOL   C13427606   6.888   4.790   7.174 -0.5321 -0.3618 -0.0812
  137MOL   C13527607   6.773   4.736   7.089  0.0301  0.0361  0.5606
  137MOL   H13627608   7.055   5.074   7.225  1.1777  0.0489  0.0381
  137MOL   H13727609   7.138   4.918   7.221  1.2677  0.2378  1.5911
  137MOL   H13827610   6.860   4.985   7.117  0.3453  0.2085 -1.0475
  137MOL   H13927611   6.950   4.719   7.225 -0.7787  0.7914  1.8826
  137MOL   H14027612   6.718   4.812   7.032 -0.3508 -1.0674 -0.5597
  137MOL   H14127613   6.703   4.682   7.153 -2.5268  2.1455 -0.3756
  137MOL   C14227614   6.820   4.621   7.000 -0.1046  0.6848  0.1021
  137MOL   C14327615   6.719   4.546   6.917  0.4197  0.3600  0.1938
  137MOL   C14427616   6.671   4.597   6.801 -0.2663  0.7402  0.0730
  137MOL   C14527617   6.567   4.526   6.713  0.5395  0.3779  0.1065
  137MOL   H14627618   6.889   4.667   6.928  1.6587  0.5159  1.6625
  137MOL   H14727619   6.878   4.550   7.058  1.0430 -0.8660 -2.8197
  137MOL   H14827620   6.675   4.464   6.971 -0.3380  1.1106  0.7395
  137MOL   H14927621   6.715   4.686   6.758 -1.1812  1.7907  1.2749
  137MOL   H15027622   6.545   4.427   6.753 -0.7576  0.4691 -0.3480
  137MOL   H15127623   6.600   4.518   6.609 -0.1118 -0.5178 -0.0368
  137MOL   C15227624   6.438   4.611   6.711  0.2966  0.7225  0.0299
  137MOL   C15327625   6.322   4.542   6.640  0.8393  0.1705  0.4764
  137MOL   C15427626   6.209   4.516   6.702 -1.0232  0.4446  0.4357
  137MOL   C15527627   6.075   4.482   6.634 -0.8377 -0.4043  0.7451
  137MOL   H15627628   6.407   4.641   6.811 -0.5310  1.9935 -0.5900
  137MOL   H15727629   6.447   4.710   6.665  1.1644 -0.0821 -1.5658
  137MOL   H15827630   6.338   4.526   6.534 -0.7109 -1.7309  0.5101
  137MOL   H15927631   6.203   4.555   6.802 -0.2794  1.6119  0.0395
  137MOL   H16027632   6.040   4.379   6.645  0.9338 -0.9876  1.0540
  137MOL   H16127633   6.086   4.475   6.526  0.6256  1.3629  0.7531
  137MOL   C16227634   5.965   4.586   6.668  0.1782 -0.1612  0.2497
  137MOL   C16327635   5.834   4.544   6.617  0.6169  0.7234 -0.2458
  137MOL   C16427636   5.750   4.625   6.547 -0.3093 -0.3975 -0.3749
  137MOL   C16527637   5.610   4.589   6.507  0.9606 -0.3981 -0.0999
  137MOL   H16627638   5.957   4.589   6.776 -1.0598  0.3557  0.1559
  137MOL   H16727639   5.997   4.686   6.641 -1.1656  0.2418  0.0909
  137MOL   H16827640   5.810   4.440   6.630 -1.0545  1.1387 -0.0014
  137MOL   H16927641   5.778   4.729   6.537  0.7760 -0.7650 -1.2056
  137MOL   H17027642   5.538   4.653   6.558  0.2341  0.5769 -2.2667
  137MOL   H17127643   5.585   4.486   6.533  0.3390 -0.5405 -1.1987
  137MOL   C17227644   5.585   4.601   6.355 -0.1575  0.4369  0.1577
  137MOL   C17327645   5.437   4.564   6.324  0.6875  1.0804  0.1202
  137MOL   C17427646   5.357   4.637   6.242 -0.5359  0.0725 -0.2372
  137MOL   C17527647   5.216   4.593   6.205  0.6791 -0.4154 -0.1118
  137MOL   H17627648   5.607   4.702   6.319 -0.8749  0.3996 -0.3858
  137MOL   H17727649   5.662   4.544   6.303 -0.7112  1.1648 -1.4743
  137MOL   H17827650   5.395   4.473   6.363  0.5524  0.6921 -0.9276
  137MOL   H17927651   5.382   4.730   6.194 -1.7043  0.1451 -0.7204
  137MOL   H18027652   5.195   4.491   6.237  1.5187 -0.0709  1.6030
  137MOL   H18127653   5.207   4.606   6.097 -2.2716 -0.2697  0.1255
  137MOL   C18227654   5.117   4.690   6.272  0.4622 -0.5552  0.0653
  137MOL   C18327655   5.095   4.657   6.415 -0.9651 -0.3053  0.0929
  137MOL   C18427656   5.093   4.753   6.510  0.0686  0.6602  0.0774
  137MOL   C18527657   5.113   4.728   6.660 -0.9250 -1.0098 -0.9992
  137MOL   H18627658   5.151   4.793   6.266  0.8304 -0.6584  0.3841
  137MOL   H18727659   5.018   4.686   6.225 -1.1399 -2.3206  3.4236
  137MOL   H18827660   5.091   4.555   6.449 -0.5116 -0.8440 -1.4174
  137MOL   H18927661   5.104   4.855   6.479  2.7096  0.0810 -1.0239
  137MOL   H19027662   5.215   4.745   6.693 -1.3970 -1.6198  0.8133
  137MOL   H19127663   5.101   4.623   6.686 -0.7742 -1.0531 -1.1025
  137MOL   C19227664   5.021   4.825   6.743 -0.1839  0.1142  0.0877
  137MOL   C19327665   5.040   4.803   6.896 -0.5934 -0.4808  0.3063
  137MOL   C19427666   5.081   4.896   6.983 -0.1838 -0.0324 -0.0507
  137MOL   C19527667   5.103   4.879   7.130 -0.0545 -0.2326 -0.7024
  137MOL   H19627668   5.063   4.920   6.712  0.7306  0.5554  2.6135
  137MOL   H19727669   4.917   4.815   6.711  0.4172  0.2893 -2.0211
  137MOL   H19827670   5.006   4.708   6.934  1.1446 -0.3252  2.3317
  137MOL   H19927671   5.098   4.995   6.943 -0.5922  0.8982  2.0463
  137MOL   H20027672   5.062   4.784   7.166 -1.4594  0.6919  0.1874
  137MOL   H20127673   5.056   4.958   7.189 -0.3342 -1.0421  0.1719
  137MOL   H20227674   5.211   4.889   7.130 -0.0948  0.3280 -1.9584
  138MOL     C127675   2.186   1.236   4.953 -0.5579 -0.0110  0.0305
  138MOL     C227676   2.045   1.240   4.893 -0.5205 -0.1600  0.3469
  138MOL     C327677   1.984   1.357   4.862  0.0520 -0.1556 -0.0088
  138MOL     C427678   1.830   1.370   4.827  0.4767  0.0212 -0.1121
  138MOL     H527679   2.219   1.320   5.013 -1.7653 -0.7040  1.7088
  138MOL     H627680   2.250   1.229   4.864  0.3651  2.0440  0.5076
  138MOL     H727681   1.995   1.146   4.878 -0.5537 -0.3405  1.5186
  138MOL     H827682   2.037   1.448   4.885 -2.0931  0.7058  1.7639
  138MOL     H927683   1.794   1.269   4.806 -0.3800  0.1633  0.6179
  138MOL    H1027684   1.820   1.420   4.731  2.2587  0.8519  0.1025
  138MOL    H1127685   2.203   1.150   5.017 -0.3551 -1.3956 -1.8220
  138MOL    C1227686   1.742   1.430   4.932  0.1626  0.6348  0.1844
  138MOL    C1327687   1.601   1.440   4.895 -0.5555  0.1746 -0.0645
  138MOL    C1427688   1.524   1.546   4.865  0.0146 -0.4209 -0.1712
  138MOL    C1527689   1.379   1.557   4.825 -0.0110  0.2637  0.2217
  138MOL    H1627690   1.750   1.370   5.023  1.8633  0.2472 -0.2000
  138MOL    H1727691   1.772   1.530   4.964  0.0457  0.2483  1.5270
  138MOL    H1827692   1.556   1.344   4.874 -1.7841  0.4565  1.2114
  138MOL    H1927693   1.570   1.642   4.883  1.4309 -0.9930 -0.7051
  138MOL    H2027694   1.329   1.460   4.836  0.2888  0.1852  0.9733
  138MOL    H2127695   1.377   1.588   4.721  0.0501  1.2361  0.5057
  138MOL    C2227696   1.304   1.665   4.909 -0.0780 -0.2621  0.2042
  138MOL    C2327697   1.158   1.682   4.862 -0.5056 -0.0597 -0.3651
  138MOL    C2427698   1.099   1.792   4.818  0.1236 -0.1685 -0.1225
  138MOL    C2527699   0.958   1.780   4.763  0.2603  0.6354  0.2459
  138MOL    H2627700   1.296   1.632   5.012 -2.0518 -0.8933 -0.1389
  138MOL    H2727701   1.355   1.758   4.884 -1.8905  1.0370  1.2990
  138MOL    H2827702   1.107   1.587   4.856  0.2647 -0.3742 -2.4772
  138MOL    H2927703   1.151   1.886   4.808 -1.2305  0.4649 -1.4589
  138MOL    H3027704   0.937   1.673   4.766  2.4263  0.0622 -2.4635
  138MOL    H3127705   0.957   1.809   4.658 -0.6355  2.1340  0.6622
  138MOL    C3227706   0.854   1.857   4.841  0.1858 -0.1137  0.2519
  138MOL    C3327707   0.860   2.007   4.821 -0.1252  0.4655  0.3304
  138MOL    C3427708   0.769   2.074   4.748  0.0388 -0.5585 -0.6825
  138MOL    C3527709   0.779   2.222   4.711  0.1349  0.1635  0.3247
  138MOL    H3627710   0.754   1.827   4.811 -0.4716  0.9743  1.3386
  138MOL    H3727711   0.858   1.839   4.949 -0.0584 -0.3781  0.2190
  138MOL    H3827712   0.952   2.057   4.845 -1.4988  1.8877  2.8586
  138MOL    H3927713   0.684   2.018   4.713  0.8404 -3.4773  1.8182
  138MOL    H4027714   0.880   2.261   4.725 -0.1995  1.3543 -0.5550
  138MOL    H4127715   0.716   2.276   4.781 -0.6797 -2.0717  1.3495
  138MOL    C4227716   0.729   2.244   4.567 -0.7014 -0.2472  0.2396
  138MOL    C4327717   0.732   2.398   4.528 -0.3411 -0.3757  0.2854
  138MOL    C4427718   0.754   2.459   4.410  0.1567  0.9287  0.1501
  138MOL    C4527719   0.727   2.605   4.393  0.2688  0.1270 -0.3488
  138MOL    H4627720   0.797   2.191   4.500  0.7869 -0.8345  2.1897
  138MOL    H4727721   0.622   2.225   4.559 -0.8395  0.1658  1.1244
  138MOL    H4827722   0.691   2.456   4.608 -2.3495  1.7009 -2.1683
  138MOL    H4927723   0.783   2.410   4.318 -0.7558  1.6156 -0.5181
  138MOL    H5027724   0.682   2.643   4.484 -0.2483 -2.1672  0.3844
  138MOL    H5127725   0.649   2.622   4.318 -0.4652  0.7758  0.5435
  138MOL    C5227726   0.853   2.696   4.370  0.3915  0.4482  0.5495
  138MOL    C5327727   0.805   2.832   4.323 -0.2112 -0.4349 -0.4239
  138MOL    C5427728   0.813   2.875   4.196  0.0460 -0.0788  0.0578
  138MOL    C5527729   0.776   3.016   4.144 -0.1650 -0.5871 -0.4825
  138MOL    H5627730   0.909   2.712   4.462  0.3079  0.8459  0.5322
  138MOL    H5727731   0.928   2.650   4.306 -0.9343 -0.3156 -0.4796
  138MOL    H5827732   0.759   2.893   4.400  1.1394  1.1765 -0.8646
  138MOL    H5927733   0.856   2.811   4.120 -1.7777 -1.1335 -0.1319
  138MOL    H6027734   0.873   3.065   4.135  0.5144 -1.8295  0.0046
  138MOL    H6127735   0.712   3.071   4.213  0.6293  0.2702 -0.4177
  138MOL    C6227736   0.701   3.021   4.005 -0.0037 -0.6451 -0.6818
  138MOL    C6327737   0.680   3.164   3.954  0.1670  0.4682 -0.4671
  138MOL    C6427738   0.700   3.209   3.828  0.0392  0.5088  0.5960
  138MOL    C6527739   0.671   3.345   3.783 -0.3203 -0.7379 -1.3699
  138MOL    H6627740   0.767   2.967   3.937  1.7696  0.6531 -0.0556
  138MOL    H6727741   0.612   2.960   4.020 -1.0522  1.0152  0.0519
  138MOL    H6827742   0.648   3.239   4.024  1.0211 -0.2563  0.7204
  138MOL    H6927743   0.732   3.139   3.753 -0.5150 -0.7088  1.4707
  138MOL    H7027744   0.756   3.385   3.727  1.5609  0.5783  2.2860
  138MOL    H7127745   0.659   3.403   3.875  0.2639 -0.9460 -1.1601
  138MOL    C7227746   0.533   3.352   3.704  0.5379  0.1530 -0.0081
  138MOL    C7327747   0.533   3.274   3.579  0.4526 -0.0219  0.0267
  138MOL    C7427748   0.491   3.151   3.582 -0.7955  0.6182  0.0109
  138MOL    C7527749   0.491   3.052   3.470 -0.6232  0.4041  0.4810
  138MOL    H7627750   0.445   3.331   3.764 -0.5291  3.4202 -0.3424
  138MOL    H7727751   0.506   3.449   3.661  0.3703 -0.0249 -0.3082
  138MOL    H7827752   0.554   3.323   3.485 -0.6512  0.7748  0.1753
  138MOL    H7927753   0.452   3.115   3.676  0.2283  0.1636  0.2641
  138MOL    H8027754   0.509   3.116   3.385  1.2765  0.1667  0.6766
  138MOL    H8127755   0.388   3.015   3.468 -0.9080  1.2289 -0.1157
  138MOL    C8227756   0.589   2.942   3.484 -0.7471  0.2295 -0.2655
  138MOL    C8327757   0.597   2.850   3.365  0.4986  0.2534 -0.0478
  138MOL    C8427758   0.643   2.725   3.381 -0.0385 -0.0472 -0.9075
  138MOL    C8527759   0.649   2.630   3.272  0.7175 -0.2214 -0.9300
  138MOL    H8627760   0.683   2.992   3.506 -0.8094  0.3212 -0.2098
  138MOL    H8727761   0.562   2.881   3.570  0.0752 -0.7479 -0.6830
  138MOL    H8827762   0.580   2.884   3.264  0.3061 -2.2486 -0.8862
  138MOL    H8927763   0.660   2.692   3.482  0.3982  0.3950 -0.8389
  138MOL    H9027764   0.753   2.633   3.237  0.3661  2.5034 -1.8654
  138MOL    H9127765   0.603   2.678   3.186  2.4986  2.7133 -0.3158
  138MOL    C9227766   0.590   2.496   3.318 -0.6908  0.4045  0.2622
  138MOL    C9327767   0.580   2.395   3.208 -0.2919 -0.5226  0.6262
  138MOL    C9427768   0.474   2.380   3.130  0.2542  0.0501 -0.2084
  138MOL    C9527769   0.468   2.284   3.014  0.3733  0.3135  0.5037
  138MOL    H9627770   0.648   2.451   3.398  1.6322  0.4666 -1.3376
  138MOL    H9727771   0.494   2.518   3.364  0.0284  1.2204  1.3748
  138MOL    H9827772   0.679   2.358   3.184 -0.8207 -0.8645 -1.1016
  138MOL    H9927773   0.382   2.429   3.161 -0.0221 -0.0834 -0.7948
  138MOL   H10027774   0.567   2.251   2.983 -0.2540 -3.0473  1.8402
  138MOL   H10127775   0.418   2.321   2.924  3.6496  0.4170 -1.3509
  138MOL   C10227776   0.414   2.148   3.059  0.2593 -0.7990 -0.3827
  138MOL   C10327777   0.266   2.138   3.079 -0.0654 -0.0986 -0.8982
  138MOL   C10427778   0.174   2.236   3.081  0.0387  0.2813  0.0914
  138MOL   C10527779   0.026   2.208   3.107 -0.2677  0.2491 -0.7910
  138MOL   H10627780   0.441   2.066   2.992  2.0702 -1.2205  0.8471
  138MOL   H10727781   0.460   2.127   3.155  0.4907  1.3849  0.0042
  138MOL   H10827782   0.229   2.040   3.105  0.6694  0.3824  2.1357
  138MOL   H10927783   0.196   2.339   3.058 -1.3493  0.0702 -2.3473
  138MOL   H11027784   0.015   2.104   3.136  0.1292  0.8569  1.7173
  138MOL   H11127785   7.948   2.248   3.022  1.0305 -0.6407 -2.0731
  138MOL   C11227786   7.952   2.283   3.234 -0.7315 -0.2861  0.5919
  138MOL   C11327787   7.800   2.252   3.259  0.1566  0.1157  0.4727
  138MOL   C11427788   7.752   2.197   3.373 -0.0490 -0.0212  0.8974
  138MOL   C11527789   7.603   2.165   3.400  0.2362 -0.8417 -0.0579
  138MOL   H11627790   0.034   2.270   3.324 -0.7140 -0.3282  0.5741
  138MOL   H11727791   7.937   2.389   3.215 -0.4903 -0.1994  0.8901
  138MOL   H11827792   7.725   2.270   3.183  1.7423  0.3080 -1.0654
  138MOL   H11927793   7.817   2.162   3.452 -0.2317 -0.7531  0.7225
  138MOL   H12027794   7.582   2.058   3.400 -0.1541 -0.7826  1.8266
  138MOL   H12127795   7.541   2.208   3.321  2.3655  0.7707 -0.9069
  138MOL   C12227796   7.561   2.229   3.538 -0.0460  1.4223  0.6612
  138MOL   C12327797   7.659   2.195   3.653 -0.1889  0.1324 -0.5880
  138MOL   C12427798   7.740   2.275   3.722 -1.0800  0.2386  0.1741
  138MOL   C12527799   7.835   2.238   3.825 -0.3397 -0.2253 -0.1390
  138MOL   H12627800   7.562   2.338   3.533 -0.6128  1.4734  1.6108
  138MOL   H12727801   7.460   2.195   3.559 -0.0412  1.5667  0.9167
  138MOL   H12827802   7.658   2.090   3.676 -0.7126  0.5508  1.3857
  138MOL   H12927803   7.745   2.382   3.709 -0.6503  0.2970  0.7801
  138MOL   H13027804   7.928   2.290   3.802 -0.6944  0.3968 -0.1738
  138MOL   H13127805   7.858   2.132   3.832  1.8328  0.3538  2.4029
  138MOL   C13227806   7.794   2.295   3.959  0.7300 -1.0172  0.3751
  138MOL   C13327807   7.881   2.236   4.072 -0.7820  0.4514  0.1052
  138MOL   C13427808   7.964   2.313   4.148  0.0770 -0.2993  0.3124
  138MOL   C13527809   0.053   2.253   4.265 -0.1002  1.3554 -0.4550
  138MOL   H13627810   7.795   2.404   3.955 -0.6123 -1.0054  0.0865
  138MOL   H13727811   7.693   2.270   3.991  0.4940  1.9329  2.1417
  138MOL   H13827812   7.856   2.131   4.081 -0.8250  0.2524 -2.0577
  138MOL   H13927813   7.966   2.421   4.139  0.4201 -0.2057  1.4887
  138MOL   H14027814   0.071   2.147   4.251  0.4491  1.1549  1.6844
  138MOL   H14127815   7.969   2.271   4.354  2.0159  1.7472  0.9387
  138MOL   C14227816   0.195   2.331   4.283 -0.0898  0.3535  0.1172
  138MOL   C14327817   0.267   2.298   4.410 -0.1294 -0.6306  0.1346
  138MOL   C14427818   0.269   2.177   4.466 -0.5126 -0.2017  0.1148
  138MOL   C14527819   0.358   2.139   4.576 -0.0833  0.1385 -0.2328
  138MOL   H14627820   0.265   2.314   4.201  1.9715  0.6662  1.7636
  138MOL   H14727821   0.168   2.437   4.285 -1.2948  0.0444  0.8250
  138MOL   H14827822   0.341   2.369   4.444 -0.5842  0.8722 -1.9351
  138MOL   H14927823   0.209   2.096   4.429 -0.5219 -0.0260 -0.2634
  138MOL   H15027824   0.417   2.228   4.599 -0.5892  0.1980  0.8906
  138MOL   H15127825   0.429   2.061   4.549 -0.6800 -0.7119  0.6257
  138MOL   C15227826   0.283   2.084   4.701  0.1804 -0.2308  0.4614
  138MOL   C15327827   0.217   1.947   4.683  0.1933 -0.1610 -0.1458
  138MOL   C15427828   0.228   1.848   4.772 -0.0728 -0.1798  0.2305
  138MOL   C15527829   0.181   1.701   4.754 -0.1819  0.1083 -0.6288
  138MOL   H15627830   0.346   2.078   4.789  1.8046  1.7704 -0.5447
  138MOL   H15727831   0.212   2.161   4.733 -0.2920 -0.8949  1.0266
  138MOL   H15827832   0.155   1.925   4.597  0.5420  0.0958 -0.4654
  138MOL   H15927833   0.285   1.855   4.863  0.8909  0.0964 -0.3844
  138MOL   H16027834   0.261   1.628   4.764  2.0182  2.0701 -3.1207
  138MOL   H16127835   0.141   1.683   4.654 -0.4463  1.2225 -0.7251
  138MOL   C16227836   0.074   1.656   4.844 -0.8807  0.0972 -0.3289
  138MOL   C16327837   0.126   1.625   4.980  0.2682  0.3813 -0.0660
  138MOL   C16427838   0.138   1.499   5.030  0.5732  0.3286 -0.5758
  138MOL   C16527839   0.181   1.464   5.178  0.3335  0.2719  0.9381
  138MOL   H16627840   7.970   1.728   4.854 -2.0205 -1.2431  0.2322
  138MOL   H16727841   0.026   1.565   4.808  0.2281 -0.4376 -0.4731
  138MOL   H16827842   0.150   1.715   5.035  3.2747 -0.3842 -0.0350
  138MOL   H16927843   0.106   1.417   4.967 -1.5375 -0.7178  1.7803
  138MOL   H17027844   0.176   1.548   5.246  0.1891 -0.1707  1.4803
  138MOL   H17127845   0.286   1.435   5.181 -0.1316 -1.7345 -0.7864
  138MOL   C17227846   0.097   1.349   5.229 -0.1833 -0.6160 -0.1117
  138MOL   C17327847   0.154   1.297   5.364 -0.8473  0.4003 -0.6567
  138MOL   C17427848   0.073   1.290   5.475 -0.2079 -0.0628 -0.3570
  138MOL   C17527849   0.123   1.235   5.605  0.3058  0.4432 -0.8354
  138MOL   H17627850   7.970   1.380   5.237  0.1516  0.4995  0.0311
  138MOL   H17727851   0.094   1.270   5.154  1.5648 -1.8632  1.1014
  138MOL   H17827852   0.256   1.263   5.374 -1.5975 -1.1892  2.2591
  138MOL   H17927853   7.950   1.330   5.479  0.4474  1.3530  3.0562
  138MOL   H18027854   0.227   1.204   5.595  1.2735  3.0365  0.7832
  138MOL   H18127855   0.075   1.140   5.629  1.2697 -0.1796 -1.3738
  138MOL   C18227856   0.132   1.341   5.710 -0.0273 -0.5027  0.2170
  138MOL   C18327857   0.005   1.420   5.744  0.7241  0.0998  0.2020
  138MOL   C18427858   7.913   1.417   5.863 -0.4593  0.1217 -0.5293
  138MOL   C18527859   7.788   1.502   5.888 -0.8748  0.2480  0.2094
  138MOL   H18627860   0.162   1.305   5.809 -1.1141  0.8757  1.0648
  138MOL   H18727861   0.203   1.418   5.681 -1.9380  1.8573  1.6849
  138MOL   H18827862   7.929   1.472   5.666  0.2504 -0.8856 -0.1371
  138MOL   H18927863   7.962   1.376   5.950  0.8298 -1.9734 -2.1869
  138MOL   H19027864   7.761   1.522   5.784  1.0180  3.3006  0.2420
  138MOL   H19127865   7.816   1.594   5.940 -0.4861 -0.7837  1.8337
  138MOL   C19227866   7.674   1.424   5.943  0.6501 -0.0398 -0.1591
  138MOL   C19327867   7.563   1.513   5.985  0.8014  0.3165 -0.3321
  138MOL   C19427868   7.432   1.481   5.963 -1.0807  0.0900 -0.1646
  138MOL   C19527869   7.312   1.564   6.005 -0.1418 -0.2279  0.5225
  138MOL   H19627870   7.646   1.348   5.870 -1.3655 -1.0464  1.5991
  138MOL   H19727871   7.706   1.369   6.032 -1.3992 -1.1003 -0.0441
  138MOL   H19827872   7.590   1.601   6.042 -2.6794  0.4006  1.2998
  138MOL   H19927873   7.407   1.390   5.910  0.0551 -1.1030  1.3210
  138MOL   H20027874   7.261   1.513   6.086 -0.5874 -0.9097 -0.1798
  138MOL   H20127875   7.244   1.580   5.921  0.0468 -0.8305  0.2531
  138MOL   H20227876   7.345   1.665   6.031  1.4499  0.4616 -3.6772
  139MOL     C127877   6.580   0.916   3.905 -0.5153  0.2364  0.4062
  139MOL     C227878   6.658   0.907   3.768 -0.2427  0.5149 -0.0697
  139MOL     C327879   6.712   0.797   3.712  0.4368  0.1303  0.4835
  139MOL     C427880   6.784   0.783   3.581  0.0063  0.2653  0.2421
  139MOL     H527881   6.609   0.842   3.979 -1.6639  0.4182  1.0397
  139MOL     H627882   6.474   0.908   3.884  0.2404 -2.4928 -2.9539
  139MOL     H727883   6.682   0.998   3.715  0.8032 -0.8486 -1.9721
  139MOL     H827884   6.700   0.698   3.753  0.0594 -0.6817 -1.5063
  139MOL     H927885   6.888   0.753   3.587 -0.5881 -2.1190 -1.1284
  139MOL    H1027886   6.773   0.881   3.534  0.1335 -1.2520 -3.0449
  139MOL    H1127887   6.629   1.010   3.932 -1.7375 -0.0016  3.6118
  139MOL    C1227888   6.719   0.681   3.488  0.3715 -0.1171 -0.2942
  139MOL    C1327889   6.742   0.543   3.533 -0.0030  0.4069 -0.0351
  139MOL    C1427890   6.824   0.450   3.474  0.8178 -0.4803  0.1848
  139MOL    C1527891   6.821   0.305   3.516 -0.0915 -0.2454  0.3563
  139MOL    H1627892   6.613   0.686   3.467  0.5120  0.8016 -0.8331
  139MOL    H1727893   6.766   0.695   3.391  0.5516 -0.6354 -0.2793
  139MOL    H1827894   6.696   0.507   3.624 -1.8798 -2.2413 -1.9779
  139MOL    H1927895   6.872   0.482   3.382  1.7991  0.5573  1.0493
  139MOL    H2027896   6.762   0.298   3.607 -1.9096  1.0521 -0.6735
  139MOL    H2127897   6.926   0.283   3.530  0.2485  1.2089  0.2022
  139MOL    C2227898   6.782   0.210   3.403 -0.4115  0.9029 -0.4018
  139MOL    C2327899   6.810   0.062   3.429  1.2167  0.1038  0.6355
  139MOL    C2427900   6.912   0.005   3.359 -0.2234  0.0201  0.2177
  139MOL    C2527901   6.943   7.831   3.361  0.4517 -0.0816  0.4764
  139MOL    H2627902   6.675   0.208   3.386 -0.4455  0.1192 -0.0802
  139MOL    H2727903   6.829   0.243   3.309  0.1848  0.6627 -0.1932
  139MOL    H2827904   6.750   0.003   3.496  1.0833  0.9093  1.2217
  139MOL    H2927905   6.979   0.065   3.300  0.9624 -1.0140  0.4817
  139MOL    H3027906   7.027   7.815   3.428 -0.1734 -0.1899  1.2461
  139MOL    H3127907   6.952   7.816   3.254 -1.9719  3.4435 -0.2921
  139MOL    C3227908   6.829   7.731   3.406  0.2669 -0.5553  0.0096
  139MOL    C3327909   6.834   7.595   3.340 -0.1162  0.4883 -0.4626
  139MOL    C3427910   6.810   7.468   3.390 -0.4799 -0.8828  0.1737
  139MOL    C3527911   6.830   7.335   3.315 -0.6210  0.5411 -0.0184
  139MOL    H3627912   6.830   7.728   3.515  0.4360 -0.2308  0.0187
  139MOL    H3727913   6.734   7.777   3.383  0.8553  0.1433 -1.0636
  139MOL    H3827914   6.871   7.609   3.240  1.0023 -0.3089 -0.1758
  139MOL    H3927915   6.779   7.468   3.493 -0.5986  0.1824  0.1495
  139MOL    H4027916   6.901   7.358   3.235  1.5190  2.2065  2.2612
  139MOL    H4127917   6.739   7.292   3.275 -0.4598  0.1463  0.0391
  139MOL    C4227918   6.905   7.230   3.395  0.0125  0.6813 -0.1185
  139MOL    C4327919   6.846   7.206   3.533 -0.4502 -0.0451 -0.4258
  139MOL    C4427920   6.761   7.105   3.563  0.8378  0.4993  0.0286
  139MOL    C4527921   6.691   7.089   3.691  0.3075 -0.3901  0.2974
  139MOL    H4627922   6.918   7.136   3.341  1.8618  0.5802  0.4389
  139MOL    H4727923   7.005   7.272   3.406  0.1415  0.0557  1.3021
  139MOL    H4827924   6.866   7.275   3.613 -3.6210 -0.6901  0.9927
  139MOL    H4927925   6.753   7.026   3.490 -1.9420  0.8306 -0.0617
  139MOL    H5027926   6.708   7.175   3.756 -1.4766  0.8466 -0.8091
  139MOL    H5127927   6.735   7.003   3.740  0.6590 -0.8377 -0.7778
  139MOL    C5227928   6.548   7.056   3.661  0.3680 -0.3934 -0.2203
  139MOL    C5327929   6.452   7.172   3.672  0.4192  0.5623  0.2417
  139MOL    C5427930   6.464   7.290   3.617 -0.3005 -0.0736 -0.0751
  139MOL    C5527931   6.357   7.396   3.622  0.2091  0.7988  0.6078
  139MOL    H5627932   6.537   7.015   3.561 -0.0635  0.3814 -0.4961
  139MOL    H5727933   6.501   6.992   3.736  1.8794 -0.7595  0.4331
  139MOL    H5827934   6.365   7.150   3.733  0.8668  1.0053  1.0446
  139MOL    H5927935   6.545   7.310   3.549  0.6367 -1.0346  0.7383
  139MOL    H6027936   6.414   7.483   3.652  0.6637  1.0313 -0.8790
  139MOL    H6127937   6.293   7.371   3.707 -0.0996 -1.6741 -0.3024
  139MOL    C6227938   6.299   7.422   3.485 -0.2360  0.2051 -0.4867
  139MOL    C6327939   6.184   7.521   3.497 -0.2894 -0.1932  0.3028
  139MOL    C6427940   6.196   7.650   3.454 -0.3896  0.4848  0.1459
  139MOL    C6527941   6.085   7.750   3.441  0.1094  0.3290  0.2451
  139MOL    H6627942   6.371   7.466   3.416 -0.6433  2.4565  0.4543
  139MOL    H6727943   6.260   7.334   3.435 -0.9735  0.4308 -0.3116
  139MOL    H6827944   6.092   7.477   3.531 -1.0965  1.2480  0.0407
  139MOL    H6927945   6.292   7.681   3.415  0.8709 -2.0692  1.1487
  139MOL    H7027946   6.028   7.732   3.350 -0.0262 -0.7225  0.5417
  139MOL    H7127947   6.122   7.853   3.445 -1.1508  0.7174  3.0610
  139MOL    C7227948   5.976   7.736   3.554 -0.4384  0.2475 -0.0611
  139MOL    C7327949   5.866   7.837   3.526 -0.6676 -0.2361 -0.4887
  139MOL    C7427950   5.756   7.798   3.462  0.2319  0.0288 -0.3509
  139MOL    C7527951   5.629   7.883   3.454 -0.7520 -0.7337  0.2857
  139MOL    H7627952   5.935   7.635   3.559  1.7435 -0.6876 -0.2599
  139MOL    H7727953   6.010   7.761   3.655  0.0463  0.5623 -0.2962
  139MOL    H7827954   5.883   7.937   3.563 -2.2997 -0.4717  0.9230
  139MOL    H7927955   5.748   7.695   3.428 -0.5336 -0.5134  1.4465
  139MOL    H8027956   5.655   0.010   3.471 -0.6894 -0.5792 -0.6991
  139MOL    H8127957   5.560   7.837   3.524 -2.1415  1.3541  0.3346
  139MOL    C8227958   5.569   7.864   3.307 -0.3419  0.2573 -1.0843
  139MOL    C8327959   5.454   7.954   3.276  0.7436 -0.3218 -0.0308
  139MOL    C8427960   5.343   7.919   3.208 -0.4963 -0.4571 -0.0412
  139MOL    C8527961   5.228   0.042   3.192 -0.6368 -0.2666  0.3063
  139MOL    H8627962   5.648   7.864   3.231  1.4374  2.2629  0.7093
  139MOL    H8727963   5.536   7.760   3.312 -1.7350  0.7772  1.0722
  139MOL    H8827964   5.475   0.073   3.322  1.1890 -0.0487 -0.7978
  139MOL    H8927965   5.325   7.824   3.160  2.4895 -0.5594 -0.9977
  139MOL    H9027966   5.201   0.035   3.086  1.1439  1.1985 -0.2731
  139MOL    H9127967   5.261   0.145   3.207 -0.1431 -0.0415 -2.0678
  139MOL    C9227968   5.104   0.007   3.274 -0.3494  0.0935 -0.2496
  139MOL    C9327969   4.999   0.114   3.254 -0.3071 -0.6345 -0.0873
  139MOL    C9427970   4.949   0.190   3.353 -0.0496 -0.4753  0.2995
  139MOL    C9527971   4.850   0.300   3.320 -0.7886 -0.4363  0.2291
  139MOL    H9627972   5.059   7.890   3.240  3.1863 -0.7507 -2.9922
  139MOL    H9727973   5.131   7.972   3.379 -0.5665 -3.1265 -0.4904
  139MOL    H9827974   4.955   0.131   3.156  2.0783 -1.0348 -1.2690
  139MOL    H9927975   4.987   0.195   3.453  1.4313 -0.1299 -0.2675
  139MOL   H10027976   4.747   0.275   3.346 -1.1449 -0.8285 -1.4995
  139MOL   H10127977   4.834   0.307   3.212 -0.6946  0.3151  0.2654
  139MOL   C10227978   4.890   0.441   3.375 -0.8231 -0.4438  0.7209
  139MOL   C10327979   4.774   0.532   3.349 -0.1054  0.1832  0.0519
  139MOL   C10427980   4.672   0.545   3.435 -0.4007 -0.2841 -0.3766
  139MOL   C10527981   4.551   0.638   3.420  0.2292  0.1197  0.3168
  139MOL   H10627982   4.904   0.441   3.483 -2.0246 -0.1245  0.8851
  139MOL   H10727983   4.975   0.479   3.318 -2.5195  2.5424  0.0516
  139MOL   H10827984   4.772   0.589   3.257  0.4424  0.1144 -0.0095
  139MOL   H10927985   4.680   0.485   3.524 -0.5891 -1.2840 -1.0195
  139MOL   H11027986   4.552   0.718   3.494  2.1309 -1.5038  2.1140
  139MOL   H11127987   4.467   0.582   3.462  0.2074 -0.1436 -0.0820
  139MOL   C11227988   4.536   0.721   3.287  0.7308 -0.9710  0.5084
  139MOL   C11327989   4.409   0.801   3.299  0.6275 -0.0654  0.7575
  139MOL   C11427990   4.397   0.930   3.287 -0.0965  0.5205  0.7487
  139MOL   C11527991   4.281   1.024   3.278  0.0567 -0.3793 -0.4502
  139MOL   H11627992   4.617   0.789   3.260 -0.8382  0.4532 -0.7486
  139MOL   H11727993   4.513   0.659   3.201 -2.9980  0.3034  0.4833
  139MOL   H11827994   4.318   0.743   3.306  1.3085 -1.5399 -1.7496
  139MOL   H11927995   4.485   0.986   3.262 -0.7049  1.2633  0.2311
  139MOL   H12027996   4.189   0.972   3.303  0.5993 -0.8309  0.6688
  139MOL   H12127997   4.270   1.062   3.177 -2.5401  0.8209  0.2464
  139MOL   C12227998   4.296   1.144   3.374  0.1270 -0.3597 -0.1240
  139MOL   C12327999   4.382   1.256   3.320 -0.1683 -0.3626  0.1771
  139MOL   C12428000   4.496   1.288   3.380 -0.3918  0.3845 -0.0154
  139MOL   C12528001   4.596   1.385   3.322 -0.4964  0.1312  0.1412
  139MOL   H12628002   4.200   1.189   3.398 -0.6380 -3.1001  2.3216
  139MOL   H12728003   4.334   1.110   3.470 -2.8420  1.2982  1.7346
  139MOL   H12828004   4.342   1.312   3.237 -0.3857  2.8542  2.3524
  139MOL   H12928005   4.524   1.222   3.462 -1.7978 -0.4719 -0.2044
  139MOL   H13028006   4.557   1.453   3.246  3.3213 -0.7397 -2.7337
  139MOL   H13128007   4.670   1.330   3.264 -1.4029 -0.7927 -0.1470
  139MOL   C13228008   4.665   1.468   3.434 -0.1991 -0.1020  0.4442
  139MOL   C13328009   4.812   1.436   3.459  0.7610 -0.4097  0.2976
  139MOL   C13428010   4.902   1.536   3.473  0.3277  0.0736  0.3117
  139MOL   C13528011   5.046   1.508   3.506 -0.1753  0.8081  0.4875
  139MOL   H13628012   4.642   1.573   3.415 -0.3438  0.3303  2.8842
  139MOL   H13728013   4.613   1.443   3.526  0.9797 -4.4330  0.0253
  139MOL   H13828014   4.844   1.333   3.462 -1.6542 -1.1928 -0.1037
  139MOL   H13928015   4.870   1.639   3.472  2.1409  0.6456 -0.7835
  139MOL   H14028016   5.098   1.576   3.438  0.1394  1.2608  1.1773
  139MOL   H14128017   5.085   1.413   3.469  0.2585  0.7642  1.0521
  139MOL   C14228018   5.089   1.530   3.653 -0.1109 -0.6358 -0.1707
  139MOL   C14328019   5.238   1.541   3.664 -0.4413  0.8383  0.1791
  139MOL   C14428020   5.311   1.499   3.770  0.5239 -0.2608 -1.1042
  139MOL   C14528021   5.463   1.511   3.784  0.5372  0.3825 -0.9362
  139MOL   H14628022   5.050   1.625   3.690 -0.7013  0.6263 -3.8273
  139MOL   H14728023   5.053   1.454   3.722 -0.9001 -0.4819 -0.4108
  139MOL   H14828024   5.294   1.582   3.582 -2.9533 -0.2437 -2.1820
  139MOL   H14928025   5.258   1.463   3.857  2.9205 -0.9622  0.1227
  139MOL   H15028026   5.492   1.585   3.859 -0.9562  0.5228 -0.4647
  139MOL   H15128027   5.505   1.549   3.691  0.8445  3.6826  0.4866
  139MOL   C15228028   5.530   1.373   3.814 -0.5025  0.1008  0.0268
  139MOL   C15328029   5.518   1.333   3.960 -0.0097  0.4670  0.1964
  139MOL   C15428030   5.479   1.208   4.003 -0.7181 -0.4619  0.7391
  139MOL   C15528031   5.453   1.171   4.145 -0.3820  0.3185  0.1859
  139MOL   H15628032   5.492   1.290   3.754  1.0973 -0.4543 -0.2403
  139MOL   H15728033   5.636   1.380   3.791 -0.7385 -1.9854 -1.9587
  139MOL   H15828034   5.540   1.410   4.033  2.1323 -1.1010  1.2522
  139MOL   H15928035   5.464   1.130   3.929 -0.9991 -0.7876  1.1384
  139MOL   H16028036   5.446   1.264   4.202  2.4106  0.5879  0.2072
  139MOL   H16128037   5.547   1.124   4.174 -0.4614  0.3325  0.4657
  139MOL   C16228038   5.323   1.092   4.163  0.0486 -0.8336 -0.7209
  139MOL   C16328039   5.204   1.184   4.139 -0.7406 -0.0826  0.9321
  139MOL   C16428040   5.108   1.177   4.049  0.0095 -0.1021  0.5323
  139MOL   C16528041   4.981   1.258   4.052 -1.1705  0.1096  0.3072
  139MOL   H16628042   5.323   1.005   4.098 -0.5771 -0.5587 -1.1019
  139MOL   H16728043   5.324   1.046   4.261  0.7187 -1.5008 -1.0358
  139MOL   H16828044   5.191   1.268   4.205 -0.3445  0.2401  0.5974
  139MOL   H16928045   5.106   1.101   3.973  4.1467  0.7199 -0.4949
  139MOL   H17028046   5.009   1.360   4.026  1.5962 -0.8655 -0.7816
  139MOL   H17128047   4.949   1.264   4.156  0.6782 -1.6060  1.0190
  139MOL   C17228048   4.865   1.196   3.972 -0.5670  0.4632 -0.0618
  139MOL   C17328049   4.736   1.276   3.983  0.0895  0.0433  0.0255
  139MOL   C17428050   4.620   1.215   3.993  1.2668  0.3821 -0.2437
  139MOL   C17528051   4.491   1.281   3.980  0.8079 -0.6104  0.4554
  139MOL   H17628052   4.881   1.189   3.864  1.3575  0.7833  0.1911
  139MOL   H17728053   4.837   1.097   4.008 -1.0869 -0.4213 -2.7657
  139MOL   H17828054   4.739   1.382   3.961 -2.2402  0.1164 -0.0392
  139MOL   H17928055   4.621   1.108   4.006  1.1982  0.4179  0.0652
  139MOL   H18028056   4.504   1.387   4.003 -0.4905 -0.4195  0.3235
  139MOL   H18128057   4.426   1.237   4.056  0.7485 -0.5324  0.4494
  139MOL   C18228058   4.418   1.270   3.846  0.1428  0.3802  0.1681
  139MOL   C18328059   4.308   1.371   3.831 -0.1750 -0.2604  0.7395
  139MOL   C18428060   4.273   1.434   3.720 -0.3335  0.4097  0.2711
  139MOL   C18528061   4.181   1.556   3.726  0.1681  0.4056 -0.0223
  139MOL   H18628062   4.496   1.284   3.771  0.8637  1.4307  1.0863
  139MOL   H18728063   4.379   1.169   3.835  1.2033  0.2378 -2.5638
  139MOL   H18828064   4.275   1.403   3.929  0.3218 -0.2171  0.8914
  139MOL   H18928065   4.319   1.414   3.624  0.7034 -2.9413  1.4089
  139MOL   H19028066   4.242   1.646   3.711  0.6318  0.2495  0.8751
  139MOL   H19128067   4.142   1.571   3.827 -0.5400  1.4586 -0.4383
  139MOL   C19228068   4.059   1.536   3.626 -0.8103 -0.0603  0.5720
  139MOL   C19328069   3.974   1.431   3.690  0.5650  0.6412  0.3989
  139MOL   C19428070   3.849   1.454   3.734  0.4737 -0.8302 -0.3256
  139MOL   C19528071   3.750   1.365   3.805 -1.0605  0.1365  0.4204
  139MOL   H19628072   4.012   1.634   3.615 -0.6001 -0.2553 -2.2409
  139MOL   H19728073   4.083   1.507   3.524  0.9682 -1.8017  1.4694
  139MOL   H19828074   4.024   1.336   3.700 -0.9003 -0.0668  1.2804
  139MOL   H19928075   3.809   1.554   3.725  0.0185 -0.8204  1.4848
  139MOL   H20028076   3.662   1.370   3.742  0.5155 -3.2817 -2.2348
  139MOL   H20128077   3.722   1.398   3.905  1.2651 -1.0026  1.5004
  139MOL   H20228078   3.784   1.262   3.814  0.0465  0.5883  1.6834
  140MOL     C128079   5.041   7.473   5.928 -0.0290  0.3641 -0.1002
  140MOL     C228080   5.189   7.467   5.982  0.2131  0.0869  0.4816
  140MOL     C328081   5.245   7.361   6.038  0.8145 -0.2916  0.0142
  140MOL     C428082   5.385   7.354   6.094 -0.8916  0.3930  0.3312
  140MOL     H528083   5.007   7.383   5.876  1.5561 -0.5459  0.4139
  140MOL     H628084   5.026   7.555   5.857 -0.4438  1.4258  1.1890
  140MOL     H728085   5.242   7.560   5.980  0.7612 -0.1930  1.8248
  140MOL     H828086   5.187   7.270   6.039 -1.7933  1.2602 -1.8611
  140MOL     H928087   5.371   7.317   6.195  0.5260  1.2876  0.8631
  140MOL    H1028088   5.428   7.451   6.119  0.1843 -0.3958  1.5868
  140MOL    H1128089   4.967   7.501   6.003 -2.4933 -2.1014 -1.5208
  140MOL    C1228090   5.489   7.276   6.011  0.2090 -0.3511 -0.0231
  140MOL    C1328091   5.629   7.302   6.053  1.1932 -0.3624 -0.4796
  140MOL    C1428092   5.704   7.194   6.094  0.1265  0.4381  0.2420
  140MOL    C1528093   5.847   7.203   6.142 -0.3102  0.3249  0.5132
  140MOL    H1628094   5.463   7.171   6.018  1.4350 -0.8264 -2.0371
  140MOL    H1728095   5.474   7.306   5.907  1.7940 -1.3153 -0.5427
  140MOL    H1828096   5.666   7.404   6.051 -1.8800  0.8208  0.1049
  140MOL    H1928097   5.654   7.099   6.080 -1.8509  1.6085 -0.8407
  140MOL    H2028098   5.839   7.178   6.248 -0.5327 -0.6668  0.2764
  140MOL    H2128099   5.874   7.307   6.131 -0.6292  0.3668  0.1095
  140MOL    C2228100   5.957   7.133   6.050 -0.7600 -0.0053 -0.0841
  140MOL    C2328101   6.103   7.152   6.092 -0.3995 -0.3990 -0.2628
  140MOL    C2428102   6.170   7.076   6.183  0.2976 -0.4155  0.0806
  140MOL    C2528103   6.325   7.076   6.212 -0.1076  0.4301 -0.0971
  140MOL    H2628104   5.945   7.025   6.052 -0.4529 -0.0275  2.8100
  140MOL    H2728105   5.952   7.155   5.943 -2.6211 -0.5202 -0.1205
  140MOL    H2828106   6.144   7.242   6.050 -0.9733  1.6344  3.2787
  140MOL    H2928107   6.130   6.991   6.236 -1.4829  0.3562 -0.0161
  140MOL    H3028108   6.376   7.167   6.180  0.2846  0.0060 -0.6898
  140MOL    H3128109   6.379   6.994   6.164  0.4141  0.3190  0.6656
  140MOL    C3228110   6.359   7.057   6.361  0.0560  0.1751 -0.3610
  140MOL    C3328111   6.508   7.047   6.377 -0.3728 -0.3766 -0.0012
  140MOL    C3428112   6.570   6.938   6.428 -0.0166 -0.7139  0.0424
  140MOL    C3528113   6.713   6.930   6.456  0.1677  0.2655 -0.3910
  140MOL    H3628114   6.313   7.136   6.420  0.2119  2.6800 -3.4691
  140MOL    H3728115   6.307   6.969   6.400 -1.6210  0.8531 -1.0679
  140MOL    H3828116   6.564   7.138   6.361 -2.1499  0.7042 -0.2287
  140MOL    H3928117   6.503   6.861   6.463  0.3422 -0.2051  1.9148
  140MOL    H4028118   6.763   6.983   6.375 -1.1134  0.5959 -0.9795
  140MOL    H4128119   6.742   6.825   6.463  1.2779  0.7198  2.4903
  140MOL    C4228120   6.744   6.985   6.599  0.0829 -0.2957 -0.2795
  140MOL    C4328121   6.861   6.921   6.668 -0.3474 -0.7531 -0.2759
  140MOL    C4428122   6.846   6.868   6.792 -0.4195  0.9909  0.5184
  140MOL    C4528123   6.951   6.779   6.854 -0.9223 -0.5689  0.3751
  140MOL    H4628124   6.759   7.093   6.597  0.8648 -0.4018 -0.3401
  140MOL    H4728125   6.661   6.969   6.668  0.1693 -0.3577 -0.1889
  140MOL    H4828126   6.952   6.906   6.612  0.7362  0.6121  1.0411
  140MOL    H4928127   6.753   6.877   6.845  0.0467  0.4590  1.4476
  140MOL    H5028128   7.044   6.776   6.796 -0.6885  1.6259  0.5839
  140MOL    H5128129   6.925   6.674   6.846 -0.2151 -0.8650  1.7061
  140MOL    C5228130   6.990   6.821   7.004  0.1805  0.4403 -0.3051
  140MOL    C5328131   7.098   6.746   7.074  0.2819  0.1642 -0.2739
  140MOL    C5428132   7.227   6.772   7.065 -0.0690 -0.0883  0.1103
  140MOL    C5528133   7.329   6.703   7.144 -0.6910 -0.8799  1.0489
  140MOL    H5628134   7.012   6.927   6.998  1.9233  0.0419 -1.3196
  140MOL    H5728135   6.903   6.809   7.068  0.2526 -0.9697 -0.4479
  140MOL    H5828136   7.068   6.661   7.134  0.0954  0.0773 -0.4912
  140MOL    H5928137   7.267   6.856   7.011  0.8603 -1.6128 -1.6403
  140MOL    H6028138   7.403   6.681   7.067 -0.6663  1.1725  0.4419
  140MOL    H6128139   7.281   6.616   7.188 -1.9172 -1.1389 -0.7716
  140MOL    C6228140   7.390   6.791   7.248 -0.0869 -0.3989 -0.2029
  140MOL    C6328141   7.299   6.825   7.359  0.7130 -0.1385 -0.3285
  140MOL    C6428142   7.307   6.777   7.484 -0.2733  0.2023  0.3021
  140MOL    C6528143   7.203   6.810   7.595 -0.5815 -0.5926 -0.0316
  140MOL    H6628144   7.474   6.728   7.277  0.4493  0.3754 -0.0831
  140MOL    H6728145   7.421   6.884   7.200 -0.3376 -0.1150  0.1809
  140MOL    H6828146   7.222   6.894   7.326  0.4017  0.8328  2.3426
  140MOL    H6928147   7.387   6.706   7.497 -2.9467 -2.8061  0.7179
  140MOL    H7028148   7.122   6.875   7.562 -1.1586 -0.2502  1.9897
  140MOL    H7128149   7.250   6.870   7.671  1.3709 -1.4562 -0.5246
  140MOL    C7228150   7.141   6.689   7.667 -0.6601 -0.1890  0.2080
  140MOL    C7328151   7.043   6.600   7.592  0.2348  0.2104 -0.2305
  140MOL    C7428152   6.970   6.640   7.485  0.6317 -0.0566 -0.6652
  140MOL    C7528153   6.863   6.557   7.406  0.0953 -0.3907 -0.2741
  140MOL    H7628154   7.225   6.621   7.680 -0.6901 -0.2563  0.0488
  140MOL    H7728155   7.116   6.709   7.771  1.2328  0.4303  0.5601
  140MOL    H7828156   7.026   6.510   7.650  2.2795 -0.3007 -0.3841
  140MOL    H7928157   6.972   6.739   7.443  0.3111 -0.0327 -0.6275
  140MOL    H8028158   6.910   6.531   7.312  0.5494  0.6440 -0.3393
  140MOL    H8128159   6.770   6.605   7.377 -0.7985 -1.3646  0.9080
  140MOL    C8228160   6.829   6.428   7.478 -0.6018  0.1045 -0.5274
  140MOL    C8328161   6.724   6.352   7.409 -0.3649 -0.1166  0.5458
  140MOL    C8428162   6.743   6.238   7.344  0.2038  0.4398 -0.5896
  140MOL    C8528163   6.642   6.170   7.265  0.6855 -0.1326 -0.1559
  140MOL    H8628164   6.922   6.372   7.489 -0.0113  1.0783 -0.5858
  140MOL    H8728165   6.776   6.447   7.571 -0.6049 -0.1999 -0.4648
  140MOL    H8828166   6.633   6.409   7.408  0.9250  1.9942  0.8691
  140MOL    H8928167   6.844   6.200   7.337  0.1982  0.3444 -0.1191
  140MOL    H9028168   6.631   6.075   7.318  0.5909 -0.7290 -1.2074
  140MOL    H9128169   6.673   6.150   7.162  0.5331  1.6380 -0.5554
  140MOL    C9228170   6.506   6.248   7.258 -0.6528  0.2406  0.6025
  140MOL    C9328171   6.394   6.165   7.201 -0.0692 -0.2490 -0.1760
  140MOL    C9428172   6.316   6.204   7.097 -0.2970 -0.5053 -0.2529
  140MOL    C9528173   6.204   6.128   7.035 -0.3626  0.6048 -0.0864
  140MOL    H9628174   6.472   6.266   7.360 -2.1799 -1.6276  0.4639
  140MOL    H9728175   6.518   6.342   7.204 -3.1763 -0.6040 -1.5921
  140MOL    H9828176   6.371   6.069   7.245  0.3023  0.3672  1.3952
  140MOL    H9928177   6.335   6.301   7.053  0.4365 -0.3015  0.4970
  140MOL   H10028178   6.122   6.199   7.039  0.7960  1.9890 -0.6601
  140MOL   H10128179   6.188   6.032   7.084  1.5273  1.2149  1.8033
  140MOL   C10228180   6.238   6.107   6.886  0.6701  0.1392 -0.6222
  140MOL   C10328181   6.141   6.169   6.791  0.4066  1.0961  0.1830
  140MOL   C10428182   6.179   6.267   6.698 -0.1227 -0.0856 -0.4341
  140MOL   C10528183   6.097   6.312   6.581  0.1041 -0.4022 -0.3983
  140MOL   H10628184   6.340   6.136   6.861  1.1841 -0.9004  0.2415
  140MOL   H10728185   6.233   5.999   6.870 -0.7364  0.0715  0.2264
  140MOL   H10828186   6.042   6.127   6.782  0.8995 -0.7893  3.0964
  140MOL   H10928187   6.279   6.306   6.711  0.3988 -1.5730  0.1554
  140MOL   H11028188   6.002   6.258   6.578  1.4426 -2.8061 -0.5997
  140MOL   H11128189   6.155   6.288   6.492 -0.3845 -0.4656 -0.7030
  140MOL   C11228190   6.084   6.463   6.588  0.1833 -0.6519 -0.0935
  140MOL   C11328191   5.992   6.523   6.483 -1.2382 -0.6176  0.4312
  140MOL   C11428192   6.027   6.603   6.381 -0.0151  0.0579 -0.4214
  140MOL   C11528193   5.923   6.656   6.281  0.2981  0.0834  0.2705
  140MOL   H11628194   6.040   6.502   6.680 -1.2554 -2.7629  0.1670
  140MOL   H11728195   6.184   6.503   6.571  0.9924 -2.7385 -0.4224
  140MOL   H11828196   5.886   6.508   6.500 -1.0432 -1.5448  0.8456
  140MOL   H11928197   6.131   6.625   6.364  1.0041 -3.6392  0.4441
  140MOL   H12028198   5.935   6.764   6.273  1.4238 -0.1038 -0.7577
  140MOL   H12128199   5.820   6.634   6.311  0.5895 -1.1214  0.4210
  140MOL   C12228200   5.956   6.582   6.150  0.4644 -0.5958  0.1943
  140MOL   C12328201   5.884   6.638   6.033  0.0779  0.0982  0.7444
  140MOL   C12428202   5.793   6.573   5.950 -0.5880  0.0246  0.2379
  140MOL   C12528203   5.739   6.618   5.816  0.5251  0.2545  0.4057
  140MOL   H12628204   6.064   6.579   6.134  0.6253  0.2989  1.0853
  140MOL   H12728205   5.937   6.475   6.157  0.5817 -0.6512 -0.2807
  140MOL   H12828206   5.920   6.730   5.988 -0.2847  0.3065  0.8828
  140MOL   H12928207   5.756   6.477   5.984 -3.0136  0.9480  0.2607
  140MOL   H13028208   5.780   6.553   5.739  1.5700 -2.5069  3.1722
  140MOL   H13128209   5.772   6.720   5.797 -2.8487  1.4118  0.4274
  140MOL   C13228210   5.586   6.604   5.803 -0.1130  0.1883 -0.1446
  140MOL   C13328211   5.518   6.706   5.895 -0.5871  0.3485  0.2906
  140MOL   C13428212   5.446   6.812   5.849  0.1697  0.6648 -0.1916
  140MOL   C13528213   5.388   6.917   5.937 -0.1545  0.1866 -0.2990
  140MOL   H13628214   5.561   6.627   5.699  1.8804  1.8085 -0.3187
  140MOL   H13728215   5.549   6.503   5.818  2.0602 -0.7102 -0.6553
  140MOL   H13828216   5.533   6.697   6.001 -2.3090  0.9786  0.6162
  140MOL   H13928217   5.421   6.812   5.744  0.3502 -2.4817 -0.2994
  140MOL   H14028218   5.403   7.010   5.882  0.9412  0.2047  0.0327
  140MOL   H14128219   5.450   6.923   6.026  0.0446 -0.2574 -0.4097
  140MOL   C14228220   5.239   6.895   5.968 -0.0436 -0.4651  0.3953
  140MOL   C14328221   5.143   6.924   5.849 -0.5224  0.2853 -0.6495
  140MOL   C14428222   5.029   6.986   5.864  0.1781  0.1671 -0.6962
  140MOL   C14528223   4.941   7.020   5.741 -0.0237 -0.5228 -0.4198
  140MOL   H14628224   5.216   6.794   6.001 -0.1953 -1.0598 -1.5008
  140MOL   H14728225   5.215   6.968   6.045  2.3350  0.3621  0.4112
  140MOL   H14828226   5.180   6.882   5.756  3.7465 -3.4197  2.5173
  140MOL   H14928227   5.002   7.030   5.959 -0.1970  0.1942 -0.8128
  140MOL   H15028228   4.979   6.966   5.655 -0.1732  0.5423 -1.1633
  140MOL   H15128229   4.948   7.125   5.712  1.6459 -0.1390  1.2590
  140MOL   C15228230   4.794   6.971   5.772  0.4730 -0.8105  0.6191
  140MOL   C15328231   4.704   6.946   5.658  0.4537 -0.2190  0.5980
  140MOL   C15428232   4.641   6.827   5.639  0.4508 -0.6759  0.1989
  140MOL   C15528233   4.550   6.790   5.532  0.1828  0.0365  0.3310
  140MOL   H15628234   4.805   6.886   5.839 -0.0428 -0.1540  1.5481
  140MOL   H15728235   4.748   7.050   5.832 -0.9716 -0.1500 -1.2826
  140MOL   H15828236   4.686   7.031   5.594 -1.0418  0.4537  1.8736
  140MOL   H15928237   4.653   6.744   5.706  0.6559 -0.6707  0.1682
  140MOL   H16028238   4.509   6.880   5.486 -2.4223 -0.6105  1.3196
  140MOL   H16128239   4.468   6.738   5.581  0.1580 -1.9436 -1.7546
  140MOL   C16228240   4.611   6.686   5.431 -0.4585  0.9472 -0.5787
  140MOL   C16328241   4.720   6.750   5.350 -0.0449  0.5241 -0.1133
  140MOL   C16428242   4.738   6.715   5.224 -0.3371  0.1253  0.3714
  140MOL   C16528243   4.848   6.773   5.139  0.1705  0.6289  0.1352
  140MOL   H16628244   4.656   6.606   5.490 -1.1716  1.1774  0.2889
  140MOL   H16728245   4.523   6.650   5.377 -0.0785  1.7126 -1.7186
  140MOL   H16828246   4.793   6.810   5.402 -0.0921 -0.4888  1.1544
  140MOL   H16928247   4.669   6.644   5.180  1.1375  0.2535 -2.2944
  140MOL   H17028248   4.910   6.686   5.113 -1.0396 -0.8559  2.1150
  140MOL   H17128249   4.903   6.854   5.187  0.5327  0.1644  0.5055
  140MOL   C17228250   4.787   6.828   5.006  0.3855  0.1842  0.3376
  140MOL   C17328251   4.890   6.868   4.909  0.2251 -0.0385 -0.0532
  140MOL   C17428252   4.886   6.982   4.834 -0.2474  0.0586 -0.6744
  140MOL   C17528253   4.977   7.020   4.721  0.1142 -0.1899  0.0775
  140MOL   H17628254   4.731   6.754   4.948 -1.0576  1.6768 -0.1984
  140MOL   H17728255   4.735   6.919   5.035  2.5430  1.0218  1.6871
  140MOL   H17828256   4.974   6.801   4.897 -0.4899 -0.9758  0.0872
  140MOL   H17928257   4.795   7.040   4.845  0.1135  0.5100 -0.1069
  140MOL   H18028258   4.925   7.099   4.666 -0.6556  0.8113  2.1765
  140MOL   H18128259   4.977   6.937   4.651 -1.0236 -0.6484  0.6024
  140MOL   C18228260   5.119   7.050   4.767  0.1163 -0.3441  0.7419
  140MOL   C18328261   5.219   7.069   4.659 -0.4440  0.3548 -1.0226
  140MOL   C18428262   5.312   7.168   4.649  0.6740  0.2722 -0.4969
  140MOL   C18528263   5.424   7.163   4.543 -0.6712 -0.3923  0.1702
  140MOL   H18628264   5.143   7.131   4.835  0.4256 -0.4526  0.7657
  140MOL   H18728265   5.153   6.965   4.827  0.5607  0.3412  1.4709
  140MOL   H18828266   5.213   6.988   4.588  1.1381 -0.6316 -0.0602
  140MOL   H18928267   5.324   7.243   4.725 -1.1514  0.9490 -0.8421
  140MOL   H19028268   5.433   7.262   4.498  1.1007  0.8054  3.0056
  140MOL   H19128269   5.393   7.094   4.465 -0.4804 -0.2292 -0.0523
  140MOL   C19228270   5.566   7.131   4.615  0.5324 -0.3561 -0.6087
  140MOL   C19328271   5.672   7.214   4.546 -0.1350  0.3140 -0.2212
  140MOL   C19428272   5.752   7.298   4.611  0.1851 -0.5153 -0.2223
  140MOL   C19528273   5.851   7.383   4.528  0.2624 -0.2947 -0.3072
  140MOL   H19628274   5.541   7.173   4.713 -1.5267 -0.1465 -1.2035
  140MOL   H19728275   5.587   7.024   4.623  1.4812 -0.2899 -2.2388
  140MOL   H19828276   5.679   7.212   4.438  0.3716 -0.2293 -0.1787
  140MOL   H19928277   5.753   7.322   4.716  1.0170 -1.0671 -0.1015
  140MOL   H20028278   5.837   7.381   4.420 -0.7271 -3.3244 -0.1707
  140MOL   H20128279   5.954   7.350   4.539 -0.3028 -2.5868 -1.5838
  140MOL   H20228280   5.846   7.490   4.546 -0.1978 -0.1322 -1.3330
  141MOL     C128281   5.815   2.899   2.697 -0.1327  0.1447  0.3208
  141MOL     C228282   5.728   3.022   2.725  0.2958 -0.9235 -1.0609
  141MOL     C328283   5.731   3.099   2.832 -0.7644  0.0405  0.7668
  141MOL     C428284   5.647   3.222   2.856  1.0671  0.0988 -0.1050
  141MOL     H528285   5.845   2.856   2.792  0.4215  2.0726  1.0384
  141MOL     H628286   5.909   2.933   2.655  0.7360 -0.0505  2.0486
  141MOL     H728287   5.663   3.057   2.646 -0.0410 -0.9213 -0.7883
  141MOL     H828288   5.793   3.071   2.916 -0.3194  1.9949  1.1110
  141MOL     H928289   5.697   3.318   2.861 -2.5934  1.9320  3.3658
  141MOL    H1028290   5.623   3.213   2.961  0.0470  0.0575 -0.3405
  141MOL    H1128291   5.771   2.823   2.633 -0.5104  0.2766  0.4236
  141MOL    C1228292   5.524   3.241   2.768  0.2797  0.2211 -0.5445
  141MOL    C1328293   5.434   3.354   2.811 -0.0771  0.8239  0.2336
  141MOL    C1428294   5.308   3.346   2.852  0.2518 -0.5595  0.3218
  141MOL    C1528295   5.233   3.471   2.886  0.4463 -0.5301 -0.0940
  141MOL    H1628296   5.548   3.244   2.661 -0.3430 -0.9202 -0.7191
  141MOL    H1728297   5.466   3.152   2.790  0.9914  0.4426  2.3585
  141MOL    H1828298   5.478   3.453   2.817 -0.5509  0.9230  2.4831
  141MOL    H1928299   5.250   3.257   2.867  1.2060 -1.0119  1.3824
  141MOL    H2028300   5.292   3.563   2.890  0.3562 -0.4810  0.0979
  141MOL    H2128301   5.178   3.456   2.979 -2.0800  1.7485 -1.1828
  141MOL    C2228302   5.114   3.509   2.796  0.4752  0.5565  0.8055
  141MOL    C2328303   5.014   3.393   2.783  0.1803  1.5003  0.0175
  141MOL    C2428304   4.884   3.398   2.832 -0.4087  0.1353  0.0410
  141MOL    C2528305   4.785   3.280   2.823 -0.5443 -0.2684 -1.1660
  141MOL    H2628306   5.072   3.595   2.849  0.4130  0.0042  1.6690
  141MOL    H2728307   5.147   3.541   2.697 -0.3217 -2.9560 -0.6489
  141MOL    H2828308   5.041   3.298   2.740 -2.0293  0.8469  0.0264
  141MOL    H2928309   4.853   3.491   2.878 -3.2914 -0.2589 -1.0572
  141MOL    H3028310   4.825   3.193   2.771  2.9138  1.2798 -1.2469
  141MOL    H3128311   4.705   3.313   2.756 -1.4521 -2.7105 -1.3523
  141MOL    C3228312   4.726   3.234   2.961  0.3643 -0.6104 -0.1900
  141MOL    C3328313   4.594   3.152   2.936 -0.1598  0.7691 -0.3667
  141MOL    C3428314   4.485   3.204   2.883 -0.3973 -0.1852  0.2743
  141MOL    C3528315   4.355   3.127   2.867  0.2407 -0.4920 -0.1091
  141MOL    H3628316   4.803   3.183   3.018  0.6717  0.7633  0.6247
  141MOL    H3728317   4.705   3.325   3.017  0.3220  0.9462 -2.6463
  141MOL    H3828318   4.579   3.052   2.976 -1.9784  1.5313  0.8984
  141MOL    H3928319   4.488   3.302   2.838 -0.6547 -0.4608 -0.3518
  141MOL    H4028320   4.368   3.031   2.918  4.1442 -0.3843 -0.8103
  141MOL    H4128321   4.345   3.128   2.759 -0.8722  1.0846 -0.0088
  141MOL    C4228322   4.228   3.206   2.918  0.0097  1.0867  0.1953
  141MOL    C4328323   4.113   3.119   2.910 -0.4185 -0.3977 -0.7541
  141MOL    C4428324   4.060   3.052   3.014 -0.0779  0.1357  0.3378
  141MOL    C4528325   3.934   2.966   2.985 -0.2236 -0.3720 -0.1164
  141MOL    H4628326   4.236   3.251   3.018 -0.3342 -1.0773  1.2276
  141MOL    H4728327   4.228   3.298   2.860 -3.0431  1.5160  0.7919
  141MOL    H4828328   4.073   3.097   2.812  1.3584  0.2066 -1.6327
  141MOL    H4928329   4.096   3.076   3.113  1.5917 -0.7655 -0.0348
  141MOL    H5028330   3.862   3.028   2.933  1.6634  1.8871 -0.1054
  141MOL    H5128331   3.885   2.942   3.079 -2.1183 -0.5936 -1.1489
  141MOL    C5228332   3.973   2.845   2.905  0.4220  0.0633 -0.2340
  141MOL    C5328333   3.857   2.755   2.869  0.3872 -0.8889  0.0658
  141MOL    C5428334   3.846   2.623   2.904  1.3226 -0.0720 -0.6403
  141MOL    C5528335   3.726   2.533   2.888  0.2903 -0.4773  0.3724
  141MOL    H5628336   4.016   2.874   2.809  1.4926 -1.9139 -0.3787
  141MOL    H5728337   4.043   2.778   2.954 -0.1479 -0.9987 -0.8580
  141MOL    H5828338   3.769   2.803   2.828 -1.4261 -3.5271  0.7187
  141MOL    H5928339   3.930   2.582   2.958 -0.1310  0.2318  1.9333
  141MOL    H6028340   3.639   2.592   2.860  0.3822 -0.1274  0.8372
  141MOL    H6128341   3.713   2.490   2.987  0.9749 -1.8015 -0.0999
  141MOL    C6228342   3.755   2.415   2.791  0.4118 -0.1875  0.5978
  141MOL    C6328343   3.846   2.305   2.855  0.3756 -0.6758 -0.1942
  141MOL    C6428344   3.939   2.241   2.784  0.3095 -0.2246 -0.0591
  141MOL    C6528345   4.035   2.129   2.825 -0.3041  0.9437 -0.4595
  141MOL    H6628346   3.661   2.368   2.764  0.8524 -1.7762  1.7666
  141MOL    H6728347   3.797   2.456   2.699  0.5452  1.4105  1.3458
  141MOL    H6828348   3.818   2.286   2.957  0.7542 -1.4006 -0.2247
  141MOL    H6928349   3.954   2.274   2.683  0.6527  0.7362  0.3067
  141MOL    H7028350   4.029   2.061   2.740 -0.2710  0.1737  0.1556
  141MOL    H7128351   3.998   2.069   2.908  0.2102  0.3441 -0.6598
  141MOL    C7228352   4.175   2.181   2.867 -0.1357 -0.2973 -0.2007
  141MOL    C7328353   4.277   2.072   2.860  0.6912 -0.1001 -0.0597
  141MOL    C7428354   4.314   1.995   2.963 -0.1847  0.6540 -0.2651
  141MOL    C7528355   4.429   1.898   2.965  0.0330  0.3769 -0.2686
  141MOL    H7628356   4.211   2.263   2.805  0.6469  1.7018  2.8013
  141MOL    H7728357   4.168   2.207   2.973 -0.0780 -2.0546  0.2454
  141MOL    H7828358   4.315   2.060   2.759  0.4415  1.3435 -0.3382
  141MOL    H7928359   4.270   2.014   3.060 -0.7804  0.3481 -0.4734
  141MOL    H8028360   4.478   1.913   2.869 -1.3907 -2.0694 -1.4146
  141MOL    H8128361   4.407   1.792   2.973  0.0011  0.4399  0.5389
  141MOL    C8228362   4.527   1.944   3.068  0.6194  0.7830  0.0400
  141MOL    C8328363   4.653   1.855   3.055  0.8796 -0.8004  0.6084
  141MOL    C8428364   4.691   1.756   3.142  0.8144 -0.3677 -0.3384
  141MOL    C8528365   4.815   1.677   3.126 -0.1950  0.3626 -0.4190
  141MOL    H8628366   4.550   2.050   3.060 -0.8680  1.0361 -1.0378
  141MOL    H8728367   4.481   1.920   3.164  2.4600 -0.9479  0.5197
  141MOL    H8828368   4.720   1.889   2.977 -0.0578  0.4180  0.3250
  141MOL    H8928369   4.619   1.746   3.221  1.6410 -0.9468  0.3590
  141MOL    H9028370   4.849   1.641   3.223 -0.1222  0.5335 -0.3800
  141MOL    H9128371   4.897   1.739   3.089  2.0398 -0.8518  2.3373
  141MOL    C9228372   4.803   1.546   3.044  0.5445 -0.6111  0.1784
  141MOL    C9328373   4.933   1.468   3.014 -0.4205 -0.5654 -0.0924
  141MOL    C9428374   5.055   1.483   3.065 -0.1483  0.3025 -0.9109
  141MOL    C9528375   5.175   1.421   3.001 -0.1885 -0.1109  0.6315
  141MOL    H9628376   4.730   1.482   3.094  0.4596 -0.1890  0.5892
  141MOL    H9728377   4.762   1.582   2.949 -0.4261 -0.8991  0.4771
  141MOL    H9828378   4.926   1.399   2.931 -1.8733  0.8516 -1.1873
  141MOL    H9928379   5.077   1.549   3.148  1.6742 -0.0738 -1.0800
  141MOL   H10028380   5.150   1.378   2.904  1.5162  0.6019 -0.1412
  141MOL   H10128381   5.223   1.342   3.058  0.7914 -0.9019 -1.2490
  141MOL   C10228382   5.290   1.516   2.959  0.5904 -0.2262  0.7164
  141MOL   C10328383   5.266   1.589   2.837 -0.2574  0.3078  0.4410
  141MOL   C10428384   5.155   1.663   2.802  0.4940  0.1053 -0.0367
  141MOL   C10528385   5.143   1.760   2.684 -0.3704  0.1649  0.6021
  141MOL   H10628386   5.331   1.594   3.023  1.1255 -0.6105  0.8433
  141MOL   H10728387   5.376   1.455   2.931  1.3212  1.2584 -0.3224
  141MOL   H10828388   5.357   1.604   2.781 -0.6897 -2.2357 -0.9956
  141MOL   H10928389   5.067   1.653   2.863  0.7959  1.5018  0.6580
  141MOL   H11028390   5.066   1.732   2.612 -0.7765  1.8633  0.3542
  141MOL   H11128391   5.238   1.761   2.631 -1.1086  0.7857 -0.7494
  141MOL   C11228392   5.114   1.903   2.730  0.2007 -0.7320 -0.1809
  141MOL   C11328393   5.087   1.997   2.618  0.3752  0.1134 -0.1811
  141MOL   C11428394   4.969   2.056   2.602 -0.2092  0.0101 -0.9306
  141MOL   C11528395   4.944   2.133   2.484 -0.0695 -0.0582  0.4619
  141MOL   H11628396   5.031   1.900   2.801  1.9294  0.8956  1.9657
  141MOL   H11728397   5.204   1.937   2.782  0.3188  0.7015 -1.2981
  141MOL   H11828398   5.177   2.014   2.560  0.4663  1.1921  0.2752
  141MOL   H11928399   4.884   2.030   2.664  0.8633 -0.5123  0.3505
  141MOL   H12028400   5.034   2.164   2.430  0.2195  2.5557  2.3176
  141MOL   H12128401   4.909   2.227   2.527 -2.1390 -0.6660  0.1433
  141MOL   C12228402   4.850   2.048   2.394  0.4057 -0.4060  0.6065
  141MOL   C12328403   4.828   2.099   2.257 -0.7074 -0.0075 -0.3117
  141MOL   C12428404   4.851   2.216   2.199 -0.0206  0.7198  0.5551
  141MOL   C12528405   4.830   2.238   2.053  0.1369 -0.5128  0.3028
  141MOL   H12628406   4.891   1.948   2.381  0.5124 -0.4186  1.0258
  141MOL   H12728407   4.752   2.028   2.438 -0.5368 -1.1381 -1.7557
  141MOL   H12828408   4.793   2.023   2.188  0.2680 -1.6257  0.9297
  141MOL   H12928409   4.891   2.298   2.258 -0.0163  0.7219  0.5492
  141MOL   H13028410   4.748   2.309   2.045  0.2231 -0.2318  1.7713
  141MOL   H13128411   4.797   2.141   2.013  1.8030 -1.4515  1.1453
  141MOL   C13228412   4.959   2.272   1.981  0.3714 -0.2480 -0.3560
  141MOL   C13328413   5.056   2.162   1.950 -0.1090  1.1935 -0.7430
  141MOL   C13428414   5.136   2.103   2.043  0.0107  0.1988 -0.5658
  141MOL   C13528415   5.224   1.989   2.011  0.0994 -0.6062 -0.4205
  141MOL   H13628416   4.937   2.324   1.888  1.5745  0.6608 -0.1316
  141MOL   H13728417   5.019   2.345   2.035  2.5452 -1.5313 -0.9570
  141MOL   H13828418   5.059   2.116   1.852  2.8941  0.1777 -0.2322
  141MOL   H13928419   5.141   2.128   2.148  0.3365 -0.1174 -0.5072
  141MOL   H14028420   5.326   2.020   2.036  0.2115 -0.3212 -1.2205
  141MOL   H14128421   5.221   1.968   1.904 -1.1571 -0.5884 -0.3972
  141MOL   C14228422   5.192   1.859   2.097  0.8129  0.2585 -0.4953
  141MOL   C14328423   5.301   1.761   2.097 -0.2366  0.4929  0.8506
  141MOL   C14428424   5.366   1.724   2.209  0.0841 -0.2285 -0.1486
  141MOL   C14528425   5.487   1.639   2.217 -0.5445  0.5212  0.7021
  141MOL   H14628426   5.165   1.890   2.198  1.8721 -2.1873  0.5871
  141MOL   H14728427   5.098   1.815   2.064 -0.2104  0.9358  1.4486
  141MOL   H14828428   5.334   1.718   2.003 -1.9283 -1.2476  1.0273
  141MOL   H14928429   5.332   1.766   2.302  0.5187  2.1947 -1.0243
  141MOL   H15028430   5.510   1.597   2.119 -0.1615  1.9292  0.1618
  141MOL   H15128431   5.468   1.554   2.282 -0.5324  0.5470  0.7389
  141MOL   C15228432   5.612   1.706   2.272 -0.4084  0.1174  0.0520
  141MOL   C15328433   5.595   1.765   2.416  0.0989 -0.0376 -1.2429
  141MOL   C15428434   5.564   1.893   2.444 -0.0148  0.1707 -0.1042
  141MOL   C15528435   5.538   1.953   2.588 -0.8872  0.2648  0.3927
  141MOL   H15628436   5.695   1.636   2.286  0.4713  0.5625 -2.5826
  141MOL   H15728437   5.648   1.787   2.209  1.6741 -0.4080  0.5247
  141MOL   H15828438   5.596   1.691   2.494 -3.6596  0.5013 -0.6304
  141MOL   H15928439   5.547   1.947   2.352  1.7488 -1.5145 -1.4743
  141MOL   H16028440   5.441   1.919   2.622 -1.3182 -0.6425 -1.6484
  141MOL   H16128441   5.549   2.061   2.571  1.4301  0.0114  0.0169
  141MOL   C16228442   5.648   1.909   2.688  0.1517 -0.2830 -0.0335
  141MOL   C16328443   5.632   1.967   2.830  0.0576 -0.7787 -0.3384
  141MOL   C16428444   5.521   2.033   2.875  0.2053  0.1816  0.7533
  141MOL   C16528445   5.503   2.093   3.016 -0.5329  0.0128 -0.1557
  141MOL   H16628446   5.635   1.802   2.700 -1.8669  0.0230  0.6528
  141MOL   H16728447   5.748   1.937   2.654 -0.3745  2.0183  0.1973
  141MOL   H16828448   5.717   1.957   2.897  0.8949  1.4316 -1.0191
  141MOL   H16928449   5.437   2.041   2.809  1.5204 -1.4360 -1.1928
  141MOL   H17028450   5.481   2.199   2.998 -1.4522 -0.2052 -0.3689
  141MOL   H17128451   5.596   2.103   3.072 -1.2706 -2.0517  1.5074
  141MOL   C17228452   5.403   2.010   3.096  0.2321 -0.2091 -0.2859
  141MOL   C17328453   5.461   1.871   3.137 -0.2475  0.1314  0.1392
  141MOL   C17428454   5.461   1.833   3.263 -0.0691 -0.1383  0.5943
  141MOL   C17528455   5.523   1.709   3.324  0.9926  0.5955 -0.1478
  141MOL   H17628456   5.351   2.053   3.182  1.2815  0.4051  0.0520
  141MOL   H17728457   5.331   1.977   3.021 -0.3756  4.2264 -1.8275
  141MOL   H17828458   5.508   1.817   3.057 -2.8744  0.4134 -1.6393
  141MOL   H17928459   5.395   1.893   3.323  1.7871  2.0903  0.4525
  141MOL   H18028460   5.564   1.730   3.423 -1.2309 -1.6094  1.2832
  141MOL   H18128461   5.608   1.682   3.261  0.7864 -1.3969  0.4098
  141MOL   C18228462   5.424   1.596   3.312  0.4888 -0.7391  0.2645
  141MOL   C18328463   5.448   1.470   3.381  0.0502  0.8442  0.3217
  141MOL   C18428464   5.400   1.351   3.342  0.7007  0.6396 -0.7453
  141MOL   C18528465   5.450   1.214   3.380 -0.1822 -0.3093  0.2395
  141MOL   H18628466   5.329   1.643   3.339  0.1487 -0.3394 -1.5670
  141MOL   H18728467   5.418   1.575   3.206  0.5563 -2.1610  0.5325
  141MOL   H18828468   5.527   1.471   3.456  0.2248  5.5603  0.2583
  141MOL   H18928469   5.325   1.349   3.264  0.5900  1.6920 -0.6691
  141MOL   H19028470   5.488   1.213   3.483  0.1102  0.6333  0.1455
  141MOL   H19128471   5.531   1.182   3.315 -0.6615  0.7323 -0.8780
  141MOL   C19228472   5.338   1.103   3.385  0.3896 -0.0446 -0.1443
  141MOL   C19328473   5.230   1.145   3.483  0.6689 -0.3326 -0.1295
  141MOL   C19428474   5.231   1.129   3.616  0.5166  0.5239  0.2679
  141MOL   C19528475   5.122   1.168   3.702 -0.1147 -0.2511 -0.0632
  141MOL   H19628476   5.291   1.113   3.288  1.2918  2.1475 -0.3890
  141MOL   H19728477   5.382   1.005   3.402  3.1849  0.5434 -3.3607
  141MOL   H19828478   5.140   1.189   3.443  0.4232 -0.7568 -0.0434
  141MOL   H19928479   5.320   1.084   3.658 -1.1704  0.4909  3.9645
  141MOL   H20028480   5.090   1.079   3.756  1.7011 -1.2703 -0.6330
  141MOL   H20128481   5.038   1.211   3.646  0.6899 -0.0777 -1.1608
  141MOL   H20228482   5.155   1.245   3.771 -1.8393 -0.3692  0.9213
  142MOL     C128483   0.134   3.194   4.576  0.0937 -0.4094  0.0520
  142MOL     C228484   0.097   3.314   4.481  0.3273  0.3934 -0.1976
  142MOL     C328485   0.002   3.407   4.515  0.4289 -0.2286  0.4068
  142MOL     C428486   7.938   3.514   4.412  0.7524  0.0280 -0.5254
  142MOL     H528487   0.134   3.100   4.521 -1.8294 -0.3460 -0.1154
  142MOL     H628488   0.052   3.193   4.648 -0.1989  2.4296 -0.1874
  142MOL     H728489   0.130   3.305   4.378  2.0663  1.7612  0.2115
  142MOL     H828490   7.926   3.429   4.606  0.2955 -1.2332  0.5762
  142MOL     H928491   7.830   3.533   4.411  0.8483  0.7578 -4.0773
  142MOL    H1028492   7.972   3.491   4.311 -0.6422  3.5607 -1.8891
  142MOL    H1128493   0.229   3.203   4.628  0.5344  0.1475 -0.8323
  142MOL    C1228494   0.021   3.650   4.448  0.2883 -0.2040  0.4002
  142MOL    C1328495   7.953   3.754   4.348 -0.5788 -0.7461 -0.1706
  142MOL    C1428496   7.851   3.839   4.367 -0.0382 -0.9889 -0.7355
  142MOL    C1528497   7.786   3.935   4.271 -0.1659  0.9410 -0.4179
  142MOL    H1628498   7.958   3.687   4.543  2.0371 -0.2187  1.1594
  142MOL    H1728499   0.128   3.634   4.459  0.6697  2.4583  0.8588
  142MOL    H1828500   0.031   3.756   4.255  0.2272 -0.4219  0.3053
  142MOL    H1928501   7.794   3.826   4.457 -1.4473  0.7045 -1.3523
  142MOL    H2028502   7.771   3.892   4.172 -2.5038  0.7108  0.0138
  142MOL    H2128503   7.851   4.019   4.243  0.6084 -0.7026 -3.8505
  142MOL    C2228504   7.648   3.992   4.323 -0.9126  0.3514  0.7220
  142MOL    C2328505   7.584   4.082   4.220 -0.2729  0.4600  0.4266
  142MOL    C2428506   7.523   4.041   4.115 -0.9976 -0.2362 -0.0006
  142MOL    C2528507   7.451   4.138   4.026  0.0897 -0.5677  0.2925
  142MOL    H2628508   7.569   3.918   4.339 -2.3652  1.4411 -1.1654
  142MOL    H2728509   7.660   4.055   4.411  1.6096  0.0021  0.6514
  142MOL    H2828510   7.590   4.189   4.235  1.1502  0.3135  0.9599
  142MOL    H2928511   7.518   3.936   4.090 -0.4063  0.0285 -1.2704
  142MOL    H3028512   7.515   4.176   3.946  1.3295  2.8402  2.7778
  142MOL    H3128513   7.440   4.234   4.077 -1.8504 -0.2083 -0.7446
  142MOL    C3228514   7.312   4.083   3.981 -0.3747 -0.2917 -0.3655
  142MOL    C3328515   7.212   4.182   3.937 -0.1844  0.1598  0.2245
  142MOL    C3428516   7.085   4.190   3.986  0.2281  1.0178  0.8839
  142MOL    C3528517   6.974   4.290   3.950 -0.8674  0.0125 -0.0078
  142MOL    H3628518   7.318   4.018   3.894 -0.4418  0.4014 -0.8875
  142MOL    H3728519   7.263   4.021   4.056 -0.1493  0.7750  0.6746
  142MOL    H3828520   7.245   4.260   3.869  1.9065 -0.3069  0.6805
  142MOL    H3928521   7.049   4.115   4.056  0.0344 -1.0387 -1.3848
  142MOL    H4028522   6.920   4.256   3.862 -2.2515  0.8919  0.4855
  142MOL    H4128523   7.027   4.382   3.929  0.1121  0.6847  4.8474
  142MOL    C4228524   6.879   4.312   4.068 -0.6164  0.5616  0.3094
  142MOL    C4328525   6.784   4.424   4.038 -0.2598  0.4174  0.5898
  142MOL    C4428526   6.738   4.496   4.137  0.8496 -0.2278  0.3238
  142MOL    C4528527   6.638   4.614   4.127  0.2478  0.1470 -0.1024
  142MOL    H4628528   6.824   4.220   4.089 -1.6789  0.2463 -3.4519
  142MOL    H4728529   6.929   4.338   4.161  0.4363  1.8703 -0.6061
  142MOL    H4828530   6.753   4.439   3.936  0.4823 -1.1797  0.0995
  142MOL    H4928531   6.775   4.458   4.231  1.6367  1.1367  0.5806
  142MOL    H5028532   6.615   4.643   4.025  1.2677  3.0635  0.4512
  142MOL    H5128533   6.682   4.710   4.151  0.9074 -0.0975 -0.3183
  142MOL    C5228534   6.507   4.594   4.213 -0.2647 -0.4460  0.6827
  142MOL    C5328535   6.420   4.720   4.227 -0.2188  0.0333  0.1623
  142MOL    C5428536   6.329   4.761   4.141 -0.8094  0.5355 -0.2290
  142MOL    C5528537   6.229   4.872   4.178 -0.8992  0.1272  0.4102
  142MOL    H5628538   6.447   4.512   4.173 -0.7186  0.9683 -1.6481
  142MOL    H5728539   6.523   4.551   4.312  1.0434  1.8077  1.4796
  142MOL    H5828540   6.441   4.777   4.316  1.1048  0.9991 -0.7491
  142MOL    H5928541   6.303   4.707   4.051  2.6900 -1.4243 -0.1667
  142MOL    H6028542   6.244   4.916   4.276  2.5062 -0.9029  0.4055
  142MOL    H6128543   6.129   4.829   4.169 -0.6430 -0.6050  0.9941
  142MOL    C6228544   6.242   4.983   4.069  0.0982  0.4054 -0.1690
  142MOL    C6328545   6.188   5.117   4.119  0.1220 -0.4502 -0.7134
  142MOL    C6428546   6.058   5.143   4.126  0.2879  0.3113 -0.3192
  142MOL    C6528547   5.985   5.267   4.183 -0.0121  0.0366 -0.3689
  142MOL    H6628548   6.348   4.994   4.045  0.5417 -2.0183  0.5322
  142MOL    H6728549   6.195   4.960   3.973  0.8291 -4.0494  0.4390
  142MOL    H6828550   6.257   5.189   4.161 -1.2815 -0.2528  1.3197
  142MOL    H6928551   5.987   5.070   4.091 -0.4654  1.4731 -1.2416
  142MOL    H7028552   6.054   5.334   4.235  1.0928 -2.3789  1.3572
  142MOL    H7128553   5.919   5.232   4.263 -1.6709  1.6072 -0.9925
  142MOL    C7228554   5.902   5.344   4.079 -0.3644 -0.4667 -0.8206
  142MOL    C7328555   5.771   5.390   4.148  0.1393 -0.6463 -0.3176
  142MOL    C7428556   5.724   5.510   4.148 -0.2852  0.1367  0.4462
  142MOL    C7528557   5.587   5.551   4.201  0.0383 -0.3382  0.8029
  142MOL    H7628558   5.962   5.422   4.031  0.2841 -0.8799 -0.6870
  142MOL    H7728559   5.864   5.274   4.005  1.9120 -1.7783 -0.7880
  142MOL    H7828560   5.709   5.311   4.189  0.8574 -0.7330  0.6296
  142MOL    H7928561   5.779   5.586   4.095 -2.4404  0.7711 -0.9045
  142MOL    H8028562   5.589   5.649   4.249 -0.1122  0.7295 -1.3092
  142MOL    H8128563   5.556   5.475   4.272 -1.0677 -1.3811 -0.7671
  142MOL    C8228564   5.489   5.564   4.090 -0.0020  0.2996  1.0235
  142MOL    C8328565   5.349   5.608   4.141 -0.4980 -0.3470  0.4917
  142MOL    C8428566   5.315   5.733   4.139  0.8140 -0.2483  0.1344
  142MOL    C8528567   5.177   5.791   4.179  0.0331  0.2157 -0.6386
  142MOL    H8628568   5.516   5.621   4.002 -1.0439  0.2100  0.6427
  142MOL    H8728569   5.478   5.467   4.042 -2.2711  1.2150 -0.3467
  142MOL    H8828570   5.275   5.534   4.168 -0.7551 -0.2100  0.1701
  142MOL    H8928571   5.388   5.810   4.118  3.5537 -2.7795  0.0842
  142MOL    H9028572   5.117   5.708   4.216 -0.7925  0.9042 -0.4387
  142MOL    H9128573   5.131   5.831   4.089 -2.6139 -1.6944 -0.1903
  142MOL    C9228574   5.191   5.906   4.280 -0.4480 -0.0652  0.4666
  142MOL    C9328575   5.059   5.944   4.337  0.3049 -0.0650 -0.6645
  142MOL    C9428576   5.043   5.959   4.468 -0.2582 -0.3121  0.2378
  142MOL    C9528577   4.911   6.000   4.534  1.0932  0.3754  0.5959
  142MOL    H9628578   5.263   5.874   4.354 -0.0059 -0.2858 -0.0588
  142MOL    H9728579   5.217   6.003   4.236 -1.6650 -0.5582 -1.4230
  142MOL    H9828580   4.982   5.977   4.269  0.0370 -0.1480 -0.4068
  142MOL    H9928581   5.119   5.933   4.540 -1.4007  0.5810  1.7923
  142MOL   H10028582   4.888   5.922   4.606 -0.6095 -0.4495 -0.7923
  142MOL   H10128583   4.825   6.007   4.467  0.0788  1.5684  1.9855
  142MOL   C10228584   4.923   6.128   4.617 -0.3989  0.4608  0.3513
  142MOL   C10328585   4.810   6.157   4.712  0.5068  0.1612 -0.1823
  142MOL   C10428586   4.817   6.213   4.836 -1.3747  0.0224 -0.2565
  142MOL   C10528587   4.689   6.248   4.914  0.3815 -0.0963 -0.1543
  142MOL   H10628588   5.009   6.115   4.683  1.8396  1.1945 -2.3207
  142MOL   H10728589   4.952   6.213   4.555 -1.0675 -0.8901 -1.9011
  142MOL   H10828590   4.716   6.119   4.676  1.3828 -2.1933 -0.0702
  142MOL   H10928591   4.912   6.252   4.868 -1.7973  1.8594 -1.1753
  142MOL   H11028592   4.668   6.202   5.010 -0.2281 -0.5419 -0.4935
  142MOL   H11128593   4.603   6.209   4.860  1.3387 -0.3692 -1.5213
  142MOL   C11228594   4.690   6.394   4.927  0.2499 -0.0156 -0.0583
  142MOL   C11328595   4.562   6.439   4.985  0.4552 -0.1794  0.4248
  142MOL   C11428596   4.495   6.545   4.933 -0.9032  0.0610  0.0347
  142MOL   C11528597   4.382   6.621   5.000  0.5702 -0.2027 -0.5637
  142MOL   H11628598   4.773   6.432   4.987 -0.4771  3.7992 -1.3299
  142MOL   H11728599   4.708   6.440   4.830  1.4672  0.2510  0.2755
  142MOL   H11828600   4.532   6.394   5.078  0.5705  1.7028  1.3973
  142MOL   H11928601   4.525   6.595   4.842  1.1407 -1.2388 -0.0428
  142MOL   H12028602   4.358   6.565   5.090  0.8539  1.5856  0.6530
  142MOL   H12128603   4.290   6.611   4.943  0.5749  0.3173 -0.6729
  142MOL   C12228604   4.406   6.775   5.015  0.1547  0.6471 -0.1807
  142MOL   C12328605   4.291   6.852   5.083  0.1102  0.0788  0.1639
  142MOL   C12428606   4.306   6.897   5.208  0.3405  0.4445  0.1510
  142MOL   C12528607   4.208   6.965   5.294  0.9715  0.3025 -0.0480
  142MOL   H12628608   4.500   6.786   5.069  1.2016 -0.2663 -1.7957
  142MOL   H12728609   4.406   6.807   4.911  1.3156 -1.4360 -0.8564
  142MOL   H12828610   4.200   6.857   5.024  1.3943  0.9811 -1.7831
  142MOL   H12928611   4.405   6.886   5.249  0.4859 -0.3028 -0.3918
  142MOL   H13028612   4.110   6.977   5.248 -0.5882  0.2948  3.1655
  142MOL   H13128613   4.241   7.069   5.301  0.3202  0.4557  0.9611
  142MOL   C13228614   4.193   6.921   5.436 -0.1933  0.1766 -0.1295
  142MOL   C13328615   4.100   6.795   5.436 -0.4326  0.3502  0.1781
  142MOL   C13428616   3.967   6.795   5.408 -0.3023  0.0230  0.0459
  142MOL   C13528617   3.870   6.682   5.419 -0.2388 -0.1062  0.2428
  142MOL   H13628618   4.283   6.892   5.491  0.7013  0.6289 -1.3257
  142MOL   H13728619   4.151   7.004   5.493 -0.3827 -1.2498  1.8952
  142MOL   H13828620   4.141   6.698   5.464  1.4510  0.8927 -0.6189
  142MOL   H13928621   3.926   6.890   5.378 -1.3854 -0.6275 -0.5609
  142MOL   H14028622   3.907   6.614   5.496  0.7622  0.1641  0.0002
  142MOL   H14128623   3.898   6.637   5.324  2.2850  0.9795  0.4373
  142MOL   C14228624   3.723   6.722   5.440  0.1633 -0.0538 -0.2692
  142MOL   C14328625   3.644   6.612   5.511 -0.3011  0.1867  0.8560
  142MOL   C14428626   3.567   6.653   5.610  0.8890  0.2792 -0.6130
  142MOL   C14528627   3.493   6.564   5.710  0.1169 -0.9607  0.9379
  142MOL   H14628628   3.714   6.815   5.495 -1.1368 -1.0281  1.2113
  142MOL   H14728629   3.670   6.734   5.345  0.5550 -0.6987 -0.5704
  142MOL   H14828630   3.667   6.509   5.490  2.4695  1.1528 -1.1661
  142MOL   H14928631   3.553   6.759   5.626  0.0135  0.0069  0.5160
  142MOL   H15028632   3.524   6.602   5.807  1.2128 -1.6777  0.8790
  142MOL   H15128633   3.550   6.471   5.706  2.0229  0.1497  1.5542
  142MOL   C15228634   3.347   6.541   5.685  0.0421  0.1951  0.5265
  142MOL   C15328635   3.280   6.671   5.732  0.2422 -0.0929  0.1230
  142MOL   C15428636   3.200   6.685   5.843 -0.0648 -0.0585 -0.5129
  142MOL   C15528637   3.152   6.825   5.886  0.0900 -0.7893 -0.7600
  142MOL   H15628638   3.323   6.513   5.583  2.0897 -1.8691  0.5887
  142MOL   H15728639   3.315   6.460   5.750  0.4703  0.0909  0.6083
  142MOL   H15828640   3.320   6.760   5.686  0.7853 -0.5530 -0.3070
  142MOL   H15928641   3.176   6.606   5.914  1.9277  0.8099  1.1755
  142MOL   H16028642   3.157   6.898   5.804 -0.1149  0.4228  0.2939
  142MOL   H16128643   3.228   6.871   5.949 -0.3773  0.3185 -0.9811
  142MOL   C16228644   3.014   6.818   5.948 -0.1550  0.1385 -0.2450
  142MOL   C16328645   2.958   6.945   6.010  1.1266 -0.6802  0.4483
  142MOL   C16428646   2.848   7.006   5.963 -0.3816  0.0002  0.0610
  142MOL   C16528647   2.779   7.133   6.016 -0.2453 -0.3017  0.1725
  142MOL   H16628648   2.955   6.761   5.876 -0.8967 -0.6664  0.9922
  142MOL   H16728649   3.021   6.751   6.034  1.0135  1.1434  0.4512
  142MOL   H16828650   3.007   6.999   6.090  1.9666  0.7470 -0.9840
  142MOL   H16928651   2.807   6.958   5.875  0.2523 -1.1399  0.3825
  142MOL   H17028652   2.813   7.150   6.118 -1.4003 -0.6482  0.6141
  142MOL   H17128653   2.673   7.112   6.008  0.0232 -1.8909  0.7084
  142MOL   C17228654   2.815   7.263   5.936 -0.0771  0.0000  0.0020
  142MOL   C17328655   2.745   7.388   5.993 -0.3301 -0.1468 -0.2675
  142MOL   C17428656   2.681   7.479   5.920  0.4727 -0.4937  0.0773
  142MOL   C17528657   2.593   7.592   5.979  0.6102 -0.0928  0.2786
  142MOL   H17628658   2.923   7.264   5.926 -0.0587  0.5448  0.1965
  142MOL   H17728659   2.782   7.256   5.833 -1.1055  0.1821  0.3133
  142MOL   H17828660   2.742   7.400   6.101 -0.5073 -3.0835  0.0866
  142MOL   H17928661   2.670   7.462   5.813 -0.5055  2.0620 -0.2670
  142MOL   H18028662   2.564   7.590   6.084  1.2392  1.5079  0.4891
  142MOL   H18128663   2.502   7.593   5.919  1.8864  1.1243 -1.6895
  142MOL   C18228664   2.685   7.710   5.969  0.1730  0.0911 -0.1701
  142MOL   C18328665   2.592   7.826   6.008  0.1388  0.7794 -0.0185
  142MOL   C18428666   2.633   7.924   6.091 -0.1974 -0.5817  0.2370
  142MOL   C18528667   2.546   0.070   6.116 -0.6650  0.2056 -0.3149
  142MOL   H18628668   2.765   7.715   6.042  0.6928 -1.8021 -0.5843
  142MOL   H18728669   2.729   7.721   5.870 -0.9559 -0.8932 -0.8007
  142MOL   H18828670   2.494   7.815   5.965 -0.1023  0.7910  0.5309
  142MOL   H18928671   2.735   7.919   6.127 -0.0745  1.1812  0.1704
  142MOL   H19028672   2.558   0.089   6.223 -0.6902  1.0970 -0.4707
  142MOL   H19128673   2.439   0.068   6.094 -0.4925  0.7234 -1.2213
  142MOL   C19228674   2.592   0.201   6.042 -0.6192 -0.0595  0.0402
  142MOL   C19328675   2.499   0.320   6.070 -0.2434  0.1224  0.1124
  142MOL   C19428676   2.550   0.443   6.070 -0.5362 -0.0590  0.1180
  142MOL   C19528677   2.475   0.568   6.090  0.4406 -0.3851  0.1543
  142MOL   H19628678   2.695   0.232   6.060 -0.2764 -1.0553 -0.1623
  142MOL   H19728679   2.583   0.176   5.936  1.4072  0.3682 -0.2604
  142MOL   H19828680   2.395   0.303   6.091 -0.2284  1.6248  1.6123
  142MOL   H19928681   2.655   0.464   6.053 -0.7007  0.5554 -0.1588
  142MOL   H20028682   2.477   0.595   6.195 -0.5839  0.3784 -0.0134
  142MOL   H20128683   2.376   0.537   6.058  0.4907 -0.3602 -0.0261
  142MOL   H20228684   2.505   0.645   6.019  2.3890  1.9147  3.3274
  143MOL     C128685   2.031   4.968   4.258 -0.3292  0.2547  0.2199
  143MOL     C228686   1.995   5.001   4.115  0.1396  0.0218 -0.4550
  143MOL     C328687   2.041   5.108   4.043 -0.0261  0.4306  0.5367
  143MOL     C428688   2.002   5.155   3.907 -0.3387 -0.2803 -0.5482
  143MOL     H528689   1.941   4.960   4.319 -0.3285 -1.3250  0.0390
  143MOL     H628690   2.094   5.050   4.293 -0.5341  0.5110 -0.0050
  143MOL     H728691   1.915   4.940   4.077  0.3414  0.3846 -1.4944
  143MOL     H828692   2.116   5.169   4.091  0.3361  2.9215 -2.9708
  143MOL     H928693   1.918   5.093   3.874 -0.5970  0.0316 -0.4760
  143MOL    H1028694   2.086   5.139   3.839 -0.7136  2.8768 -1.8048
  143MOL    H1128695   2.077   4.870   4.269 -1.3962 -0.2620  0.1892
  143MOL    C1228696   1.930   5.285   3.915  0.2412 -0.3430 -0.4403
  143MOL    C1328697   1.860   5.318   3.785 -0.3472  0.3321  0.3398
  143MOL    C1428698   1.899   5.414   3.701  0.0259 -0.2190 -0.1373
  143MOL    C1528699   1.833   5.448   3.576 -0.1334 -0.7946 -1.0690
  143MOL    H1628700   1.838   5.286   3.974  0.1371 -0.9540 -0.5903
  143MOL    H1728701   1.992   5.364   3.957  1.3330 -1.1438 -0.5437
  143MOL    H1828702   1.774   5.258   3.755 -0.0421  0.2527 -0.4029
  143MOL    H1928703   1.986   5.475   3.720 -1.1318  1.7593 -1.0467
  143MOL    H2028704   1.740   5.392   3.571 -0.2216 -0.9896  1.6055
  143MOL    H2128705   1.902   5.416   3.499 -0.8524 -0.1479 -1.9884
  143MOL    C2228706   1.808   5.599   3.550 -0.5227  0.4541 -0.1798
  143MOL    C2328707   1.916   5.665   3.463 -0.4850 -0.2090 -0.4067
  143MOL    C2428708   2.017   5.737   3.521 -0.3752 -0.6375  0.4921
  143MOL    C2528709   2.144   5.790   3.443 -0.2222  0.0184  0.0504
  143MOL    H2628710   1.716   5.616   3.494 -0.5843  0.1866 -0.1573
  143MOL    H2728711   1.804   5.647   3.647 -1.0068  0.6870 -0.3138
  143MOL    H2828712   1.909   5.658   3.356 -2.2390 -0.5575 -0.2849
  143MOL    H2928713   2.030   5.739   3.628  0.6499 -0.2565  0.3719
  143MOL    H3028714   2.136   5.897   3.465 -1.9461  0.0641 -0.6975
  143MOL    H3128715   2.128   5.782   3.336  0.4637 -1.7912  0.0738
  143MOL    C3228716   2.274   5.733   3.502  0.2598  0.8867  0.2297
  143MOL    C3328717   2.391   5.740   3.401  0.7737  0.0947  0.4804
  143MOL    C3428718   2.468   5.634   3.377  0.6153  0.5003 -0.3024
  143MOL    C3528719   2.581   5.639   3.276 -0.8995  0.5076  0.4255
  143MOL    H3628720   2.288   5.782   3.598 -1.3219  3.0898 -0.6004
  143MOL    H3728721   2.265   5.625   3.509  0.1892  0.8386 -0.5735
  143MOL    H3828722   2.409   5.832   3.346 -0.2868 -0.1651 -0.3234
  143MOL    H3928723   2.461   5.540   3.429  0.7065 -0.0182 -1.2147
  143MOL    H4028724   2.585   5.540   3.231 -1.4648  0.1843  1.0819
  143MOL    H4128725   2.671   5.653   3.335  0.2481 -1.7942 -0.7117
  143MOL    C4228726   2.571   5.747   3.167 -0.0741 -0.5495 -0.0022
  143MOL    C4328727   2.673   5.731   3.062  0.4823 -0.0256  0.5127
  143MOL    C4428728   2.770   5.819   3.032  0.0910 -0.5515 -0.0679
  143MOL    C4528729   2.870   5.805   2.918  0.3318 -0.0336 -0.0339
  143MOL    H4628730   2.479   5.755   3.110  0.6913  1.3564 -1.0099
  143MOL    H4728731   2.587   5.847   3.207 -0.7798 -0.9967  1.4203
  143MOL    H4828732   2.657   5.645   2.998  1.3946 -0.1581  0.4606
  143MOL    H4928733   2.787   5.908   3.090 -0.1378 -1.8618  2.0617
  143MOL    H5028734   2.829   5.728   2.853 -0.3004 -1.3154  1.8280
  143MOL    H5128735   2.965   5.762   2.952  1.4860  0.2223 -2.7855
  143MOL    C5228736   2.889   5.943   2.846 -0.0710 -0.0307 -0.3793
  143MOL    C5328737   2.975   5.929   2.722  0.3090 -0.0379 -0.6020
  143MOL    C5428738   3.065   6.021   2.688  0.6468 -0.9071  0.9913
  143MOL    C5528739   3.149   6.018   2.558 -0.2767 -0.6388 -0.7318
  143MOL    H5628740   2.792   5.985   2.820 -1.2332 -1.5432  1.3963
  143MOL    H5728741   2.921   6.025   2.911  0.3034  0.6609 -1.4262
  143MOL    H5828742   2.953   5.848   2.655 -0.2011  0.2577 -0.7954
  143MOL    H5928743   3.097   6.099   2.755  0.1695 -0.5960  0.8640
  143MOL    H6028744   3.104   5.932   2.509 -0.2690 -0.1163 -1.6736
  143MOL    H6128745   3.255   6.007   2.576 -0.1136  1.5616 -0.2219
  143MOL    C6228746   3.128   6.148   2.481 -0.0834  0.0364 -0.3755
  143MOL    C6328747   3.206   6.166   2.352  0.1779 -0.1945  0.5652
  143MOL    C6428748   3.150   6.154   2.228 -0.7655  0.5715  0.3181
  143MOL    C6528749   3.217   6.179   2.094  0.1321  0.3369 -0.1921
  143MOL    H6628750   3.022   6.159   2.457 -0.5267 -1.0988  0.9862
  143MOL    H6728751   3.158   6.235   2.538  0.1612 -0.1821 -0.1730
  143MOL    H6828752   3.311   6.188   2.358  0.1538  0.4764 -1.2803
  143MOL    H6928753   3.049   6.116   2.215 -0.4467  0.1566 -0.9944
  143MOL    H7028754   3.321   6.203   2.116 -0.1368  0.8980  0.4786
  143MOL    H7128755   3.165   6.267   2.057  0.0113  0.1179 -0.5506
  143MOL    C7228756   3.212   6.058   1.992 -0.6468  1.1666  0.2639
  143MOL    C7328757   3.283   6.100   1.869 -0.1868 -0.2436  0.4434
  143MOL    C7428758   3.406   6.065   1.844 -0.1992 -0.0576  0.7544
  143MOL    C7528759   3.484   6.116   1.724 -0.0127 -0.0062  0.0523
  143MOL    H7628760   3.255   5.968   2.037 -1.8295 -0.5266 -1.9424
  143MOL    H7728761   3.116   6.027   1.953 -0.4085 -1.1552  1.4622
  143MOL    H7828762   3.230   6.172   1.807  0.0330  1.5277  2.2411
  143MOL    H7928763   3.454   6.005   1.921  0.6984 -5.1385 -3.4770
  143MOL    H8028764   3.555   6.194   1.753 -1.2753  0.4143  2.0953
  143MOL    H8128765   3.409   6.161   1.658 -1.3459  0.8748  2.0913
  143MOL    C8228766   3.558   6.000   1.643 -0.3026  0.7681 -0.2031
  143MOL    C8328767   3.642   6.043   1.520 -0.4129  0.1498 -0.0888
  143MOL    C8428768   3.760   5.981   1.491  0.1986 -0.5818  0.4404
  143MOL    C8528769   3.848   6.014   1.370  0.5825  0.7599  0.0472
  143MOL    H8628770   3.620   5.940   1.709 -1.5353 -1.0907 -0.6960
  143MOL    H8728771   3.479   5.938   1.601 -2.4391  2.1884  1.5751
  143MOL    H8828772   3.603   6.129   1.467  0.0707 -0.2476 -1.0904
  143MOL    H8928773   3.793   5.905   1.561 -0.8393 -1.7768 -0.3535
  143MOL    H9028774   3.820   5.947   1.288  0.7644  1.6580 -0.7519
  143MOL    H9128775   3.947   5.987   1.409 -0.4133 -0.6212  1.6770
  143MOL    C9228776   3.843   6.157   1.311  0.1672 -0.1874 -1.0401
  143MOL    C9328777   3.969   6.187   1.234 -0.3963 -0.3998  0.0559
  143MOL    C9428778   3.978   6.183   1.100 -0.0045 -0.4673 -0.3411
  143MOL    C9528779   4.099   6.235   1.029  0.1552  0.0709  0.0911
  143MOL    H9628780   3.750   6.156   1.254 -0.7859  0.0893  0.4746
  143MOL    H9728781   3.840   6.231   1.390  2.1066 -2.2881  1.0685
  143MOL    H9828782   4.059   6.204   1.292 -0.3453 -0.6212  0.0421
  143MOL    H9928783   3.892   6.156   1.040  0.2642  0.7712 -1.3044
  143MOL   H10028784   4.183   6.205   1.091  1.2568 -0.1970 -1.5001
  143MOL   H10128785   4.104   6.343   1.038  1.3604 -0.0336  0.7366
  143MOL   C10228786   4.124   6.195   0.881 -0.1222 -0.6855  0.4387
  143MOL   C10328787   4.027   6.257   0.774  0.1194 -0.0561  0.9678
  143MOL   C10428788   4.064   6.344   0.681  0.0257  0.0567  0.0723
  143MOL   C10528789   3.963   6.394   0.585 -0.7574 -0.0105  0.6449
  143MOL   H10628790   4.222   6.224   0.843 -1.7429  2.3311 -1.6825
  143MOL   H10728791   4.112   6.088   0.867  1.8010 -1.1542  2.1625
  143MOL   H10828792   3.926   6.219   0.784  0.5343 -1.9084 -1.6694
  143MOL   H10928793   4.164   6.383   0.671  1.7845 -4.2691 -0.4833
  143MOL   H11028794   3.966   6.503   0.583 -1.1407 -0.0229 -0.9433
  143MOL   H11128795   3.862   6.365   0.617 -0.6199 -1.7602 -0.4519
  143MOL   C11228796   3.986   6.334   0.449 -0.4913  0.2674 -0.0930
  143MOL   C11328797   3.867   6.350   0.346 -0.3708  0.6689  0.2047
  143MOL   C11428798   3.773   6.260   0.317  0.2788 -0.0445 -0.1579
  143MOL   C11528799   3.643   6.282   0.233  0.0727 -0.1937  0.0017
  143MOL   H11628800   4.079   6.372   0.407 -0.4038  0.9014  0.6664
  143MOL   H11728801   3.999   6.227   0.459 -0.9598  0.2710  0.6204
  143MOL   H11828802   3.847   6.444   0.297 -0.3514 -0.4649 -2.0370
  143MOL   H11928803   3.795   6.159   0.348  1.0430  0.0136 -0.5035
  143MOL   H12028804   3.651   6.237   0.134 -1.6076  1.3694 -0.8716
  143MOL   H12128805   3.633   6.390   0.224  0.3271 -0.1481  0.2796
  143MOL   C12228806   3.520   6.238   0.315  0.6942 -0.9557  0.5179
  143MOL   C12328807   3.493   6.319   0.440 -0.7857 -0.7340  0.5219
  143MOL   C12428808   3.379   6.385   0.475  0.8468  0.9424 -0.6789
  143MOL   C12528809   3.361   6.461   0.602  0.7993  0.3010 -0.8538
  143MOL   H12628810   3.436   6.243   0.247  1.8291 -0.3207 -0.8717
  143MOL   H12728811   3.527   6.130   0.328 -0.0155 -1.1857 -0.9537
  143MOL   H12828812   3.570   6.314   0.514 -0.5451  1.2040  0.4476
  143MOL   H12928813   3.298   6.411   0.408  0.9883  0.5183 -1.0166
  143MOL   H13028814   3.341   6.563   0.572  0.4753  0.5628  0.2192
  143MOL   H13128815   3.461   6.457   0.644  0.9410 -1.4066 -1.3166
  143MOL   C13228816   3.241   6.398   0.678 -0.3524  0.1649 -0.7469
  143MOL   C13328817   3.214   6.475   0.804 -0.6115 -0.1843  0.3814
  143MOL   C13428818   3.112   6.564   0.814  0.3403  0.1276 -0.4229
  143MOL   C13528819   3.087   6.638   0.944  0.1842  0.7753 -0.2775
  143MOL   H13628820   3.151   6.410   0.618 -1.4420  0.3471  0.8773
  143MOL   H13728821   3.258   6.290   0.689 -1.2025  0.4141  4.0183
  143MOL   H13828822   3.279   6.459   0.889 -1.6911  2.0478  1.6849
  143MOL   H13928823   3.037   6.571   0.737 -0.5281  1.5629  0.5436
  143MOL   H14028824   3.174   6.652   1.007 -0.9536 -0.1178  1.5415
  143MOL   H14128825   3.017   6.570   0.991 -0.5794  1.6690 -0.1066
  143MOL   C14228826   3.023   6.772   0.924 -0.2912  0.4041  0.7303
  143MOL   C14328827   3.124   6.877   0.865 -0.0096  0.0714  0.2367
  143MOL   C14428828   3.248   6.904   0.911  0.1669  0.4241  0.1463
  143MOL   C14528829   3.345   7.009   0.851 -0.4906 -0.7517  0.3512
  143MOL   H14628830   2.925   6.772   0.876 -1.0220 -1.7717  2.1389
  143MOL   H14728831   2.996   6.818   1.020 -0.6498  0.9553  0.3677
  143MOL   H14828832   3.086   6.931   0.779  1.6685  1.4307  0.3329
  143MOL   H14928833   3.289   6.853   0.996 -0.7672 -1.3218 -0.4243
  143MOL   H15028834   3.356   7.084   0.930  1.4702 -1.2164  0.5245
  143MOL   H15128835   3.306   7.052   0.759 -0.4911 -1.0704  0.2037
  143MOL   C15228836   3.480   6.954   0.801  0.1930  0.3502 -0.2668
  143MOL   C15328837   3.570   7.066   0.772  0.3467 -0.4203  0.4203
  143MOL   C15428838   3.665   7.062   0.677 -0.1469 -0.0321  0.0892
  143MOL   C15528839   3.767   7.175   0.643  0.6056  0.8634  0.0908
  143MOL   H15628840   3.523   6.898   0.885  2.0163 -1.8717 -2.6194
  143MOL   H15728841   3.462   6.894   0.712 -0.1234  0.4405 -0.2612
  143MOL   H15828842   3.570   7.160   0.825  0.6216  0.6729 -1.4701
  143MOL   H15928843   3.683   6.978   0.611  2.6570 -0.3691  1.1910
  143MOL   H16028844   3.870   7.139   0.641 -0.2132 -1.5808  0.7671
  143MOL   H16128845   3.769   7.267   0.703 -0.3114  0.0033  1.4690
  143MOL   C16228846   3.726   7.242   0.510  0.0055  0.1883 -0.7622
  143MOL   C16328847   3.837   7.321   0.450  0.2310 -0.1927  0.2969
  143MOL   C16428848   3.840   7.333   0.319  0.2458 -0.1127 -1.2764
  143MOL   C16528849   3.945   7.414   0.253  0.3294  0.0066 -0.5760
  143MOL   H16628850   3.686   7.157   0.454  0.2933 -2.5354  2.9620
  143MOL   H16728851   3.641   7.310   0.517 -1.6164 -1.9761  1.9006
  143MOL   H16828852   3.904   7.367   0.520 -0.0077  2.3961 -1.1143
  143MOL   H16928853   3.767   7.287   0.254 -0.0986 -0.2811 -0.7711
  143MOL   H17028854   3.996   7.478   0.325 -1.3926 -0.9100  1.5031
  143MOL   H17128855   3.892   7.482   0.186  1.9482  1.4677 -0.4054
  143MOL   C17228856   4.046   7.323   0.189  0.2100 -0.4167 -0.6299
  143MOL   C17328857   3.985   7.228   0.087  0.6152  0.3247  0.1269
  143MOL   C17428858   3.982   7.262   7.933 -0.5669 -0.6557 -0.6738
  143MOL   C17528859   3.907   7.187   7.830 -0.1545 -0.4429  1.0234
  143MOL   H17628860   4.127   7.382   0.145  1.8043 -1.7047  0.4956
  143MOL   H17728861   4.104   7.267   0.263  0.1207 -1.5595 -1.4021
  143MOL   H17828862   3.939   7.136   0.120  2.3174 -1.2266 -1.7352
  143MOL   H17928863   4.014   7.360   7.903  1.6340 -1.9221 -2.6531
  143MOL   H18028864   3.973   7.157   7.748 -1.8851  0.3043 -0.7068
  143MOL   H18128865   3.827   7.247   7.786  0.6375 -1.0400 -1.3321
  143MOL   C18228866   3.837   7.064   7.886  0.2735  0.1002 -0.0511
  143MOL   C18328867   3.752   7.002   7.772 -0.6359 -0.4438  0.4314
  143MOL   C18428868   3.636   6.939   7.788 -0.7095  0.3216  0.0870
  143MOL   C18528869   3.566   6.875   7.677 -0.3511 -0.1965  0.1918
  143MOL   H18628870   3.919   7.001   7.920 -0.5043 -0.1016  1.5522
  143MOL   H18728871   3.776   7.093   7.972 -0.8870 -2.9466  0.2059
  143MOL   H18828872   3.790   6.998   7.671  1.8978 -0.3240  1.3496
  143MOL   H18928873   3.586   6.939   7.884  1.4664 -0.4967  1.2492
  143MOL   H19028874   3.577   6.769   7.701  1.0140 -0.0546  0.1890
  143MOL   H19128875   3.614   6.890   7.580 -0.0026  1.0837  0.5520
  143MOL   C19228876   3.417   6.913   7.665  0.2201  0.0206  0.0602
  143MOL   C19328877   3.356   6.830   7.554 -0.1923 -0.7234 -0.0680
  143MOL   C19428878   3.289   6.718   7.576  0.6874 -0.1072  0.5588
  143MOL   C19528879   3.216   6.622   7.481 -0.4009 -0.2920  0.5971
  143MOL   H19628880   3.356   6.880   7.749  0.3468 -0.3384  0.0105
  143MOL   H19728881   3.397   7.019   7.647 -1.0815  0.0875  1.7580
  143MOL   H19828882   3.381   6.860   7.454  1.4514 -0.8386  0.2882
  143MOL   H19928883   3.298   6.694   7.681  1.5972  0.8669  0.7097
  143MOL   H20028884   3.205   6.664   7.381 -0.0495 -2.0625 -0.2023
  143MOL   H20128885   3.115   6.603   7.519  0.0645 -0.1763  1.9320
  143MOL   H20228886   3.276   6.531   7.478 -0.4724 -0.3473  0.8345
  144MOL     C128887   5.390   2.846   4.641  1.0654  0.3205  0.1560
  144MOL     C228888   5.416   2.702   4.610  0.3939 -0.4269 -0.5545
  144MOL     C328889   5.346   2.598   4.656 -0.2166 -0.1064  0.1327
  144MOL     C428890   5.386   2.453   4.624  0.4263  0.5118  0.0241
  144MOL     H528891   5.486   2.897   4.641  0.9956  0.4506 -0.4543
  144MOL     H628892   5.348   2.865   4.740 -0.8088 -0.7562 -0.4120
  144MOL     H728893   5.499   2.687   4.542  1.0822  1.8125 -0.2432
  144MOL     H828894   5.265   2.610   4.727 -0.2749  0.0310  0.0415
  144MOL     H928895   5.415   2.394   4.710 -1.4255 -1.5154 -0.6817
  144MOL    H1028896   5.471   2.457   4.557 -0.3736 -2.2850 -1.2472
  144MOL    H1128897   5.320   2.897   4.576  0.5538 -0.8546 -0.2289
  144MOL    C1228898   5.273   2.367   4.556 -0.5959 -0.2128  0.3478
  144MOL    C1328899   5.294   2.220   4.531  0.2256 -0.2276  0.3439
  144MOL    C1428900   5.415   2.157   4.525 -0.9232  0.6344 -0.2384
  144MOL    C1528901   5.447   2.010   4.512  0.5182 -0.6238  0.0816
  144MOL    H1628902   5.188   2.375   4.623 -0.0275  1.0609  0.9308
  144MOL    H1728903   5.241   2.412   4.462 -0.2663 -0.1181  0.2791
  144MOL    H1828904   5.209   2.155   4.519  2.6756 -3.1537 -1.9569
  144MOL    H1928905   5.507   2.214   4.532 -0.7610  0.1884  1.4446
  144MOL    H2028906   5.516   1.998   4.428 -1.2578  0.8306 -1.6160
  144MOL    H2128907   5.353   1.965   4.478  1.0083 -0.7119 -1.1980
  144MOL    C2228908   5.474   1.947   4.655  0.2441  0.0260  0.0356
  144MOL    C2328909   5.601   2.013   4.716  1.2327  0.7447 -0.7900
  144MOL    C2428910   5.604   2.070   4.839  0.2970 -0.5486 -0.2203
  144MOL    C2528911   5.730   2.104   4.913 -0.2900  0.2333 -0.0416
  144MOL    H2628912   5.389   1.964   4.721  0.6359 -0.1798  0.6025
  144MOL    H2728913   5.490   1.839   4.644 -1.7622 -0.1004 -1.9784
  144MOL    H2828914   5.699   1.987   4.678  1.5571  0.9718 -0.1033
  144MOL    H2928915   5.510   2.102   4.883 -0.0450  1.3071 -2.2112
  144MOL    H3028916   5.729   2.200   4.965  2.6121  1.2190 -1.6920
  144MOL    H3128917   5.814   2.109   4.844  1.0362 -4.4405  1.0798
  144MOL    C3228918   5.762   2.017   5.033 -0.4934  0.7441  0.4986
  144MOL    C3328919   5.886   2.055   5.108  0.0248  0.2182  0.5982
  144MOL    C3428920   5.989   2.123   5.064  0.1802  0.2910  0.6166
  144MOL    C3528921   6.109   2.161   5.155  0.4174  0.0795 -0.0956
  144MOL    H3628922   5.675   2.016   5.098  0.0484  2.2583  1.2867
  144MOL    H3728923   5.763   1.912   5.004 -0.6064  1.0175 -0.5034
  144MOL    H3828924   5.899   2.021   5.210 -2.0025 -1.5574  0.3038
  144MOL    H3928925   5.999   2.162   4.964 -0.7991 -0.0940  0.3662
  144MOL    H4028926   6.097   2.120   5.255 -0.0880  1.1477  0.2898
  144MOL    H4128927   6.120   2.269   5.165  1.9500 -0.1276  0.7143
  144MOL    C4228928   6.237   2.097   5.092 -0.3006  0.0787 -0.2660
  144MOL    C4328929   6.272   2.141   4.954  0.0719  1.0525 -1.0423
  144MOL    C4428930   6.278   2.056   4.848 -0.4726  0.0407 -0.4930
  144MOL    C4528931   6.303   2.097   4.710 -0.5206 -0.0528 -0.0382
  144MOL    H4628932   6.328   2.107   5.151  0.0558 -0.7253 -0.6801
  144MOL    H4728933   6.227   1.988   5.085  3.5015 -0.3474  0.0535
  144MOL    H4828934   6.292   2.246   4.943  1.3404  1.0969  1.4609
  144MOL    H4928935   6.249   1.953   4.862  0.8094 -0.4344 -1.3204
  144MOL    H5028936   6.279   2.203   4.710 -0.2609  0.0084  0.2406
  144MOL    H5128937   6.225   2.041   4.659  1.8203 -3.0132 -0.5626
  144MOL    C5228938   6.439   2.048   4.657 -0.0641  0.3370 -0.8944
  144MOL    C5328939   6.449   2.097   4.513 -0.2168  0.1755  0.0009
  144MOL    C5428940   6.476   2.024   4.401  0.0098  0.0837 -0.1141
  144MOL    C5528941   6.471   2.092   4.259 -0.0319  0.5533  0.1966
  144MOL    H5628942   6.514   2.095   4.721 -1.0391 -0.6182  0.9975
  144MOL    H5728943   6.441   1.940   4.671  2.7022  0.4225 -0.4525
  144MOL    H5828944   6.432   2.202   4.497 -2.8911 -0.2823 -0.2959
  144MOL    H5928945   6.509   1.923   4.418  1.3928  0.0765 -2.6600
  144MOL    H6028946   6.438   2.196   4.256 -0.2698  0.4602 -0.4708
  144MOL    H6128947   6.400   2.043   4.193  1.2769 -0.2257 -0.6789
  144MOL    C6228948   6.605   2.076   4.192  0.5392  0.9059  0.1133
  144MOL    C6328949   6.717   2.125   4.270 -0.5051 -0.4505  0.8436
  144MOL    C6428950   6.774   2.245   4.239  0.1720  0.0667  0.9546
  144MOL    C6528951   6.886   2.317   4.308 -0.0885 -0.2223 -0.4912
  144MOL    H6628952   6.614   1.972   4.162 -0.4579  1.0037 -0.5347
  144MOL    H6728953   6.604   2.130   4.097 -0.6495  0.3856 -0.1743
  144MOL    H6828954   6.759   2.055   4.341  0.0069 -0.9534  0.0490
  144MOL    H6928955   6.729   2.297   4.155 -2.4822 -1.3224  1.4766
  144MOL    H7028956   6.978   2.322   4.249  0.6184  0.3624  0.6394
  144MOL    H7128957   6.919   2.256   4.392 -0.8785  1.0474  0.7651
  144MOL    C7228958   6.842   2.459   4.364 -1.0109 -0.6248  0.0063
  144MOL    C7328959   6.727   2.457   4.456 -0.2616 -0.1159  0.4044
  144MOL    C7428960   6.712   2.546   4.559  0.5139  0.1917 -0.4742
  144MOL    C7528961   6.589   2.579   4.637  0.5431 -0.6008  0.4162
  144MOL    H7628962   6.936   2.497   4.403 -1.0015 -0.7442  0.1044
  144MOL    H7728963   6.825   2.518   4.275 -0.2835 -0.5615 -0.0945
  144MOL    H7828964   6.641   2.398   4.428 -0.3398 -0.2348  0.8762
  144MOL    H7928965   6.793   2.607   4.595  0.5165 -0.4549  0.6345
  144MOL    H8028966   6.503   2.552   4.577  1.1479 -0.8313 -0.3574
  144MOL    H8128967   6.585   2.688   4.642 -1.6616 -0.6577  0.1414
  144MOL    C8228968   6.574   2.505   4.764  0.6736  0.4952 -0.6930
  144MOL    C8328969   6.460   2.556   4.848  0.9892 -0.6100 -0.0437
  144MOL    C8428970   6.329   2.522   4.826  0.4084  0.5076 -0.3135
  144MOL    C8528971   6.215   2.596   4.889 -0.6107  0.2568 -0.6355
  144MOL    H8628972   6.573   2.398   4.741 -3.2419  0.7941 -2.3157
  144MOL    H8728973   6.662   2.512   4.829  0.0368 -0.4388  0.3066
  144MOL    H8828974   6.479   2.638   4.917 -0.3103 -0.1133 -0.2659
  144MOL    H8928975   6.307   2.441   4.758 -0.2232  0.4098  0.0034
  144MOL    H9028976   6.152   2.639   4.811  0.3978 -0.2689 -1.7721
  144MOL    H9128977   6.263   2.675   4.945  0.7912  0.2268 -1.7608
  144MOL    C9228978   6.139   2.497   4.983 -0.0097 -0.4918  0.1963
  144MOL    C9328979   6.036   2.560   5.073 -0.8503 -0.3077  0.6437
  144MOL    C9428980   6.050   2.580   5.205 -0.4707 -0.3477  0.2103
  144MOL    C9528981   5.937   2.627   5.303  0.0807  0.1624 -0.6382
  144MOL    H9628982   6.094   2.410   4.935  0.9190 -0.8765  0.0210
  144MOL    H9728983   6.213   2.457   5.052  1.0309 -0.9403 -1.1670
  144MOL    H9828984   5.941   2.588   5.030 -2.1632  0.2862  3.7349
  144MOL    H9928985   6.144   2.556   5.252  0.0386  0.2246 -0.5052
  144MOL   H10028986   5.928   2.549   5.378  1.2779 -0.3042 -0.9543
  144MOL   H10128987   5.844   2.627   5.246  0.5995 -0.0571 -1.5117
  144MOL   C10228988   5.961   2.764   5.363 -0.0332 -0.5563  0.4020
  144MOL   C10328989   5.871   2.776   5.484  0.0044 -0.0728 -0.2232
  144MOL   C10428990   5.758   2.848   5.491 -1.0216  0.3474  0.1308
  144MOL   C10528991   5.680   2.859   5.625  0.1927  0.1872  0.5210
  144MOL   H10628992   6.067   2.782   5.383 -0.2037 -1.0757  1.7843
  144MOL   H10728993   5.933   2.846   5.297 -0.4211 -1.6604 -0.8306
  144MOL   H10828994   5.911   2.731   5.574  0.6696 -2.7137 -1.7951
  144MOL   H10928995   5.724   2.905   5.406 -4.0171 -0.3587  0.7930
  144MOL   H11028996   5.741   2.810   5.701  1.3507 -0.3319 -0.7347
  144MOL   H11128997   5.582   2.814   5.616 -0.5775  2.0479 -0.7207
  144MOL   C11228998   5.658   3.007   5.671 -0.0699  0.2042 -0.4581
  144MOL   C11328999   5.572   3.021   5.797 -0.1809  0.1562 -0.2273
  144MOL   C11429000   5.465   3.106   5.797 -0.1567  0.5523 -0.4488
  144MOL   C11529001   5.365   3.135   5.914 -0.3907  0.7960 -0.1487
  144MOL   H11629002   5.757   3.046   5.695 -0.0869 -0.1315  0.1722
  144MOL   H11729003   5.620   3.064   5.587 -0.5045  0.8826  0.1965
  144MOL   H11829004   5.603   2.964   5.883  1.4537 -0.4072 -1.1620
  144MOL   H11929005   5.448   3.172   5.714  2.6114  1.4944 -0.3261
  144MOL   H12029006   5.383   3.072   6.002  2.4378  0.6210 -0.8096
  144MOL   H12129007   5.267   3.114   5.871  0.7816  0.4297 -2.6874
  144MOL   C12229008   5.366   3.270   5.975 -0.7405 -0.0081  0.0354
  144MOL   C12329009   5.282   3.278   6.092 -0.5509  0.3027 -0.2208
  144MOL   C12429010   5.190   3.376   6.117  0.4638  0.0766  0.0709
  144MOL   C12529011   5.103   3.384   6.242 -0.2540  0.4173 -0.2614
  144MOL   H12629012   5.465   3.302   6.008  0.5214 -3.1412 -0.4993
  144MOL   H12729013   5.327   3.338   5.900 -0.1129  1.0165  0.6195
  144MOL   H12829014   5.275   3.203   6.170 -3.7508 -1.0855 -1.7342
  144MOL   H12929015   5.186   3.452   6.041 -1.8534  0.9640  1.0397
  144MOL   H13029016   5.151   3.340   6.329 -0.4862 -0.1751 -0.4260
  144MOL   H13129017   5.014   3.322   6.229  0.3888 -0.1523 -2.1060
  144MOL   C13229018   5.047   3.522   6.252 -0.4583  0.0584 -0.5875
  144MOL   C13329019   4.973   3.538   6.386 -0.3088  0.1749 -0.2546
  144MOL   C13429020   4.842   3.559   6.410  0.3257 -0.1452  0.0988
  144MOL   C13529021   4.775   3.553   6.548  0.3276  0.2312  1.1244
  144MOL   H13629022   5.127   3.596   6.247  0.0028 -0.5309 -2.4729
  144MOL   H13729023   4.974   3.550   6.176 -0.4948  1.5539 -0.0015
  144MOL   H13829024   5.034   3.525   6.475  1.3890  0.9830 -1.2726
  144MOL   H13929025   4.774   3.569   6.326 -0.7369  0.9000  1.0629
  144MOL   H14029026   4.712   3.642   6.555 -0.4855 -0.2397 -0.0749
  144MOL   H14129027   4.841   3.559   6.635  2.5765  1.8956 -0.6383
  144MOL   C14229028   4.696   3.422   6.557 -0.3399 -0.4949  0.1139
  144MOL   C14329029   4.784   3.299   6.549  0.2820 -0.1149 -0.3901
  144MOL   C14429030   4.772   3.194   6.471  0.0373 -0.4286  0.0303
  144MOL   C14529031   4.858   3.072   6.464  0.4881 -0.0296  0.1950
  144MOL   H14629032   4.647   3.410   6.654 -0.5214 -0.8098 -0.0157
  144MOL   H14729033   4.612   3.420   6.488  0.4406  0.1378 -0.8727
  144MOL   H14829034   4.859   3.288   6.626 -2.1151  1.2792  2.2149
  144MOL   H14929035   4.691   3.199   6.399  0.2488 -0.7877 -0.2345
  144MOL   H15029036   4.950   3.080   6.523  0.0101 -0.1193  0.9454
  144MOL   H15129037   4.886   3.061   6.358  2.4946  1.9940  0.4705
  144MOL   C15229038   4.785   2.950   6.509 -0.7806 -0.7588  0.1906
  144MOL   C15329039   4.853   2.819   6.484 -0.6011  0.1809  0.3565
  144MOL   C15429040   4.932   2.769   6.577  0.0275  0.2641 -0.0058
  144MOL   C15529041   5.026   2.657   6.566  0.3108  0.4690  0.0839
  144MOL   H15629042   4.770   2.962   6.616  0.8697 -0.4755  0.3932
  144MOL   H15729043   4.690   2.949   6.455  0.4341 -1.0457 -2.0130
  144MOL   H15829044   4.854   2.787   6.381 -1.6546 -0.1768  0.4490
  144MOL   H15929045   4.939   2.810   6.677  1.3157 -1.2107  0.5347
  144MOL   H16029046   5.117   2.694   6.614  1.8273 -1.1943 -1.4710
  144MOL   H16129047   5.044   2.637   6.461 -2.4315 -0.5760 -0.2448
  144MOL   C16229048   4.971   2.526   6.618 -0.4229  0.1380 -0.6546
  144MOL   C16329049   5.085   2.427   6.645 -0.4193 -0.2615  0.4554
  144MOL   C16429050   5.128   2.332   6.558  0.1780 -0.2999 -0.0931
  144MOL   C16529051   5.255   2.245   6.583 -0.3443 -0.5993 -0.2353
  144MOL   H16629052   4.909   2.547   6.705 -1.0087  1.7111 -1.4201
  144MOL   H16729053   4.907   2.469   6.551 -1.2044 -0.1826  0.3521
  144MOL   H16829054   5.139   2.429   6.738  0.4313 -0.9102 -0.0134
  144MOL   H16929055   5.076   2.320   6.464 -1.4893  1.5315  0.5491
  144MOL   H17029056   5.323   2.292   6.654  1.1270 -0.0120 -1.9916
  144MOL   H17129057   5.299   2.255   6.484  0.6030  0.7558  0.3131
  144MOL   C17229058   5.238   2.092   6.628  0.4504 -0.2494 -0.5365
  144MOL   C17329059   5.367   2.022   6.625 -0.1290  0.0243 -0.0591
  144MOL   C17429060   5.485   2.055   6.573 -0.6639  0.4356 -0.5022
  144MOL   C17529061   5.609   1.958   6.583  0.8477  0.1553  0.7814
  144MOL   H17629062   5.195   2.094   6.728  1.7501 -1.6229  0.0727
  144MOL   H17729063   5.162   2.044   6.567  0.6995 -0.4118 -0.7212
  144MOL   H17829064   5.369   1.919   6.655 -0.4602  0.2940  0.9036
  144MOL   H17929065   5.497   2.156   6.536  1.4586  0.7804  1.0416
  144MOL   H18029066   5.672   1.984   6.497 -1.4522  0.2732 -0.9286
  144MOL   H18129067   5.574   1.860   6.552  4.0922  0.0712 -3.0214
  144MOL   C18229068   5.691   1.953   6.709 -0.1306 -0.0669 -0.3778
  144MOL   C18329069   5.802   2.058   6.718  0.6616 -0.1573  0.6036
  144MOL   C18429070   5.925   2.023   6.749  1.0044 -0.2867 -0.0048
  144MOL   C18529071   6.035   2.116   6.782 -0.6369  0.4905  0.2558
  144MOL   H18629072   5.621   1.951   6.793 -2.1356  0.4743 -2.0012
  144MOL   H18729073   5.737   1.854   6.716  0.1827  0.0966 -0.1415
  144MOL   H18829074   5.765   2.158   6.705 -1.0682 -0.8657 -0.0667
  144MOL   H18929075   5.952   1.918   6.750 -2.9443 -1.3979 -0.5018
  144MOL   H19029076   6.000   2.218   6.769 -0.9525  0.5235  1.3078
  144MOL   H19129077   6.102   2.079   6.704 -1.6502  2.0139 -1.3486
  144MOL   C19229078   6.099   2.112   6.914  0.5358 -0.2931  0.3857
  144MOL   C19329079   6.237   2.185   6.916  0.4984 -0.1299  0.4878
  144MOL   C19429080   6.261   2.292   6.988  0.6130  0.2821 -0.0262
  144MOL   C19529081   6.398   2.349   6.999  0.2692 -0.1172 -0.3066
  144MOL   H19629082   6.033   2.164   6.984 -0.2328 -0.5822 -0.1106
  144MOL   H19729083   6.111   2.011   6.953 -0.3958 -0.6513 -0.2162
  144MOL   H19829084   6.317   2.160   6.849  0.7200  2.6210 -0.3369
  144MOL   H19929085   6.177   2.328   7.045 -1.9623 -1.9955 -2.2772
  144MOL   H20029086   6.442   2.334   6.901  0.7558  0.4991 -0.1904
  144MOL   H20129087   6.442   2.294   7.083 -1.2111 -0.8180  0.0327
  144MOL   H20229088   6.398   2.455   7.024 -1.4584  0.1913 -1.5733
  145MOL     C129089   3.349   0.505   4.414 -0.3602 -0.4351 -0.5963
  145MOL     C229090   3.483   0.441   4.376  0.2007  1.4880  0.8897
  145MOL     C329091   3.515   0.315   4.396  0.6506 -0.3456 -0.2847
  145MOL     C429092   3.652   0.251   4.362  0.1218  0.1492  0.8273
  145MOL     H529093   3.379   0.582   4.486  0.2397 -0.1383 -1.1645
  145MOL     H629094   3.284   0.437   4.470 -1.6801  0.1416 -1.3877
  145MOL     H729095   3.551   0.501   4.318 -0.4703 -0.1725 -1.7238
  145MOL     H829096   3.448   0.252   4.453 -1.0710  0.1892 -1.6713
  145MOL     H929097   3.743   0.301   4.395 -0.2286  0.6277  1.0710
  145MOL    H1029098   3.657   0.275   4.256 -0.4206  2.5695  1.3312
  145MOL    H1129099   3.294   0.549   4.331  1.5225 -0.3960 -1.8400
  145MOL    C1229100   3.655   0.101   4.393  0.5876 -0.0117  0.1140
  145MOL    C1329101   3.695   0.077   4.538  0.4758 -0.7839 -0.2125
  145MOL    C1429102   3.814   0.037   4.577  0.0771 -0.7033  0.8364
  145MOL    C1529103   3.864   0.019   4.719  0.2880  0.8293  0.2453
  145MOL    H1629104   3.559   0.053   4.374  0.0502  1.0033  0.2550
  145MOL    H1729105   3.734   0.064   4.327 -0.9260 -1.8956 -0.6712
  145MOL    H1829106   3.620   0.106   4.610  2.0814  0.8458  0.8430
  145MOL    H1929107   3.880   0.009   4.497 -1.0536  0.8011 -0.6486
  145MOL    H2029108   3.784   0.041   4.789 -1.0931 -0.2172 -0.9637
  145MOL    H2129109   3.946   0.083   4.752  0.7436  0.3419  0.0704
  145MOL    C2229110   3.899   7.838   4.744  0.1996  0.0055 -0.1880
  145MOL    C2329111   3.944   7.817   4.884  0.0672 -0.9822 -0.4749
  145MOL    C2429112   4.065   7.773   4.924  0.1505  0.4226 -0.0075
  145MOL    C2529113   4.121   7.768   5.064 -0.9199 -0.8967 -0.1234
  145MOL    H2629114   3.816   7.769   4.727 -0.6201  1.2524 -1.3673
  145MOL    H2729115   3.977   7.802   4.676 -2.5723 -1.6079 -2.6540
  145MOL    H2829116   3.872   7.855   4.955  1.3768  0.0293  0.3230
  145MOL    H2929117   4.134   7.734   4.851  1.1899  1.4610  0.3978
  145MOL    H3029118   4.037   7.806   5.123  1.3550  0.9031  2.0312
  145MOL    H3129119   4.202   7.841   5.068 -1.0372 -0.6364 -1.9397
  145MOL    C3229120   4.159   7.629   5.115 -0.1714  0.4027 -0.5361
  145MOL    C3329121   4.214   7.642   5.258  0.2209  0.2614 -0.2942
  145MOL    C3429122   4.169   7.563   5.357  0.0145  0.1361  0.9474
  145MOL    C3529123   4.212   7.569   5.496 -0.0316 -0.5243 -0.4577
  145MOL    H3629124   4.081   7.554   5.104  2.0781 -2.0305 -0.3108
  145MOL    H3729125   4.244   7.596   5.055 -1.5758 -2.1630 -1.1909
  145MOL    H3829126   4.290   7.717   5.271  1.3890 -0.6864 -1.4994
  145MOL    H3929127   4.102   7.482   5.331  0.8184  0.0610 -0.9499
  145MOL    H4029128   4.303   7.629   5.494 -1.4272  1.6472 -0.6651
  145MOL    H4129129   4.246   7.466   5.504 -1.3379 -0.8904  0.4948
  145MOL    C4229130   4.108   7.613   5.597  0.5517 -0.2264  0.6346
  145MOL    C4329131   3.995   7.518   5.619  0.7462  0.3950 -0.1918
  145MOL    C4429132   3.994   7.384   5.595  0.4676 -0.2380 -0.6336
  145MOL    C4529133   3.881   7.289   5.627  0.3728 -0.3285 -0.0766
  145MOL    H4629134   4.158   7.624   5.693 -0.8344  1.0949  1.2274
  145MOL    H4729135   4.065   7.710   5.572 -1.6565 -1.7591 -1.8362
  145MOL    H4829136   3.899   7.555   5.651  0.0322  0.4523 -2.3017
  145MOL    H4929137   4.077   7.326   5.558  0.9554 -0.4793  0.7680
  145MOL    H5029138   3.799   7.337   5.680 -0.4810 -0.7149 -1.0161
  145MOL    H5129139   3.916   7.217   5.701  1.5841  2.1192  1.8298
  145MOL    C5229140   3.821   7.237   5.497 -0.7196 -0.1397  0.2424
  145MOL    C5329141   3.751   7.351   5.423 -0.1660 -0.2661 -0.7445
  145MOL    C5429142   3.787   7.411   5.307  0.1670 -0.2537  0.4909
  145MOL    C5529143   3.701   7.511   5.230  0.5157 -0.3577 -0.3125
  145MOL    H5629144   3.904   7.189   5.444  0.1069  0.9021  0.5841
  145MOL    H5729145   3.748   7.158   5.517 -2.7642  1.6102 -0.1621
  145MOL    H5829146   3.649   7.373   5.453  0.0677 -1.2112  0.7936
  145MOL    H5929147   3.871   7.376   5.249 -0.8430 -1.0254 -0.5279
  145MOL    H6029148   3.746   7.609   5.243  0.9309 -0.5183 -0.5225
  145MOL    H6129149   3.603   7.497   5.274 -0.5132  2.2587 -1.6678
  145MOL    C6229150   3.704   7.475   5.081 -0.5214 -0.2530 -0.3997
  145MOL    C6329151   3.593   7.545   5.010 -0.1444  0.4388 -0.7930
  145MOL    C6429152   3.590   7.585   4.883  0.1040 -0.6536 -0.1267
  145MOL    C6529153   3.472   7.659   4.819  0.0544  0.5253  0.4125
  145MOL    H6629154   3.802   7.501   5.041 -0.8955  1.0636 -0.4805
  145MOL    H6729155   3.690   7.369   5.062 -1.3296 -0.3104  0.4786
  145MOL    H6829156   3.501   7.558   5.067  2.2115 -1.6855  3.7466
  145MOL    H6929157   3.678   7.577   4.821 -0.2684  0.2699 -0.7765
  145MOL    H7029158   3.390   7.651   4.890 -1.4454 -1.7360 -1.5065
  145MOL    H7129159   3.435   7.603   4.734  1.0116 -0.7200  0.7995
  145MOL    C7229160   3.521   7.802   4.756 -0.0579  0.2796 -0.1079
  145MOL    C7329161   3.412   7.897   4.753  0.6217 -0.0801 -0.7428
  145MOL    C7429162   3.406   0.032   4.834 -0.5782 -0.0070  0.4828
  145MOL    C7529163   3.308   0.144   4.822  0.4341  0.3153  0.5810
  145MOL    H7629164   3.602   7.840   4.818  0.9893 -5.4412  2.4426
  145MOL    H7729165   3.564   7.789   4.657  0.2523 -1.9514  0.2901
  145MOL    H7829166   3.346   7.898   4.667 -1.6132 -1.1899  0.9212
  145MOL    H7929167   3.477   0.043   4.914 -0.7153  0.0173  0.6015
  145MOL    H8029168   3.280   0.172   4.923 -0.9717 -1.6624  0.7698
  145MOL    H8129169   3.211   0.119   4.778  0.5702  2.4866 -1.0742
  145MOL    C8229170   3.361   0.273   4.760  0.2114 -0.2406 -1.0733
  145MOL    C8329171   3.481   0.331   4.821  0.2216  0.7270  0.0820
  145MOL    C8429172   3.596   0.372   4.761 -0.6829  0.1379 -0.5663
  145MOL    C8529173   3.714   0.434   4.845 -0.2617 -0.3109  0.1532
  145MOL    H8629174   3.394   0.239   4.661 -1.7886 -2.2296 -1.1021
  145MOL    H8729175   3.271   0.335   4.751 -0.8549 -1.2017  2.2408
  145MOL    H8829176   3.465   0.360   4.924 -2.1377 -2.0740  0.5609
  145MOL    H8929177   3.604   0.361   4.654  3.1117  0.9754 -0.4102
  145MOL    H9029178   3.677   0.433   4.948 -0.8160 -2.2049 -0.0379
  145MOL    H9129179   3.743   0.532   4.809 -0.8756 -0.2039 -0.0638
  145MOL    C9229180   3.837   0.353   4.817  0.4233  0.3812 -0.0688
  145MOL    C9329181   3.969   0.416   4.863  0.1325  0.4242 -0.0757
  145MOL    C9429182   4.042   0.395   4.978  0.2986  0.8476  0.6873
  145MOL    C9529183   4.170   0.453   5.021  0.7871 -0.5205 -0.3061
  145MOL    H9629184   3.811   0.257   4.862 -2.0555  1.8130  1.6258
  145MOL    H9729185   3.850   0.327   4.712  2.1518 -1.4572  0.5416
  145MOL    H9829186   4.004   0.493   4.795 -1.1930 -0.1415 -1.4073
  145MOL    H9929187   3.991   0.320   5.036  1.3998 -1.3981 -1.1258
  145MOL   H10029188   4.242   0.374   5.041  0.8872 -0.3945 -0.1670
  145MOL   H10129189   4.156   0.491   5.122 -0.9493 -1.0960 -0.3228
  145MOL   C10229190   4.233   0.562   4.932  0.1053  0.3708 -0.5661
  145MOL   C10329191   4.378   0.587   4.965  0.1243  0.1211  0.1179
  145MOL   C10429192   4.435   0.703   4.987  0.0812  0.6182  0.4444
  145MOL   C10529193   4.580   0.723   5.018  0.0961  0.0509  0.0400
  145MOL   H10629194   4.216   0.533   4.828  2.9733 -1.3390 -0.6151
  145MOL   H10729195   4.177   0.654   4.949 -1.1828 -0.8331  2.0661
  145MOL   H10829196   4.440   0.498   4.961 -1.0473 -0.6415 -2.3734
  145MOL   H10929197   4.375   0.792   4.977  2.0587  1.8144 -1.0528
  145MOL   H11029198   4.595   0.802   5.091 -0.8596  1.1642 -0.9327
  145MOL   H11129199   4.622   0.751   4.921 -3.0221  3.1257 -0.5160
  145MOL   C11229200   4.656   0.603   5.093  0.1319 -0.3590 -0.2383
  145MOL   C11329201   4.708   0.511   4.990  0.4903  0.2934  0.1191
  145MOL   C11429202   4.691   0.379   4.982 -1.0242  0.4134  0.2357
  145MOL   C11529203   4.748   0.295   4.868  0.0685 -0.3203  0.3265
  145MOL   H11629204   4.749   0.639   5.138 -0.2843  0.4215  0.0115
  145MOL   H11729205   4.592   0.556   5.167 -1.9493  2.2748 -0.2800
  145MOL   H11829206   4.774   0.556   4.917  0.1522 -0.2901 -0.5561
  145MOL   H11929207   4.625   0.328   5.049 -2.2746  0.5637 -0.8608
  145MOL   H12029208   4.829   0.348   4.818 -0.2282 -1.1924 -1.1186
  145MOL   H12129209   4.667   0.296   4.794  0.1793  2.2878  0.1789
  145MOL   C12229210   4.790   0.155   4.917 -0.3111  0.2415  0.6192
  145MOL   C12329211   4.874   0.084   4.814 -0.1842 -0.1355 -0.1912
  145MOL   C12429212   4.837   7.946   4.751 -0.2664  0.1088  0.6056
  145MOL   C12529213   4.919   7.871   4.643  0.4031  0.2959 -0.8671
  145MOL   H12629214   4.858   0.162   5.001  2.7617  0.2923 -1.7688
  145MOL   H12729215   4.701   0.105   4.955 -1.5232  2.1360  0.3101
  145MOL   H12829216   4.962   0.141   4.792  0.1629 -0.2713  0.8439
  145MOL   H12929217   4.753   7.892   4.792 -0.2038  1.3525  2.4408
  145MOL   H13029218   5.018   7.912   4.623  0.1144  0.5843 -1.7084
  145MOL   H13129219   4.865   7.881   4.549  0.8386  1.3490 -1.0186
  145MOL   C13229220   4.936   7.716   4.674 -0.2324  0.1927  0.2573
  145MOL   C13329221   5.029   7.652   4.572 -0.8617  0.1560 -0.2080
  145MOL   C13429222   5.148   7.595   4.594 -0.3611 -0.5182 -0.0499
  145MOL   C13529223   5.223   7.513   4.497 -0.4928  0.2516  0.6420
  145MOL   H13629224   4.992   7.716   4.768  1.6648  1.9469 -0.8102
  145MOL   H13729225   4.840   7.665   4.682 -0.2700  0.2200 -0.0211
  145MOL   H13829226   4.986   7.635   4.475  0.9319 -1.8809 -0.6928
  145MOL   H13929227   5.195   7.607   4.691  1.6833  0.1050 -1.0947
  145MOL   H14029228   5.164   7.495   4.407  0.9984 -0.9116 -0.1353
  145MOL   H14129229   5.231   7.415   4.543  2.1845  0.4412  0.6316
  145MOL   C14229230   5.358   7.566   4.462  0.7526  0.4308 -0.2051
  145MOL   C14329231   5.448   7.565   4.582  0.1943  0.0904 -0.5391
  145MOL   C14429232   5.491   7.671   4.656 -0.2730  0.0163  0.4755
  145MOL   C14529233   5.582   7.650   4.773 -0.2585 -0.6518  0.2281
  145MOL   H14629234   5.404   7.508   4.382  0.2806  0.5068 -0.5324
  145MOL   H14729235   5.339   7.664   4.418  2.2413  0.4038 -0.9580
  145MOL   H14829236   5.496   7.474   4.614 -0.6330  0.0530  0.6259
  145MOL   H14929237   5.458   7.768   4.622 -1.4641 -0.9224 -1.1950
  145MOL   H15029238   5.604   7.546   4.796 -0.3926 -0.7039  0.1192
  145MOL   H15129239   5.540   7.709   4.855 -1.1885 -0.2212 -0.5388
  145MOL   C15229240   5.720   7.712   4.757 -0.9140 -0.0755 -0.4952
  145MOL   C15329241   5.714   7.864   4.724 -0.3045 -0.2940 -0.2174
  145MOL   C15429242   5.811   7.951   4.764  0.4255  0.2695 -0.5162
  145MOL   C15529243   5.818   0.122   4.727 -0.2901 -0.6486 -0.7140
  145MOL   H15629244   5.776   7.712   4.850  0.1415 -0.6498 -1.1275
  145MOL   H15729245   5.781   7.666   4.679 -0.3215 -1.7198  0.9032
  145MOL   H15829246   5.645   7.905   4.651 -2.1422  2.2829  2.8337
  145MOL   H15929247   5.896   7.919   4.822 -0.5225  0.0687  0.7952
  145MOL   H16029248   5.809   0.178   4.820  0.9281  0.6482 -1.3467
  145MOL   H16129249   5.740   0.164   4.664  0.6924  2.2260 -0.1263
  145MOL   C16229250   5.948   0.147   4.650  0.1837 -0.3465 -0.4926
  145MOL   C16329251   5.948   0.287   4.599  0.9050 -0.2138  0.9417
  145MOL   C16429252   5.995   0.396   4.660  0.0267 -0.3709 -0.3886
  145MOL   C16529253   5.979   0.537   4.605  0.3754 -0.1300  0.0921
  145MOL   H16629254   6.033   0.138   4.717  0.0208  0.9558 -0.1012
  145MOL   H16729255   5.976   0.076   4.572  2.2145  0.4522 -0.5108
  145MOL   H16829256   5.905   0.304   4.501  1.2593  2.5775  1.2070
  145MOL   H16929257   6.022   0.393   4.764 -0.1046  0.4942 -0.3222
  145MOL   H17029258   5.986   0.523   4.497 -0.6137 -1.5424  0.2023
  145MOL   H17129259   6.069   0.590   4.637 -0.0480  0.6152  0.0379
  145MOL   C17229260   5.862   0.614   4.662  0.4037 -0.6993 -0.0222
  145MOL   C17329261   5.722   0.572   4.613 -0.5491 -0.6595  0.9135
  145MOL   C17429262   5.632   0.641   4.537 -0.2187 -0.3954  0.5840
  145MOL   C17529263   5.488   0.608   4.521  0.6563 -1.0463 -0.2073
  145MOL   H17629264   5.876   0.623   4.770 -3.3110 -2.0771  0.6489
  145MOL   H17729265   5.862   0.716   4.625 -2.3528 -0.9650 -0.8486
  145MOL   H17829266   5.698   0.467   4.623 -1.1684 -0.5584  0.4966
  145MOL   H17929267   5.651   0.745   4.514  0.5257 -0.3420  1.3878
  145MOL   H18029268   5.428   0.653   4.599 -1.7836 -1.4295 -1.8207
  145MOL   H18129269   5.479   0.503   4.546 -0.9657 -0.5435  1.3554
  145MOL   C18229270   5.445   0.653   4.378  0.1691  0.0395 -0.3361
  145MOL   C18329271   5.294   0.647   4.364 -0.0291  0.5399 -0.2379
  145MOL   C18429272   5.218   0.735   4.295 -0.2184 -0.5035 -0.8409
  145MOL   C18529273   5.074   0.736   4.290  1.0086 -0.9472 -0.0465
  145MOL   H18629274   5.478   0.756   4.364 -0.4090  0.3751  0.7522
  145MOL   H18729275   5.493   0.591   4.301  0.3921 -0.2498  0.0342
  145MOL   H18829276   5.241   0.570   4.419 -1.7514  1.9252  0.0685
  145MOL   H18929277   5.271   0.810   4.238 -0.1190  0.4982  0.5481
  145MOL   H19029278   5.024   0.798   4.365  0.2640  0.3867 -1.6222
  145MOL   H19129279   5.046   0.632   4.304  1.0587 -0.7935  1.3497
  145MOL   C19229280   5.025   0.778   4.147 -0.3002 -0.4893 -0.7529
  145MOL   C19329281   4.876   0.807   4.129  0.1354 -0.5617 -0.0902
  145MOL   C19429282   4.792   0.882   4.201 -0.4098 -0.4469  0.3749
  145MOL   C19529283   4.646   0.885   4.173  0.8012  0.2581 -0.2791
  145MOL   H19629284   5.082   0.870   4.133  1.1118 -1.2001  0.2153
  145MOL   H19729285   5.063   0.717   4.065  1.3721 -0.2840 -0.1418
  145MOL   H19829286   4.837   0.755   4.043 -0.3462 -1.5776  0.7333
  145MOL   H19929287   4.827   0.937   4.287  1.6160  1.1578 -1.4377
  145MOL   H20029288   4.606   0.955   4.247  0.4585  0.6531 -0.8383
  145MOL   H20129289   4.599   0.787   4.185  0.6590  0.3418 -0.1316
  145MOL   H20229290   4.641   0.921   4.071  4.3283 -1.2730 -1.0603
  146MOL     C129291   1.571   1.113   7.548  0.4464 -0.4173  0.5583
  146MOL     C229292   1.538   1.054   7.688 -0.5540  0.2975  0.4150
  146MOL     C329293   1.460   0.950   7.705  0.6660 -0.3255  0.0532
  146MOL     C429294   1.434   0.890   7.842  0.1943 -0.1096 -0.0436
  146MOL     H529295   1.672   1.095   7.511  0.4056  0.1392  0.1697
  146MOL     H629296   1.559   1.221   7.542 -1.8416 -0.6141  1.0146
  146MOL     H729297   1.588   1.103   7.771 -0.4010  0.0414  0.4720
  146MOL     H829298   1.418   0.906   7.616 -1.0670 -0.7457  1.0550
  146MOL     H929299   1.344   0.924   7.893  0.1054  0.9946 -0.9173
  146MOL    H1029300   1.520   0.915   7.904 -0.2955  0.7122  0.3180
  146MOL    H1129301   1.499   1.065   7.481 -0.0811 -1.3878  1.8015
  146MOL    C1229302   1.422   0.738   7.827 -0.3138  0.1002 -0.4201
  146MOL    C1329303   1.460   0.659   7.950 -0.0203 -0.2580 -0.0058
  146MOL    C1429304   1.576   0.594   7.973 -0.2520  0.2815 -0.3001
  146MOL    C1529305   1.609   0.507   0.117  0.1736 -0.9248  0.1575
  146MOL    H1629306   1.323   0.707   7.792 -0.1602  0.4932 -1.2084
  146MOL    H1729307   1.490   0.709   7.747 -0.7785 -1.6405 -0.2237
  146MOL    H1829308   1.390   0.656   0.055 -1.6685  2.8658 -1.2161
  146MOL    H1929309   1.648   0.606   7.893  1.9755 -0.2814  1.5472
  146MOL    H2029310   1.633   0.404   0.092 -0.5651 -1.7913  2.7989
  146MOL    H2129311   1.524   0.491   0.184 -0.7104  1.6946 -0.2968
  146MOL    C2229312   1.728   0.569   0.195 -0.2526  0.5381 -0.0403
  146MOL    C2329313   1.765   0.485   0.319 -0.1501  0.4608  0.0990
  146MOL    C2429314   1.780   0.544   0.440 -1.0316 -0.0450  0.1352
  146MOL    C2529315   1.824   0.465   0.562  0.7971  0.5080 -0.3734
  146MOL    H2629316   1.817   0.581   0.134  0.2957 -0.1258  0.6355
  146MOL    H2729317   1.702   0.667   0.235  0.7068  0.2594  1.2984
  146MOL    H2829318   1.793   0.381   0.308 -0.2096  0.3670  0.8418
  146MOL    H2929319   1.766   0.648   0.463  3.8131  0.7445  0.0380
  146MOL    H3029320   1.886   0.538   0.615 -0.5930  0.4951  1.3031
  146MOL    H3129321   1.888   0.381   0.535  0.4206 -0.2735  1.1056
  146MOL    C3229322   1.706   0.420   0.643 -0.4107 -0.4496  0.3914
  146MOL    C3329323   1.760   0.355   0.776 -0.0362 -0.6715  0.1381
  146MOL    C3429324   1.686   0.347   0.888 -0.5065  0.0764  0.2297
  146MOL    C3529325   1.741   0.295   1.016  0.1526  0.3338 -0.1218
  146MOL    H3629326   1.652   0.510   0.672  3.7125  2.8024 -1.5003
  146MOL    H3729327   1.643   0.360   0.577  0.0360 -1.3804  0.8059
  146MOL    H3829328   1.864   0.326   0.775 -1.0046 -4.3914 -1.3228
  146MOL    H3929329   1.581   0.372   0.890 -0.8447 -1.0955 -1.6145
  146MOL    H4029330   1.840   0.256   0.993 -0.0235  0.3205 -0.8611
  146MOL    H4129331   1.689   0.209   1.059 -0.1094  1.0214  0.9722
  146MOL    C4229332   1.752   0.403   1.127 -0.1724 -0.6153 -0.1323
  146MOL    C4329333   1.886   0.399   1.188 -0.0891  0.1559 -0.3961
  146MOL    C4429334   1.915   0.363   1.316 -0.4245 -0.6076  0.3629
  146MOL    C4529335   2.055   0.351   1.374 -0.1386 -0.4446  0.3072
  146MOL    H4629336   1.738   0.504   1.088  3.4041  1.0063  2.5440
  146MOL    H4729337   1.672   0.381   1.198 -0.3680  1.1455  0.2162
  146MOL    H4829338   1.971   0.426   1.128  0.3246 -0.0984  0.0642
  146MOL    H4929339   1.832   0.324   1.373 -0.5480 -1.7934 -0.6008
  146MOL    H5029340   2.129   0.375   1.297  2.4144  1.3807  3.1954
  146MOL    H5129341   2.067   0.250   1.412  1.4443 -0.8711 -1.2452
  146MOL    C5229342   2.068   0.443   1.497 -0.6476 -0.3202 -0.2790
  146MOL    C5329343   2.205   0.447   1.568  0.3825 -0.4686  0.3817
  146MOL    C5429344   2.281   0.555   1.580 -0.6782 -0.7764 -0.0849
  146MOL    C5529345   2.424   0.563   1.640 -0.1067  0.7016 -0.4515
  146MOL    H5629346   2.030   0.542   1.472 -2.2386 -1.2176 -1.5897
  146MOL    H5729347   1.998   0.408   1.573 -1.4704  3.1627  0.6284
  146MOL    H5829348   2.232   0.349   1.605  1.4145 -0.1502  0.4804
  146MOL    H5929349   2.230   0.639   1.534 -0.6893 -2.6313 -3.6488
  146MOL    H6029350   2.447   0.481   1.708 -0.0944  0.6574 -0.5085
  146MOL    H6129351   2.415   0.654   1.699  0.4611  0.6320 -0.2578
  146MOL    C6229352   2.525   0.591   1.529 -0.1323 -0.4459  0.1946
  146MOL    C6329353   2.565   0.466   1.444  0.1558  0.3097  0.5657
  146MOL    C6429354   2.564   0.457   1.308 -0.1201  0.1159  0.1748
  146MOL    C6529355   2.610   0.333   1.225 -0.1073 -0.0770  0.7318
  146MOL    H6629356   2.497   0.668   1.457 -0.6707 -0.7894  0.0350
  146MOL    H6729357   2.614   0.629   1.579  1.2787 -1.2994 -1.6477
  146MOL    H6829358   2.624   0.386   1.486 -1.8720 -1.9571 -0.7563
  146MOL    H6929359   2.527   0.539   1.248 -1.6378 -1.8605 -1.6600
  146MOL    H7029360   2.619   0.244   1.288 -1.1219  0.1032  1.1541
  146MOL    H7129361   2.714   0.352   1.201 -0.1384 -1.2312 -0.3302
  146MOL    C7229362   2.543   0.306   1.089 -1.0356 -0.6141  0.5364
  146MOL    C7329363   2.579   0.425   0.997  0.6771  0.2655  0.0424
  146MOL    C7429364   2.647   0.421   0.880  0.3055 -0.6900  0.6700
  146MOL    C7529365   2.662   0.546   0.801 -0.2527  0.1156  0.4481
  146MOL    H7629366   2.602   0.226   1.045 -1.4137 -0.1358 -0.8642
  146MOL    H7729367   2.437   0.279   1.083 -1.1309 -0.1277 -0.0201
  146MOL    H7829368   2.540   0.522   1.024  1.6238  0.0185  2.4893
  146MOL    H7929369   2.686   0.330   0.836  0.6863 -0.5571  0.7374
  146MOL    H8029370   2.768   0.570   0.796 -0.5250  1.3247  0.4780
  146MOL    H8129371   2.630   0.624   0.869  0.8725  1.0225 -0.0418
  146MOL    C8229372   2.595   0.547   0.666  0.1387 -0.5936 -0.4007
  146MOL    C8329373   2.616   0.678   0.587 -0.2164  0.0525  0.4168
  146MOL    C8429374   2.590   0.682   0.450 -0.4997 -0.5474 -0.0208
  146MOL    C8529375   2.585   0.809   0.369 -0.3923 -0.3438  0.3625
  146MOL    H8629376   2.632   0.463   0.608 -0.8478  0.1087 -2.0730
  146MOL    H8729377   2.489   0.522   0.671  0.4281 -1.8564 -0.3654
  146MOL    H8829378   2.646   0.767   0.641  1.1476 -0.5827  0.7311
  146MOL    H8929379   2.553   0.591   0.407 -1.3563 -0.8114  1.2600
  146MOL    H9029380   2.606   0.774   0.268  2.3313 -0.7134  1.0117
  146MOL    H9129381   2.663   0.878   0.402 -1.3986  0.2764  1.4887
  146MOL    C9229382   2.452   0.876   0.385 -0.1951  0.4418  0.0145
  146MOL    C9329383   2.419   0.987   0.288  0.5747  0.5297 -0.0825
  146MOL    C9429384   2.510   1.073   0.240  0.4680  0.0665  0.4353
  146MOL    C9529385   2.482   1.185   0.140 -0.4987  0.4164  0.4441
  146MOL    H9629386   2.382   0.797   0.360 -1.2972  1.0066  1.2684
  146MOL    H9729387   2.435   0.919   0.483 -1.0521 -0.1447  0.1269
  146MOL    H9829388   2.315   0.996   0.262  0.1373  1.9780  2.0760
  146MOL    H9929389   2.607   1.056   0.286 -0.0260  0.0437  1.4913
  146MOL   H10029390   2.484   1.279   0.195 -2.4648  1.2176 -0.8150
  146MOL   H10129391   2.377   1.184   0.111  0.5285  0.5596 -3.5414
  146MOL   C10229392   2.573   1.197   0.013  0.7299 -0.1649 -0.0156
  146MOL   C10329393   2.700   1.276   0.029  0.5210  0.0463  0.4020
  146MOL   C10429394   2.820   1.228   7.969  0.5806  0.6039 -0.6304
  146MOL   C10529395   2.947   1.302   7.962 -0.7319 -0.3324 -0.1967
  146MOL   H10629396   2.598   1.094   7.963 -0.6076 -0.2488 -1.0517
  146MOL   H10729397   2.520   1.243   7.906 -0.8538 -1.1768  0.4134
  146MOL   H10829398   2.699   1.381   0.053  0.5728  0.7186 -2.3629
  146MOL   H10929399   2.827   1.126   7.935 -2.5374  0.4937 -1.1375
  146MOL   H11029400   3.013   1.250   0.053 -1.5077 -0.0495  0.7830
  146MOL   H11129401   2.934   1.397   0.037 -0.3222 -0.0530 -0.5973
  146MOL   C11229402   3.010   1.303   7.825 -0.4150  1.0521 -0.6837
  146MOL   C11329403   3.158   1.327   7.825 -0.5542  0.0415 -0.0184
  146MOL   C11429404   3.221   1.438   7.794 -0.2936 -0.6479  0.1213
  146MOL   C11529405   3.367   1.442   7.793 -0.5242 -0.0336 -0.6628
  146MOL   H11629406   3.001   1.207   7.773 -1.5915  0.9704 -0.3363
  146MOL   H11729407   2.960   1.376   7.761 -1.2804  0.6766 -0.4392
  146MOL   H11829408   3.211   1.242   7.864 -0.3020  0.0463 -0.3496
  146MOL   H11929409   3.159   1.519   7.760  0.1256 -0.7931 -1.0298
  146MOL   H12029410   3.404   1.451   7.691 -1.7740 -1.7699 -1.2774
  146MOL   H12129411   3.421   1.355   7.830  2.1811  1.4212 -1.0069
  146MOL   C12229412   3.431   1.555   7.872 -0.4439 -0.1914 -0.0923
  146MOL   C12329413   3.361   1.577   0.029 -0.6506  0.3057  0.1543
  146MOL   C12429414   3.421   1.591   0.152  0.0615 -0.2096  0.1273
  146MOL   C12529415   3.348   1.622   0.275 -0.5131  0.3161 -0.0587
  146MOL   H12629416   3.538   1.551   7.889 -0.2663  1.7973 -0.6484
  146MOL   H12729417   3.423   1.643   7.808 -1.8022 -0.7564 -0.7201
  146MOL   H12829418   3.254   1.589   0.020 -0.4904  0.3791 -1.9987
  146MOL   H12929419   3.529   1.588   0.157  0.1013 -0.0216 -0.5374
  146MOL   H13029420   3.250   1.664   0.251  0.2517  2.5709  0.6855
  146MOL   H13129421   3.384   1.704   0.337 -1.9643  0.4893  0.5913
  146MOL   C13229422   3.336   1.496   0.365 -0.3078 -0.5634 -0.6200
  146MOL   C13329423   3.295   1.524   0.504 -0.0621  0.4213  0.1083
  146MOL   C13429424   3.342   1.456   0.605 -0.1101  0.2039 -0.1015
  146MOL   C13529425   3.301   1.475   0.751 -0.3476 -0.6710  0.1733
  146MOL   H13629426   3.269   1.420   0.325  2.2126 -3.9927  1.3936
  146MOL   H13729427   3.434   1.448   0.364  1.3621  2.4770  3.8084
  146MOL   H13829428   3.230   1.611   0.503 -1.3997 -0.5607 -1.6851
  146MOL   H13929429   3.409   1.373   0.587  1.0659  0.6130  2.3027
  146MOL   H14029430   3.264   1.377   0.782 -0.0021 -0.4638  1.2675
  146MOL   H14129431   3.216   1.543   0.758 -0.3588 -0.8697  2.2938
  146MOL   C14229432   3.418   1.535   0.835  0.2428 -0.0624 -0.0017
  146MOL   C14329433   3.377   1.520   0.981 -0.0774 -1.0574  0.2784
  146MOL   C14429434   3.365   1.627   1.061  0.4700  0.4616  0.1414
  146MOL   C14529435   3.320   1.617   1.207 -0.1711 -0.5727 -0.7716
  146MOL   H14629436   3.499   1.464   0.814  0.0400  0.1503 -1.5241
  146MOL   H14729437   3.448   1.637   0.815 -3.2572  0.5762 -2.4057
  146MOL   H14829438   3.351   1.421   1.014 -4.4377 -0.2491 -0.3967
  146MOL   H14929439   3.395   1.724   1.024  0.4048  0.0814 -0.9366
  146MOL   H15029440   3.328   1.509   1.222  1.6167 -0.8232 -3.1646
  146MOL   H15129441   3.217   1.649   1.215  0.6483  2.1161 -0.6670
  146MOL   C15229442   3.418   1.704   1.295 -0.3113  0.6075  0.2108
  146MOL   C15329443   3.544   1.633   1.347  0.1720 -0.2397 -0.8149
  146MOL   C15429444   3.567   1.586   1.474 -0.3594  0.1086 -0.5388
  146MOL   C15529445   3.679   1.497   1.523 -0.1382 -0.7951 -0.5464
  146MOL   H15629446   3.451   1.794   1.243  3.4377  0.3698  2.0290
  146MOL   H15729447   3.353   1.742   1.374 -1.4862 -0.9402  0.0178
  146MOL   H15829448   3.619   1.603   1.276 -0.5077  0.0644 -1.6810
  146MOL   H15929449   3.497   1.601   1.555  0.5332 -0.0210  0.2761
  146MOL   H16029450   3.754   1.469   1.450 -0.6932 -2.7362 -0.4151
  146MOL   H16129451   3.642   1.400   1.559  1.2243 -0.9710  0.4089
  146MOL   C16229452   3.752   1.565   1.638  0.4710  1.0651 -1.3966
  146MOL   C16329453   3.877   1.493   1.673 -0.5034  0.5555  0.1193
  146MOL   C16429454   3.900   1.428   1.787  0.5917  0.4300  0.0526
  146MOL   C16529455   4.022   1.342   1.814  0.5376  0.2128 -0.0981
  146MOL   H16629456   3.776   1.670   1.622 -3.1257  2.0382 -0.8093
  146MOL   H16729457   3.686   1.581   1.723 -0.0702 -3.2220 -0.9232
  146MOL   H16829458   3.957   1.483   1.601  0.2540  0.5200  0.9519
  146MOL   H16929459   3.821   1.435   1.860  2.2176 -1.2650  2.0259
  146MOL   H17029460   4.097   1.351   1.735 -0.1803  2.9252 -0.5245
  146MOL   H17129461   3.993   1.238   1.806 -0.7127  0.5939 -0.5927
  146MOL   C17229462   4.101   1.385   1.935 -0.3682 -0.2143  0.1413
  146MOL   C17329463   4.044   1.348   2.065 -0.4942  0.6857 -0.0785
  146MOL   C17429464   4.030   1.432   2.169 -0.1377  0.3579  0.3947
  146MOL   C17529465   3.981   1.398   2.309 -0.1949  0.0413  0.1154
  146MOL   H17629466   4.190   1.322   1.929  1.1933  1.5660  3.2451
  146MOL   H17729467   4.120   1.492   1.931 -0.5547 -0.2444 -1.9094
  146MOL   H17829468   4.016   1.244   2.070 -0.5364  0.6060 -1.8696
  146MOL   H17929469   4.050   1.535   2.147  1.1649 -0.1229 -0.7482
  146MOL   H18029470   3.943   1.296   2.314  0.4208 -0.2001 -0.1753
  146MOL   H18129471   3.893   1.456   2.338  0.3771  1.5763 -1.1322
  146MOL   C18229472   4.092   1.411   2.406 -0.4796 -0.1643 -0.0706
  146MOL   C18329473   4.058   1.345   2.539 -0.3978  0.3557  0.3028
  146MOL   C18429474   3.941   1.300   2.583  0.2593 -0.3064 -1.0591
  146MOL   C18529475   3.920   1.233   2.722 -0.0934  0.6409  0.1053
  146MOL   H18629476   4.173   1.346   2.373 -0.8132 -1.1619  1.0337
  146MOL   H18729477   4.139   1.508   2.422  0.6946 -1.0305  1.9487
  146MOL   H18829478   4.148   1.330   2.596 -1.5223  0.4403  2.1454
  146MOL   H18929479   3.847   1.309   2.529 -0.7669 -1.0108  0.5698
  146MOL   H19029480   3.876   1.137   2.696  0.4456 -0.4129  2.8867
  146MOL   H19129481   3.848   1.281   2.789 -0.5962 -2.3712  1.8352
  146MOL   C19229482   4.059   1.198   2.787 -0.0606  0.3455 -0.5419
  146MOL   C19329483   4.055   1.105   2.905  0.1495  0.2434 -0.1741
  146MOL   C19429484   4.030   0.973   2.903  0.6022  0.2800 -0.5719
  146MOL   C19529485   4.009   0.902   3.033 -0.0340 -0.1402  0.3476
  146MOL   H19629486   4.119   1.140   2.716  0.1480  0.6489 -0.6135
  146MOL   H19729487   4.117   1.288   2.806  0.6788 -0.0470 -0.9175
  146MOL   H19829488   4.056   1.156   3.000 -0.6484  0.1586 -0.1146
  146MOL   H19929489   4.018   0.914   2.814  0.4079 -2.2291  1.0671
  146MOL   H20029490   4.069   0.812   3.046  0.9992  0.7164  1.5927
  146MOL   H20129491   3.905   0.870   3.039 -0.4212  1.2158  0.9394
  146MOL   H20229492   4.030   0.969   3.116  1.1080 -4.1684  3.5284
  147MOL     C129493   3.597   5.085   7.971  0.1375 -0.2381  0.1040
  147MOL     C229494   3.456   5.045   7.945 -0.2612  0.6780  0.3774
  147MOL     C329495   3.356   5.063   0.056 -0.2335  0.1430 -0.1821
  147MOL     C429496   3.215   5.020   0.029 -0.3770 -0.7920  0.6602
  147MOL     H529497   3.646   5.101   7.875 -1.0144 -0.5849 -0.5502
  147MOL     H629498   3.650   5.004   0.045  0.7052  0.5320  0.7366
  147MOL     H729499   3.432   5.008   7.846 -1.1903  0.2525  0.7573
  147MOL     H829500   3.387   5.100   0.152  0.4281  0.5206 -0.5369
  147MOL     H929501   3.209   4.934   7.940  0.3459  0.5396 -1.1633
  147MOL    H1029502   3.156   5.103   7.966 -0.6762 -0.5855  1.5135
  147MOL    H1129503   3.615   5.181   0.041  0.5170  0.0436 -0.6024
  147MOL    C1229504   3.138   4.974   0.163  0.2858  0.3293  0.2746
  147MOL    C1329505   2.990   5.006   0.170  0.4856  0.2933  0.0675
  147MOL    C1429506   2.891   4.915   0.160  0.4857 -0.1045 -0.0828
  147MOL    C1529507   2.742   4.937   0.159 -0.7371 -0.3301  0.1023
  147MOL    H1629508   3.157   4.869   0.186 -3.6966 -0.7019 -0.5930
  147MOL    H1729509   3.184   5.029   0.245  1.2850  2.8566 -1.9371
  147MOL    H1829510   2.964   5.108   0.194 -1.6511 -0.6490  1.9833
  147MOL    H1929511   2.920   4.811   0.162 -2.5938 -1.0242 -0.8072
  147MOL    H2029512   2.692   4.855   0.108  1.6379 -3.2077  2.2587
  147MOL    H2129513   2.720   5.029   0.105  1.9746  0.7761  0.8250
  147MOL    C2229514   2.686   4.949   0.307  0.2965  0.4068  0.0942
  147MOL    C2329515   2.537   4.977   0.325  0.3125 -0.2727 -0.6484
  147MOL    C2429516   2.441   4.968   0.228  0.2845 -0.4291 -0.6973
  147MOL    C2529517   2.290   4.977   0.246  0.4983  0.2907 -0.4945
  147MOL    H2629518   2.697   4.855   0.360  0.0813  0.0713 -0.4534
  147MOL    H2729519   2.729   5.033   0.362 -0.9699  1.1852 -0.0945
  147MOL    H2829520   2.508   4.995   0.427 -0.1162  0.2147 -0.8527
  147MOL    H2929521   2.480   4.942   0.130  2.7016  0.3004  0.0211
  147MOL    H3029522   2.255   5.079   0.225  0.2859  0.9788  2.9294
  147MOL    H3129523   2.254   4.952   0.346  1.9165  0.6465  0.1220
  147MOL    C3229524   2.220   4.887   0.143  0.3120  0.2396 -0.1896
  147MOL    C3329525   2.077   4.855   0.190 -0.7396 -0.9447  0.8443
  147MOL    C3429526   2.047   4.750   0.266 -0.3422 -0.1509 -0.4286
  147MOL    C3529527   1.896   4.696   0.285  0.2056  0.0986  0.1084
  147MOL    H3629528   2.214   4.930   0.044  0.9411 -1.6063 -1.0475
  147MOL    H3729529   2.269   4.791   0.125 -0.9418 -0.3931 -0.2770
  147MOL    H3829530   2.003   4.925   0.154 -0.9547 -0.8516  1.4672
  147MOL    H3929531   2.127   4.686   0.301 -0.8818  0.0262  1.1918
  147MOL    H4029532   1.850   4.735   0.376  1.4919  0.9061  0.4235
  147MOL    H4129533   1.896   4.587   0.286  0.1661  0.0848 -0.6861
  147MOL    C4229534   1.806   4.744   0.169 -0.2213  0.9165  0.0896
  147MOL    C4329535   1.669   4.690   0.196 -0.1209  0.2806 -0.1430
  147MOL    C4429536   1.566   4.772   0.220 -0.2530 -0.2875  0.0714
  147MOL    C4529537   1.429   4.724   0.244  0.0522  0.5750 -0.2547
  147MOL    H4629538   1.797   4.853   0.169 -0.7929  0.8705  0.5860
  147MOL    H4729539   1.841   4.713   0.071 -1.0247 -0.7150  0.3163
  147MOL    H4829540   1.663   4.583   0.190 -0.4865  0.1915  1.5946
  147MOL    H4929541   1.587   4.878   0.222 -0.1012 -0.3340  0.8912
  147MOL    H5029542   1.419   4.622   0.207  1.7518 -0.1852  1.2823
  147MOL    H5129543   1.367   4.781   0.175 -0.7631 -1.8265 -1.5516
  147MOL    C5229544   1.374   4.763   0.382 -0.8746  0.3408  0.1580
  147MOL    C5329545   1.222   4.769   0.398 -0.9872  0.5662 -0.3083
  147MOL    C5429546   1.139   4.694   0.327  0.2070  0.7667  0.0853
  147MOL    C5529547   0.989   4.693   0.349 -0.5396  0.2914  0.7741
  147MOL    H5629548   1.413   4.701   0.462  1.6427  1.1899 -0.3848
  147MOL    H5729549   1.398   4.869   0.398  0.2752 -0.1965  2.2030
  147MOL    H5829550   1.181   4.831   0.476 -0.0365  1.6794 -0.6771
  147MOL    H5929551   1.180   4.631   0.249 -1.5453  3.2599 -2.9595
  147MOL    H6029552   0.951   4.759   0.427 -0.6739 -1.2722  2.0450
  147MOL    H6129553   0.960   4.592   0.378  2.3665 -0.3290  1.6509
  147MOL    C6229554   0.912   4.740   0.220 -0.0488 -0.4486  0.2356
  147MOL    C6329555   0.765   4.696   0.229  0.8826  0.7297 -0.4487
  147MOL    C6429556   0.662   4.785   0.229  0.1363  0.3072  0.2043
  147MOL    C6529557   0.510   4.750   0.227  1.0002 -0.2849 -0.6129
  147MOL    H6629558   0.921   4.848   0.214 -1.3228 -0.2969  0.9883
  147MOL    H6729559   0.943   4.696   0.125 -1.6584  1.6565 -1.3055
  147MOL    H6829560   0.738   4.592   0.220  0.5460  1.0047 -3.0128
  147MOL    H6929561   0.688   4.889   0.217  2.4779 -0.1753  0.8818
  147MOL    H7029562   0.478   4.773   0.329  0.4273  2.8248 -1.4550
  147MOL    H7129563   0.487   4.644   0.219 -2.4339  0.5352 -2.9605
  147MOL    C7229564   0.415   4.823   0.127 -0.1794 -0.1030 -0.5192
  147MOL    C7329565   0.438   4.979   0.128  0.6327 -0.4635  0.3430
  147MOL    C7429566   0.459   5.065   0.018  0.2105 -0.4930  0.4461
  147MOL    C7529567   0.481   5.213   0.036  0.0593 -0.3714 -0.2371
  147MOL    H7629568   0.448   4.778   0.034  1.0375  3.5253 -1.9649
  147MOL    H7729569   0.312   4.790   0.135 -0.0725  0.1872  2.2975
  147MOL    H7829570   0.423   5.019   0.227  0.1366 -0.6779  0.3586
  147MOL    H7929571   0.444   5.030   7.893  1.4656 -0.9970  0.4316
  147MOL    H8029572   0.579   5.254   0.009  0.2514 -0.6149  0.0901
  147MOL    H8129573   0.476   5.237   0.142 -0.8039  2.8479 -0.9392
  147MOL    C8229574   0.370   5.297   7.955 -0.3822 -0.2922  0.2812
  147MOL    C8329575   0.227   5.281   0.042 -0.1329  0.7682 -0.0735
  147MOL    C8429576   0.197   5.316   0.164  0.4667  0.3864 -0.4350
  147MOL    C8529577   0.058   5.293   0.219 -0.1600 -0.4150 -0.0425
  147MOL    H8629578   0.390   5.404   7.963  1.9813 -0.6565 -0.2321
  147MOL    H8729579   0.359   5.279   7.848  1.1619 -0.4501  0.1418
  147MOL    H8829580   0.154   5.227   7.961  1.1968  0.6939 -1.7117
  147MOL    H8929581   0.274   5.364   0.223 -0.4668  0.7582  0.4899
  147MOL    H9029582   0.060   5.218   0.299  0.7306 -2.1243 -1.6179
  147MOL    H9129583   7.972   5.240   0.147 -1.5326  1.5463 -0.2967
  147MOL    C9229584   7.958   5.419   0.259 -0.2848 -0.4390 -0.4570
  147MOL    C9329585   0.040   5.488   0.381 -1.0109 -0.1356 -0.0417
  147MOL    C9429586   0.014   5.442   0.506 -0.3660 -0.6864  0.4590
  147MOL    C9529587   0.061   5.512   0.634  0.1695  0.6218 -0.1092
  147MOL    H9629588   7.947   5.497   0.183 -1.3793  0.0161  0.1587
  147MOL    H9729589   7.853   5.398   0.276 -0.6782  1.4207 -0.4222
  147MOL    H9829590   0.102   5.575   0.366  1.5577 -1.6004  1.6013
  147MOL    H9929591   7.942   5.346   0.512  1.9204 -2.1135 -2.2165
  147MOL   H10029592   0.144   5.447   0.663  0.3221  1.1039  0.5367
  147MOL   H10129593   7.965   5.496   0.712  0.5573 -0.1609  0.0945
  147MOL   C10229594   0.109   5.657   0.623 -0.2035  0.1007 -0.2258
  147MOL   C10329595   0.166   5.706   0.751  0.1200 -0.1284 -0.5873
  147MOL   C10429596   0.130   5.819   0.810 -0.6819 -0.3461  0.3324
  147MOL   C10529597   0.174   5.864   0.949  0.1681  0.0864  0.1454
  147MOL   H10629598   0.175   5.674   0.538  0.2350  0.3954  0.1712
  147MOL   H10729599   0.024   5.724   0.607 -0.9485 -0.7742  0.0235
  147MOL   H10829600   0.241   5.635   0.783 -0.4898 -0.3159  0.4520
  147MOL   H10929601   0.058   5.880   0.758  0.4117  1.8620  1.3336
  147MOL   H11029602   0.250   5.939   0.932 -1.2784  1.2734 -1.3059
  147MOL   H11129603   0.217   5.776   0.996  2.2729  0.3986 -1.1395
  147MOL   C11229604   0.047   5.914   1.033 -0.0031  0.7043  0.0167
  147MOL   C11329605   7.958   6.035   0.977 -0.1596  0.4043  0.8000
  147MOL   C11429606   7.920   6.146   1.047  0.1473 -0.5226 -0.2163
  147MOL   C11529607   7.844   6.269   0.989 -0.6532  0.0463  0.5680
  147MOL   H11629608   7.957   5.829   1.041  1.6227 -0.6005  0.1754
  147MOL   H11729609   0.073   5.931   1.138  0.5856 -1.3505  0.2357
  147MOL   H11829610   7.929   6.035   0.873  0.3709 -2.0075  0.6176
  147MOL   H11929611   7.943   6.148   1.152 -0.8175  1.7327 -0.0345
  147MOL   H12029612   7.827   6.248   0.883 -0.9862 -1.7928  0.9867
  147MOL   H12129613   7.914   6.353   0.985 -0.5497 -0.0646 -0.0819
  147MOL   C12229614   7.724   6.314   1.073  0.1253 -0.3444  0.6411
  147MOL   C12329615   7.622   6.205   1.076 -0.5277 -0.0477  0.4618
  147MOL   C12429616   7.594   6.135   1.186 -0.8405 -0.4963  0.0354
  147MOL   C12529617   7.500   6.019   1.185 -0.8152 -0.1856 -0.1659
  147MOL   H12629618   7.751   6.350   1.172 -1.0194 -1.6321  1.4357
  147MOL   H12729619   7.682   6.408   1.037  1.0568  0.3434  1.3189
  147MOL   H12829620   7.563   6.184   0.988 -0.7896 -0.8837  0.8245
  147MOL   H12929621   7.661   6.152   1.269  1.2139 -2.1057 -1.2415
  147MOL   H13029622   7.557   5.927   1.201  1.2549  1.3622  1.8107
  147MOL   H13129623   7.455   5.998   1.088 -2.4100 -3.4478  1.1918
  147MOL   C13229624   7.378   6.046   1.280  0.4424  0.3644 -0.2205
  147MOL   C13329625   7.408   5.996   1.417  0.1513  0.0305  0.0285
  147MOL   C13429626   7.318   5.939   1.497  0.2801  0.1036  0.1371
  147MOL   C13529627   7.347   5.892   1.638 -0.9468 -0.3094  0.1737
  147MOL   H13629628   7.353   6.152   1.279  2.1066  0.7532 -1.5062
  147MOL   H13729629   7.295   5.991   1.236  1.3516 -1.3413  0.1629
  147MOL   H13829630   7.507   6.020   1.451  0.8485 -1.0094 -1.2056
  147MOL   H13929631   7.216   5.920   1.467  0.5302 -1.5485  0.2872
  147MOL   H14029632   7.269   5.941   1.697  1.0666  1.7299  1.2233
  147MOL   H14129633   7.449   5.921   1.663 -0.4962 -0.6861 -1.2110
  147MOL   C14229634   7.342   5.743   1.654 -0.0379  0.4295 -0.3865
  147MOL   C14329635   7.201   5.697   1.650 -0.5467  0.5103 -0.2209
  147MOL   C14429636   7.151   5.620   1.550  0.6171  0.0742 -0.4864
  147MOL   C14529637   7.011   5.566   1.550  0.6325  0.4538  0.3907
  147MOL   H14629638   7.392   5.683   1.577 -2.1964 -1.9331 -0.0084
  147MOL   H14729639   7.372   5.705   1.751 -0.9331 -0.8170 -0.5950
  147MOL   H14829640   7.133   5.729   1.727  0.8971 -0.9363  1.6872
  147MOL   H14929641   7.210   5.593   1.464  1.9781 -1.6045  0.9329
  147MOL   H15029642   6.951   5.607   1.469  0.2464  1.6791  1.2941
  147MOL   H15129643   6.965   5.598   1.643 -1.1785 -0.3426 -0.1890
  147MOL   C15229644   7.001   5.415   1.543  0.3369 -0.2279 -0.3165
  147MOL   C15329645   6.858   5.368   1.540 -0.2524 -0.0800 -0.1156
  147MOL   C15429646   6.812   5.273   1.618 -0.0911 -0.0036  0.4801
  147MOL   C15529647   6.677   5.199   1.613  0.6008  0.3023 -0.0008
  147MOL   H15629648   7.043   5.387   1.447 -1.5213  1.1870 -1.6054
  147MOL   H15729649   7.059   5.370   1.623  1.2783 -0.4892 -1.1481
  147MOL   H15829650   6.799   5.411   1.460  1.3251  2.5716  0.0841
  147MOL   H15929651   6.872   5.223   1.693 -1.4171 -3.1058 -0.4401
  147MOL   H16029652   6.622   5.237   1.527  2.4261 -0.1995 -1.4300
  147MOL   H16129653   6.616   5.226   1.700  0.6106 -1.3377  0.5381
  147MOL   C16229654   6.685   5.050   1.596 -0.4978  0.1375 -0.0255
  147MOL   C16329655   6.549   4.989   1.584 -0.2900  0.6352 -0.2702
  147MOL   C16429656   6.508   4.872   1.535 -0.5016 -0.7032 -0.3239
  147MOL   C16529657   6.365   4.829   1.519  1.0268  0.3508 -0.0021
  147MOL   H16629658   6.736   5.027   1.503  1.5899 -1.2327  1.4204
  147MOL   H16729659   6.746   5.005   1.675 -2.0202  0.2097  1.2082
  147MOL   H16829660   6.469   5.054   1.617  1.5059  1.2231  3.1902
  147MOL   H16929661   6.580   4.800   1.499 -0.8850 -1.0433 -0.4226
  147MOL   H17029662   6.321   4.831   1.419 -1.6119 -1.5238  1.0301
  147MOL   H17129663   6.296   4.888   1.580 -0.6630 -2.0484  0.5233
  147MOL   C17229664   6.342   4.694   1.572  0.2926  0.6274 -0.4981
  147MOL   C17329665   6.400   4.582   1.490  0.0855 -0.0872 -0.6452
  147MOL   C17429666   6.512   4.515   1.524 -0.4215  0.0630  0.3039
  147MOL   C17529667   6.561   4.396   1.443  0.1169 -0.8529 -0.1282
  147MOL   H17629668   6.385   4.689   1.672 -0.2705 -2.2724 -0.3562
  147MOL   H17729669   6.234   4.678   1.575  0.5943 -1.7632 -1.2188
  147MOL   H17829670   6.346   4.562   1.399 -0.7176  0.0204 -0.1915
  147MOL   H17929671   6.562   4.537   1.616  1.8948 -2.2857 -0.3521
  147MOL   H18029672   6.642   4.428   1.377  0.3001 -0.8487  0.0975
  147MOL   H18129673   6.476   4.366   1.382  0.6471  0.1820 -1.4010
  147MOL   C18229674   6.609   4.276   1.537 -0.5541  0.4458  0.2116
  147MOL   C18329675   6.688   4.164   1.460 -0.1925  0.3747 -0.7747
  147MOL   C18429676   6.823   4.145   1.477  0.3242  0.2669 -0.4005
  147MOL   C18529677   6.902   4.039   1.398 -0.2523  0.5334  0.1793
  147MOL   H18629678   6.675   4.306   1.618 -1.7317  2.7440  0.3460
  147MOL   H18729679   6.525   4.223   1.582  0.3057 -1.0309  0.1423
  147MOL   H18829680   6.638   4.102   1.388 -1.4319  1.1952 -0.6354
  147MOL   H18929681   6.887   4.202   1.542 -1.2717  0.6867  0.8426
  147MOL   H19029682   6.972   4.087   1.330  0.1704 -0.6907 -0.2619
  147MOL   H19129683   6.843   3.979   1.329  0.3012  2.8267 -2.3846
  147MOL   C19229684   6.975   3.939   1.486  0.1622  0.1535  0.4334
  147MOL   C19329685   7.055   3.832   1.411  0.3880  0.4321  0.2646
  147MOL   C19429686   7.184   3.804   1.434  0.0870  0.3827 -0.4336
  147MOL   C19529687   7.263   3.691   1.375 -0.1112 -0.0043  0.6469
  147MOL   H19629688   7.043   3.994   1.550 -1.3969  0.9799  1.4223
  147MOL   H19729689   6.897   3.902   1.552  1.8473 -0.5328  2.0623
  147MOL   H19829690   7.006   3.769   1.338  1.2862  0.6227 -0.5222
  147MOL   H19929691   7.231   3.849   1.521 -1.0924 -1.3996  1.1799
  147MOL   H20029692   7.331   3.643   1.445  0.5884  1.5814  1.0693
  147MOL   H20129693   7.315   3.746   1.296  0.1541 -0.1238  0.7374
  147MOL   H20229694   7.196   3.617   1.330 -0.5221  0.2670  0.8122
  148MOL     C129695   6.094   3.306   0.738 -0.1026  0.4457  0.3768
  148MOL     C229696   6.233   3.341   0.793 -0.1818  0.2699 -0.8992
  148MOL     C329697   6.345   3.290   0.745 -0.5848 -0.3604 -0.0667
  148MOL     C429698   6.479   3.319   0.808  0.4797 -0.1629  0.4693
  148MOL     H529699   6.092   3.237   0.653  2.0577  0.1956  0.5095
  148MOL     H629700   6.014   3.380   0.726 -1.0613 -0.4779  0.9884
  148MOL     H729701   6.227   3.403   0.881 -2.2878 -0.5208 -0.4541
  148MOL     H829702   6.345   3.236   0.652 -0.8131 -1.7411  0.7262
  148MOL     H929703   6.464   3.337   0.914  2.2556  1.1566  0.5068
  148MOL    H1029704   6.499   3.415   0.762  2.4308 -0.2406  1.0934
  148MOL    H1129705   6.044   3.246   0.813 -0.5582  1.9078  1.2717
  148MOL    C1229706   6.587   3.214   0.775  0.1979 -0.0271  0.0316
  148MOL    C1329707   6.718   3.239   0.848 -0.3334  0.2636 -0.3791
  148MOL    C1429708   6.841   3.239   0.798  0.4099  0.2660  0.6778
  148MOL    C1529709   6.965   3.259   0.883 -0.8336 -0.2242  0.0377
  148MOL    H1629710   6.556   3.115   0.810  0.0610  0.3136  0.8949
  148MOL    H1729711   6.608   3.198   0.669  1.7019  0.6362  0.2178
  148MOL    H1829712   6.715   3.248   0.955  0.9154 -2.3843 -0.0766
  148MOL    H1929713   6.847   3.239   0.690 -0.3818  0.0991  0.6344
  148MOL    H2029714   6.927   3.300   0.977  0.4469 -0.0631  0.4966
  148MOL    H2129715   7.026   3.330   0.828 -2.3530  1.0944  0.0106
  148MOL    C2229716   7.054   3.138   0.898 -0.2170 -0.3218  0.4102
  148MOL    C2329717   7.072   3.057   0.779  0.0771  0.4650 -0.3901
  148MOL    C2429718   7.180   3.066   0.698  0.3564  0.4303 -0.3566
  148MOL    C2529719   7.205   2.970   0.578 -0.6747  0.1977 -0.5243
  148MOL    H2629720   7.156   3.172   0.918  0.6965 -1.9532 -1.3176
  148MOL    H2729721   7.024   3.078   0.984  0.4979  1.7427  2.1802
  148MOL    H2829722   6.993   2.990   0.751  1.2032 -1.3473  0.6852
  148MOL    H2929723   7.257   3.138   0.724  0.4001  0.5720 -0.8789
  148MOL    H3029724   7.140   2.883   0.579  0.7278 -0.9068  2.7987
  148MOL    H3129725   7.305   2.927   0.582 -0.7499 -0.1665 -2.0896
  148MOL    C3229726   7.189   3.033   0.440 -0.3207 -1.0417 -0.1951
  148MOL    C3329727   7.087   3.146   0.438 -0.2141  0.3680  0.3445
  148MOL    C3429728   6.968   3.141   0.373  0.1760 -0.9164  0.4314
  148MOL    C3529729   6.852   3.243   0.365  0.0991 -0.2739  0.2357
  148MOL    H3629730   7.285   3.071   0.405 -0.2435 -2.0978 -1.1772
  148MOL    H3729731   7.157   2.953   0.374  0.5785 -0.1341 -1.7505
  148MOL    H3829732   7.102   3.243   0.483 -0.5779  1.1033 -1.0939
  148MOL    H3929733   6.941   3.042   0.338  0.9979 -1.0061  0.0379
  148MOL    H4029734   6.850   3.326   0.435 -0.7336  1.3393 -1.6501
  148MOL    H4129735   6.757   3.193   0.386  0.6332 -0.8748  1.2413
  148MOL    C4229736   6.836   3.297   0.223  0.0377  0.8740  0.4174
  148MOL    C4329737   6.731   3.398   0.204  0.5547  0.2127 -0.1751
  148MOL    C4429738   6.605   3.358   0.186 -0.0918 -0.3326  0.8402
  148MOL    C4529739   6.494   3.450   0.184  0.2920 -0.1706  0.0005
  148MOL    H4629740   6.927   3.347   0.189  0.3938  0.9392  1.4560
  148MOL    H4729741   6.822   3.216   0.152 -0.0028  1.4910 -0.2846
  148MOL    H4829742   6.766   3.499   0.218 -2.7076  1.6201 -1.5908
  148MOL    H4929743   6.582   3.252   0.181 -0.7132 -0.1907  0.7689
  148MOL    H5029744   6.528   3.547   0.220 -1.5465  1.7353 -3.1770
  148MOL    H5129745   6.406   3.415   0.239  1.6153 -1.4469  1.3497
  148MOL    C5229746   6.456   3.492   0.043 -0.0523  0.4027 -0.0013
  148MOL    C5329747   6.348   3.598   0.049 -0.2621  0.0394 -0.4863
  148MOL    C5429748   6.231   3.583   7.968  0.0730  0.0462  0.3302
  148MOL    C5529749   6.111   3.677   7.971 -0.3433  0.0996 -0.4626
  148MOL    H5629750   6.540   3.542   7.972 -1.0476  1.3024 -0.8352
  148MOL    H5729751   6.441   3.403   7.959 -0.3539  0.6763 -0.3248
  148MOL    H5829752   6.371   3.689   0.103 -1.6296  1.8119 -2.8249
  148MOL    H5929753   6.226   3.494   7.908 -1.1131  0.9301 -0.8966
  148MOL    H6029754   6.101   3.716   7.870  1.7575 -1.8454 -1.4711
  148MOL    H6129755   6.130   3.766   0.054 -0.6771  0.4561 -0.8779
  148MOL    C6229756   5.981   3.605   0.045 -0.2761 -0.2084  0.2069
  148MOL    C6329757   6.000   3.533   0.170  0.1551 -0.9463  0.4324
  148MOL    C6429758   5.924   3.554   0.277  0.2680  1.0459  0.0236
  148MOL    C6529759   5.951   3.489   0.411 -0.2658  0.0832  0.0532
  148MOL    H6629760   5.903   3.677   0.070  1.0206  1.3622 -0.1881
  148MOL    H6729761   5.949   3.543   7.939  0.3926  1.0384 -1.0191
  148MOL    H6829762   6.086   3.468   0.172 -0.5375 -1.8530  2.4662
  148MOL    H6929763   5.840   3.621   0.272 -1.7709 -1.2333  2.0104
  148MOL    H7029764   5.955   3.553   0.499 -0.1914 -1.3480  1.1029
  148MOL    H7129765   6.054   3.453   0.411 -0.1647  0.3243 -1.4488
  148MOL    C7229766   5.861   3.375   0.442 -0.1061 -0.4999  0.1833
  148MOL    C7329767   5.718   3.416   0.473  0.0874 -0.3285  0.1936
  148MOL    C7429768   5.616   3.336   0.440 -0.1614 -0.2594  0.5993
  148MOL    C7529769   5.486   3.371   0.484  0.3560  0.1192 -0.2452
  148MOL    H7629770   5.863   3.297   0.366  2.8502 -1.3507  1.0710
  148MOL    H7729771   5.895   3.327   0.533 -2.3789  2.1099  2.4974
  148MOL    H7829772   5.700   3.509   0.525 -1.5531 -0.6320  0.2139
  148MOL    H7929773   5.630   3.250   0.377  1.0158 -0.7729  1.5671
  148MOL    H8029774   5.424   3.404   0.400 -0.8786 -1.2320  0.1103
  148MOL    H8129775   5.489   3.456   0.552 -1.1743  1.0666 -1.3179
  148MOL    C8229776   5.431   3.256   0.572  0.3473 -0.3843 -0.5502
  148MOL    C8329777   5.370   3.142   0.496  0.1566 -0.3484 -0.7125
  148MOL    C8429778   5.439   3.029   0.470  0.0819  0.0445  0.1794
  148MOL    C8529779   5.395   2.914   0.385 -0.6001 -0.2224  0.3901
  148MOL    H8629780   5.512   3.217   0.634  1.1867  0.6184 -0.9955
  148MOL    H8729781   5.354   3.295   0.638  0.2257  0.2235 -1.0450
  148MOL    H8829782   5.272   3.154   0.453 -0.2319 -0.8118  0.0381
  148MOL    H8929783   5.539   3.017   0.508 -0.0696  3.0397  1.6901
  148MOL    H9029784   5.464   2.919   0.301 -1.3644  0.7359 -0.1763
  148MOL    H9129785   5.291   2.913   0.352 -0.0645 -1.1353 -1.3273
  148MOL    C9229786   5.417   2.776   0.461 -0.3685 -0.3571 -0.4841
  148MOL    C9329787   5.412   2.659   0.359 -0.1235 -0.4033 -1.0362
  148MOL    C9429788   5.340   2.552   0.375  0.3303  0.1902  0.0795
  148MOL    C9529789   5.338   2.438   0.277  0.9217  0.2603  0.1770
  148MOL    H9629790   5.513   2.772   0.512 -0.7295 -1.5561  0.1148
  148MOL    H9729791   5.343   2.746   0.535 -0.6595 -1.4838 -1.2233
  148MOL    H9829792   5.472   2.660   0.269 -0.5627  0.7275 -1.3339
  148MOL    H9929793   5.268   2.541   0.455  0.1384 -2.6625 -0.4311
  148MOL   H10029794   5.379   2.452   0.176 -0.0138 -0.4409 -0.3107
  148MOL   H10129795   5.235   2.406   0.257  1.5499 -1.8500  0.1924
  148MOL   C10229796   5.400   2.315   0.338 -0.4375 -0.7165  0.4932
  148MOL   C10329797   5.429   2.207   0.237 -0.1287  0.0910 -0.5645
  148MOL   C10429798   5.538   2.130   0.239  0.6810  0.2498  0.1735
  148MOL   C10529799   5.578   2.025   0.142  0.2735  0.1501 -0.8657
  148MOL   H10629800   5.488   2.344   0.396  0.2150 -0.3612 -0.6691
  148MOL   H10729801   5.338   2.265   0.413  0.4868  1.2024  2.5858
  148MOL   H10829802   5.350   2.189   0.166 -1.4261 -1.2987  1.1800
  148MOL   H10929803   5.605   2.156   0.319 -0.0438  2.0846  0.2250
  148MOL   H11029804   5.491   2.013   0.078  0.6359  2.1602 -1.7991
  148MOL   H11129805   5.605   1.935   0.196  0.5401  0.0194 -1.2123
  148MOL   C11229806   5.700   2.074   0.057 -0.8332 -0.0516  0.3726
  148MOL   C11329807   5.709   1.998   7.904  0.6464  0.0210 -0.4972
  148MOL   C11429808   5.800   1.900   7.883  0.4170 -0.2030  0.6307
  148MOL   C11529809   5.800   1.827   7.747 -0.3522 -0.3636 -0.6487
  148MOL   H11629810   5.692   2.179   0.028  0.4052 -0.0104  0.1658
  148MOL   H11729811   5.795   2.070   0.111 -1.4840  1.6446  1.6992
  148MOL   H11829812   5.631   2.029   7.836 -1.6921 -2.0365  1.1439
  148MOL   H11929813   5.866   1.873   7.965  0.0001 -0.5445  0.8568
  148MOL   H12029814   5.728   1.878   7.682 -0.7091 -2.9274 -2.3170
  148MOL   H12129815   5.768   1.723   7.754  0.3607 -0.5685 -0.4882
  148MOL   C12229816   5.939   1.841   7.673 -0.9545 -0.5417 -0.1941
  148MOL   C12329817   5.945   1.779   7.531 -0.3004 -0.1500  0.0000
  148MOL   C12429818   5.955   1.850   7.418  0.5194  0.4114  0.4848
  148MOL   C12529819   5.951   1.787   7.281  0.2152 -0.4628  0.3577
  148MOL   H12629820   5.971   1.944   7.659  0.2487 -0.8095  0.4712
  148MOL   H12729821   6.014   1.798   7.740 -1.1017 -3.0421 -1.5510
  148MOL   H12829822   5.945   1.671   7.526  0.5904 -0.1492 -0.2430
  148MOL   H12929823   5.982   1.954   7.422  1.4286  0.1369  1.7667
  148MOL   H13029824   5.855   1.805   7.231  0.9936  1.0118 -0.6453
  148MOL   H13129825   5.970   1.682   7.302  2.2695 -0.6999 -2.4580
  148MOL   C13229826   6.064   1.844   7.193  0.5307  0.0506 -0.1543
  148MOL   C13329827   6.034   1.792   7.054  0.2575  1.2830  0.0978
  148MOL   C13429828   6.118   1.729   6.972 -0.1918 -0.2078  0.3010
  148MOL   C13529829   6.082   1.691   6.833  0.0431  0.1771 -0.7330
  148MOL   H13629830   6.072   1.952   7.199  1.5381 -0.0385  0.1195
  148MOL   H13729831   6.157   1.793   7.214  0.0403 -0.8450 -0.1286
  148MOL   H13829832   5.936   1.821   7.021  0.6271  0.8636 -1.3955
  148MOL   H13929833   6.223   1.725   6.994 -0.4578  1.4128  2.0319
  148MOL   H14029834   5.979   1.720   6.814  0.3737  2.6168  0.9567
  148MOL   H14129835   6.063   1.584   6.836 -1.1595  0.3531 -1.6482
  148MOL   C14229836   6.183   1.735   6.729  0.6390 -0.3502  0.4273
  148MOL   C14329837   6.129   1.704   6.595 -0.2062  0.5532  0.3225
  148MOL   C14429838   6.103   1.787   6.492 -0.6971  0.1226 -0.4673
  148MOL   C14529839   6.058   1.741   6.362 -0.7952 -0.6200  0.2900
  148MOL   H14629840   6.198   1.842   6.742  0.9766 -0.0466 -2.3332
  148MOL   H14729841   6.275   1.676   6.733  0.6492 -0.2981  1.0307
  148MOL   H14829842   6.120   1.599   6.572 -1.0115  0.6157  0.3246
  148MOL   H14929843   6.106   1.894   6.505 -0.7135  0.4212 -2.7184
  148MOL   H15029844   6.050   1.632   6.362  0.2611 -0.7139 -0.5159
  148MOL   H15129845   6.131   1.784   6.294  0.0053 -0.9502  0.9293
  148MOL   C15229846   5.923   1.809   6.326 -0.5775  0.1202  0.2984
  148MOL   C15329847   5.868   1.788   6.189 -0.4424  0.3411  0.1386
  148MOL   C15429848   5.937   1.741   6.080 -0.3957 -0.3920 -0.0968
  148MOL   C15529849   5.883   1.728   5.935  0.2712  0.1782 -0.0795
  148MOL   H15629850   5.848   1.768   6.394  0.7444  0.1737  1.8079
  148MOL   H15729851   5.915   1.914   6.355  0.2105  0.0792  0.6826
  148MOL   H15829852   5.773   1.834   6.167  0.0345  0.9229 -0.7877
  148MOL   H15929853   6.040   1.714   6.099 -0.2482  1.1678  1.3794
  148MOL   H16029854   5.809   1.648   5.939 -0.6167  1.0255  1.1520
  148MOL   H16129855   5.959   1.694   5.865  0.7367  1.0319  0.0002
  148MOL   C16229856   5.817   1.852   5.881  0.0620  0.0978  0.1824
  148MOL   C16329857   5.737   1.822   5.756  0.2502  0.2264 -0.2898
  148MOL   C16429858   5.765   1.859   5.626 -0.0351  0.1700 -0.3954
  148MOL   C16529859   5.681   1.828   5.503  0.6988 -0.1019  0.4281
  148MOL   H16629860   5.744   1.899   5.948  1.0602  0.0747  1.2887
  148MOL   H16729861   5.893   1.927   5.857  0.4353 -0.2890  0.1631
  148MOL   H16829862   5.645   1.769   5.773 -0.1098  1.3631  1.4838
  148MOL   H16929863   5.861   1.904   5.607 -0.5851  1.6043  0.1474
  148MOL   H17029864   5.643   1.924   5.466  0.3551 -0.3098  0.2384
  148MOL   H17129865   5.594   1.773   5.538  0.5463  0.3171  0.7092
  148MOL   C17229866   5.750   1.769   5.377 -0.0391  0.0882 -0.7243
  148MOL   C17329867   5.661   1.766   5.253 -0.0209 -0.0248 -0.4985
  148MOL   C17429868   5.531   1.790   5.236 -0.3100 -0.4400 -0.7342
  148MOL   C17529869   5.474   1.798   5.094  0.2885  0.1720  0.9748
  148MOL   H17629870   5.848   1.817   5.370 -0.8435  1.3987 -3.9687
  148MOL   H17729871   5.777   1.666   5.401  1.9428  0.5691 -0.7776
  148MOL   H17829872   5.713   1.747   5.160  1.8582  1.9382  0.1052
  148MOL   H17929873   5.473   1.822   5.321 -0.0844 -1.6413 -0.1139
  148MOL   H18029874   5.553   1.752   5.036 -0.6457 -2.6506  1.8191
  148MOL   H18129875   5.467   1.903   5.068 -1.6896 -0.1476  0.1294
  148MOL   C18229876   5.337   1.732   5.082 -0.1858  0.0725 -0.0123
  148MOL   C18329877   5.291   1.727   4.931 -0.3690 -0.4949  0.0316
  148MOL   C18429878   5.175   1.778   4.886 -0.5554 -0.0481 -0.0815
  148MOL   C18529879   5.132   1.785   4.737 -0.0837 -0.2600  0.2606
  148MOL   H18629880   5.341   1.627   5.110  0.9398 -0.7528 -3.0253
  148MOL   H18729881   5.264   1.791   5.137 -1.1603  1.4531 -2.6854
  148MOL   H18829882   5.354   1.687   4.852 -0.6362  0.2988 -0.5823
  148MOL   H18929883   5.101   1.810   4.957 -1.3759  1.0412 -1.3881
  148MOL   H19029884   5.079   1.693   4.711  1.8759 -2.1422  2.5730
  148MOL   H19129885   5.229   1.792   4.687  1.3680 -0.8318  2.9046
  148MOL   C19229886   5.042   1.899   4.715  0.4442  0.5180 -0.0779
  148MOL   C19329887   5.087   2.037   4.749 -0.3625 -0.3921  0.4495
  148MOL   C19429888   5.015   2.126   4.823 -0.6979 -0.7399 -0.8607
  148MOL   C19529889   5.065   2.261   4.883 -1.1968 -0.1896  0.1234
  148MOL   H19629890   5.038   1.901   4.607  0.1669  1.5569 -0.0538
  148MOL   H19729891   4.942   1.882   4.754  0.5807  2.2373  1.1213
  148MOL   H19829892   5.191   2.051   4.724 -0.9625 -0.7718 -2.5109
  148MOL   H19929893   4.909   2.115   4.839 -0.6904 -0.1166 -0.3771
  148MOL   H20029894   4.994   2.281   4.963  0.0510 -1.2019  1.4859
  148MOL   H20129895   5.059   2.344   4.812  0.8901  1.0236  1.3084
  148MOL   H20229896   5.166   2.259   4.923 -0.9759 -3.2708 -0.4965
  149MOL     C129897   1.280   6.722   5.848 -0.0729 -0.4136  0.0894
  149MOL     C229898   1.361   6.596   5.871  0.1418  0.4817 -0.1774
  149MOL     C329899   1.453   6.557   5.782  0.2902 -0.7951 -0.4142
  149MOL     C429900   1.535   6.436   5.807 -0.3907  0.7241 -0.1905
  149MOL     H529901   1.177   6.709   5.817 -0.3767  1.5413  0.2446
  149MOL     H629902   1.330   6.768   5.762  1.5842 -1.0159  0.7044
  149MOL     H729903   1.337   6.534   5.956 -0.6988 -0.0558 -0.8019
  149MOL     H829904   1.476   6.616   5.694  0.5415 -0.3840 -0.0742
  149MOL     H929905   1.488   6.352   5.755 -1.0527  1.5664 -0.9504
  149MOL    H1029906   1.542   6.419   5.915 -0.0855 -0.2597 -0.3598
  149MOL    H1129907   1.289   6.800   5.923 -1.2371  0.5882 -0.7987
  149MOL    C1229908   1.686   6.457   5.758 -0.5791  0.2093  0.1952
  149MOL    C1329909   1.772   6.335   5.787  0.7959  0.4059  0.1815
  149MOL    C1429910   1.887   6.329   5.855 -0.1926  0.5982 -0.8519
  149MOL    C1529911   1.966   6.202   5.879 -0.3800 -0.3734  0.3858
  149MOL    H1629912   1.696   6.487   5.653 -1.5025 -0.7939 -0.1953
  149MOL    H1729913   1.727   6.538   5.818 -1.8539 -0.3654  1.8958
  149MOL    H1829914   1.747   6.246   5.732 -2.4719  0.7038  1.0789
  149MOL    H1929915   1.933   6.414   5.904 -1.3824  0.1425  1.1127
  149MOL    H2029916   1.906   6.117   5.844  2.3813 -1.6592 -1.3571
  149MOL    H2129917   1.989   6.171   5.981 -2.8214 -0.8308  0.8321
  149MOL    C2229918   2.099   6.205   5.796  0.8735 -0.6137 -0.3772
  149MOL    C2329919   2.180   6.085   5.839  0.4028 -0.1710 -0.0469
  149MOL    C2429920   2.275   6.092   5.930 -0.0750  0.5388  0.3741
  149MOL    C2529921   2.356   5.969   5.986 -0.6738 -0.6615 -0.0871
  149MOL    H2629922   2.068   6.217   5.692 -1.0901 -0.0716  0.2370
  149MOL    H2729923   2.162   6.291   5.818 -1.4777  0.6369  1.6539
  149MOL    H2829924   2.156   5.992   5.789  1.4789 -0.0919 -0.7315
  149MOL    H2929925   2.304   6.190   5.963  1.1074  0.7272 -1.1670
  149MOL    H3029926   2.294   5.902   6.045 -1.4453  1.2515  1.3252
  149MOL    H3129927   2.432   6.016   6.048 -4.4620  3.0866  1.9708
  149MOL    C3229928   2.440   5.897   5.872 -0.0972  0.2555 -0.4004
  149MOL    C3329929   2.530   5.793   5.922  0.5000 -0.9668 -0.3514
  149MOL    C3429930   2.662   5.796   5.927 -0.4467 -0.1567 -0.8375
  149MOL    C3529931   2.762   5.684   5.965 -0.3828 -0.4825 -0.7678
  149MOL    H3629932   2.380   5.845   5.798 -0.7585  0.0460  0.2793
  149MOL    H3729933   2.501   5.968   5.816  0.0765 -0.8228 -1.5797
  149MOL    H3829934   2.481   5.701   5.949  0.2023 -0.7204 -0.0362
  149MOL    H3929935   2.713   5.884   5.892  0.5467 -1.3513 -2.4809
  149MOL    H4029936   2.699   5.614   6.020 -0.9695 -0.1347 -0.9828
  149MOL    H4129937   2.833   5.718   6.040  0.9187  2.1430 -3.1113
  149MOL    C4229938   2.848   5.624   5.844  0.9070  0.4624 -0.2619
  149MOL    C4329939   2.970   5.711   5.800 -0.1604  1.5517  0.6797
  149MOL    C4429940   3.102   5.680   5.814  0.4543  0.2420  0.3081
  149MOL    C4529941   3.219   5.770   5.785 -0.6137 -0.1176  0.1253
  149MOL    H4629942   2.890   5.538   5.896  2.1249  1.3551  0.2413
  149MOL    H4729943   2.797   5.580   5.758 -0.8408  2.3624 -0.2488
  149MOL    H4829944   2.933   5.801   5.754  0.3974  1.2211 -0.4146
  149MOL    H4929945   3.133   5.591   5.867  1.9054  0.1339 -0.7089
  149MOL    H5029946   3.254   5.826   5.872  0.3195  1.3808 -1.1848
  149MOL    H5129947   3.197   5.848   5.713  0.0222  0.0484  0.1086
  149MOL    C5229948   3.334   5.679   5.729 -0.4657  0.7475  0.2568
  149MOL    C5329949   3.457   5.752   5.687  0.1195 -0.1647  0.0772
  149MOL    C5429950   3.583   5.726   5.737 -0.1291 -0.0243 -0.1878
  149MOL    C5529951   3.711   5.800   5.690  0.3651 -0.1371 -0.5946
  149MOL    H5629952   3.371   5.606   5.802 -0.1728  0.4880 -0.1521
  149MOL    H5729953   3.304   5.624   5.641  1.8478  2.4622 -1.6749
  149MOL    H5829954   3.443   5.825   5.609 -1.2585 -1.4500 -0.8896
  149MOL    H5929955   3.603   5.649   5.810 -1.3937 -0.8296 -0.6651
  149MOL    H6029956   3.681   5.875   5.616  1.4572  1.5602  0.6505
  149MOL    H6129957   3.778   5.729   5.642  1.0922 -0.2432  0.5674
  149MOL    C6229958   3.790   5.883   5.794 -0.3214 -0.8402 -0.8456
  149MOL    C6329959   3.917   5.931   5.727 -0.5788  0.2096  0.1887
  149MOL    C6429960   4.042   5.881   5.746 -0.1943  0.0668 -0.6077
  149MOL    C6529961   4.164   5.928   5.671  0.3773  0.7273  0.4767
  149MOL    H6629962   3.733   5.967   5.834 -2.1153 -1.6626 -1.6501
  149MOL    H6729963   3.820   5.824   5.880 -1.6183  0.4547  0.5190
  149MOL    H6829964   3.903   6.010   5.655  3.1894  0.6357 -0.2013
  149MOL    H6929965   4.054   5.805   5.822  1.3386 -0.7803 -1.6725
  149MOL    H7029966   4.132   6.015   5.613 -3.3486 -0.2134  1.0039
  149MOL    H7129967   4.184   5.851   5.597 -0.9346  0.7790  0.0550
  149MOL    C7229968   4.287   5.967   5.752 -0.1343 -0.5027 -0.0471
  149MOL    C7329969   4.345   5.859   5.851 -0.4258 -0.0021  0.6619
  149MOL    C7429970   4.362   5.882   5.983 -0.0266 -0.0482 -0.3945
  149MOL    C7529971   4.431   5.783   6.068 -0.2064  0.1277 -0.4775
  149MOL    H7629972   4.371   5.991   5.686  1.3976 -1.2154  1.5919
  149MOL    H7729973   4.262   6.061   5.800  1.6453  0.4901 -0.9917
  149MOL    H7829974   4.382   5.771   5.800 -0.2045  0.9605 -0.8559
  149MOL    H7929975   4.334   5.983   6.010 -1.9092 -0.6453 -0.0997
  149MOL    H8029976   4.489   5.711   6.011  1.5845  1.9009 -0.9535
  149MOL    H8129977   4.359   5.735   6.134 -0.6577  0.2735 -0.8662
  149MOL    C8229978   4.537   5.859   6.157 -0.2393  0.3713  0.0352
  149MOL    C8329979   4.626   5.764   6.237 -0.1862 -0.9550 -0.2086
  149MOL    C8429980   4.641   5.780   6.368  0.2747 -0.6316 -0.5056
  149MOL    C8529981   4.716   5.685   6.450  0.6787  0.3188 -0.7340
  149MOL    H8629982   4.607   5.915   6.094  1.3761 -2.9738 -1.3028
  149MOL    H8729983   4.493   5.926   6.231 -2.8265 -1.6801  0.4259
  149MOL    H8829984   4.686   5.687   6.190 -0.3963 -0.4516 -1.3179
  149MOL    H8929985   4.592   5.861   6.418 -1.1252 -0.4980 -2.0363
  149MOL    H9029986   4.744   5.596   6.394  0.0434 -1.5519  1.8244
  149MOL    H9129987   4.663   5.652   6.540  2.2404  1.0607  0.4815
  149MOL    C9229988   4.837   5.755   6.500 -0.2221  0.2535  1.1441
  149MOL    C9329989   4.911   5.673   6.604 -0.8857 -0.7676 -1.0038
  149MOL    C9429990   4.911   5.701   6.734 -0.1974  0.7301 -0.6175
  149MOL    C9529991   4.989   5.627   6.836  0.3628 -0.1406 -0.2473
  149MOL    H9629992   4.896   5.760   6.409 -1.0981  0.7130  0.5899
  149MOL    H9729993   4.832   5.863   6.518  2.0550  0.9028 -1.9136
  149MOL    H9829994   4.970   5.587   6.575  1.3701  0.2625  0.3730
  149MOL    H9929995   4.841   5.776   6.768 -0.9387  0.0872 -0.7151
  149MOL   H10029996   4.998   5.715   6.899  0.3331  1.3256 -2.2486
  149MOL   H10129997   5.085   5.597   6.792 -0.3616 -0.2639 -1.7860
  149MOL   C10229998   4.897   5.514   6.889 -0.0537  0.2741 -0.0859
  149MOL   C10329999   4.961   5.436   7.003  0.2039 -0.1812 -0.1941
  149MOL   C10430000   5.000   5.311   6.996 -0.4738  1.2293 -0.3711
  149MOL   C10530001   5.073   5.242   7.108 -0.3548 -0.1523  0.1406
  149MOL   H10630002   4.798   5.547   6.919 -0.2677 -1.0393  0.6931
  149MOL   H10730003   4.880   5.446   6.805  1.2842  3.0152 -2.6854
  149MOL   H10830004   4.965   5.490   7.096  0.3909 -0.2909 -0.1380
  149MOL   H10930005   4.983   5.255   6.905 -0.9279 -0.2578  0.6010
  149MOL   H11030006   5.014   5.151   7.108 -0.2852 -0.1987 -0.1372
  149MOL   H11130007   5.057   5.294   7.202  0.5019  0.9867 -0.3262
  149MOL   C11230008   5.220   5.227   7.072  0.2783  0.4495  0.8150
  149MOL   C11330009   5.307   5.180   7.185  0.7753 -0.2290 -0.0152
  149MOL   C11430010   5.395   5.071   7.180  0.0540  0.3954 -1.0253
  149MOL   C11530011   5.478   5.033   7.304  0.5676 -0.2440 -0.2253
  149MOL   H11630012   5.248   5.158   6.992  0.4955 -1.8270  2.8185
  149MOL   H11730013   5.262   5.323   7.043 -0.0025  0.6704  1.1391
  149MOL   H11830014   5.289   5.239   7.274 -1.2417 -1.0682  0.1595
  149MOL   H11930015   5.406   5.008   7.092  0.8847  0.5550 -1.0328
  149MOL   H12030016   5.471   5.117   7.374 -0.4747 -0.3625 -0.1849
  149MOL   H12130017   5.583   5.025   7.277  0.4365 -1.0786 -0.4734
  149MOL   C12230018   5.442   4.902   7.372 -0.0866  0.0252  0.1660
  149MOL   C12330019   5.316   4.897   7.456 -0.2211  0.9440  0.3135
  149MOL   C12430020   5.233   4.999   7.490 -0.1434 -0.1553  1.3035
  149MOL   C12530021   5.109   5.006   7.593  0.1123  0.0276 -0.2435
  149MOL   H12630022   5.429   4.829   7.291  2.1428 -2.4702  1.9710
  149MOL   H12730023   5.524   4.867   7.435  0.8960  0.4735 -0.8429
  149MOL   H12830024   5.291   4.804   7.505 -1.1014  0.8940 -0.2238
  149MOL   H12930025   5.249   5.092   7.437 -0.5499 -1.0333 -0.4055
  149MOL   H13030026   5.027   5.044   7.533 -0.4289  0.3845  0.7072
  149MOL   H13130027   5.125   5.077   7.674  1.3141  0.3323 -0.7285
  149MOL   C13230028   5.069   4.862   7.648 -0.7159  0.1848 -0.3369
  149MOL   C13330029   4.987   4.790   7.552 -0.1347  0.0341 -0.1147
  149MOL   C13430030   4.854   4.783   7.557  0.0932 -0.0876 -1.3318
  149MOL   C13530031   4.776   4.714   7.446 -0.2081  0.5702 -1.0305
  149MOL   H13630032   5.160   4.811   7.679 -0.6172 -1.7740 -3.6468
  149MOL   H13730033   5.006   4.863   7.737  0.7849  0.0844  0.7405
  149MOL   H13830034   5.033   4.748   7.464 -1.7545 -1.0900 -0.4438
  149MOL   H13930035   4.795   4.818   7.641 -0.1298 -1.3494 -0.9576
  149MOL   H14030036   4.837   4.678   7.363  0.5478  0.9796 -0.6600
  149MOL   H14130037   4.709   4.785   7.399 -2.0620  0.8744  1.9846
  149MOL   C14230038   4.698   4.598   7.505 -0.8683  0.3225 -0.0285
  149MOL   C14330039   4.659   4.502   7.392  0.3980 -1.3292 -0.1169
  149MOL   C14430040   4.656   4.368   7.400  0.3282 -0.3596  0.3866
  149MOL   C14530041   4.605   4.273   7.288  0.4832 -0.5829 -0.2235
  149MOL   H14630042   4.757   4.548   7.581 -0.9269 -1.2186 -0.9842
  149MOL   H14730043   4.610   4.637   7.557 -2.1873  0.4372 -2.2594
  149MOL   H14830044   4.621   4.540   7.299  2.4740 -0.1792 -0.5205
  149MOL   H14930045   4.700   4.318   7.485 -0.7637  1.9426  2.3773
  149MOL   H15030046   4.531   4.325   7.227 -0.0867 -1.5859 -0.4009
  149MOL   H15130047   4.532   4.204   7.331 -0.5495 -0.4768 -1.7367
  149MOL   C15230048   4.720   4.195   7.223  0.3286  0.3950 -0.1281
  149MOL   C15330049   4.670   4.126   7.099 -0.4394  0.0925  0.2541
  149MOL   C15430050   4.714   4.001   7.072  0.6068  0.0089  0.7967
  149MOL   C15530051   4.680   3.919   6.949  0.2066 -0.1337  0.4638
  149MOL   H15630052   4.795   4.272   7.207  0.9467 -0.5943 -2.0919
  149MOL   H15730053   4.766   4.124   7.292  0.4568  0.8058  0.2134
  149MOL   H15830054   4.605   4.193   7.043  0.5730  0.7371 -0.1618
  149MOL   H15930055   4.780   3.953   7.143  1.2689 -0.3668 -0.0613
  149MOL   H16030056   4.771   3.890   6.897 -0.8142  1.4292 -2.2932
  149MOL   H16130057   4.628   3.985   6.879  0.6491 -1.8660 -1.5417
  149MOL   C16230058   4.593   3.801   6.987 -0.4763 -0.3086  0.6379
  149MOL   C16330059   4.527   3.728   6.867 -0.1983 -0.1092  0.2451
  149MOL   C16430060   4.394   3.722   6.848  0.2452 -0.1812  0.7090
  149MOL   C16530061   4.336   3.658   6.722 -0.5196 -0.0933 -0.0061
  149MOL   H16630062   4.661   3.728   7.031 -0.3616 -1.4659 -1.3750
  149MOL   H16730063   4.511   3.828   7.053 -0.2738 -2.5287  1.8795
  149MOL   H16830064   4.595   3.698   6.790  0.8825  1.1239  0.6991
  149MOL   H16930065   4.325   3.763   6.920  2.6438  1.0229  2.3905
  149MOL   H17030066   4.419   3.607   6.673 -0.2256  0.8817 -0.5360
  149MOL   H17130067   4.296   3.738   6.660 -0.3620  0.6363  0.8114
  149MOL   C17230068   4.225   3.559   6.756  0.0675  0.0864  0.4912
  149MOL   C17330069   4.286   3.437   6.814  0.1714 -0.4825 -0.0370
  149MOL   C17430070   4.292   3.310   6.763  0.1476  0.3265 -0.5623
  149MOL   C17530071   4.353   3.185   6.832  0.0953 -0.2070 -0.3877
  149MOL   H17630072   4.141   3.613   6.801 -0.1762 -0.4912  0.7255
  149MOL   H17730073   4.187   3.528   6.659  0.8309  1.4498 -0.2680
  149MOL   H17830074   4.323   3.454   6.914 -0.8127  2.5241 -0.1591
  149MOL   H17930075   4.254   3.292   6.664 -0.6095  0.2347 -0.2656
  149MOL   H18030076   4.271   3.118   6.858  0.1188  0.5010  1.5781
  149MOL   H18130077   4.402   3.220   6.923 -1.0190  1.8329 -0.5366
  149MOL   C18230078   4.452   3.132   6.727  0.1528 -0.9005 -0.3666
  149MOL   C18330079   4.522   3.000   6.770 -0.2948 -0.4895 -0.1473
  149MOL   C18430080   4.482   2.877   6.739  0.0714 -0.3077  1.0863
  149MOL   C18530081   4.545   2.737   6.784 -0.1173  0.0978  0.3709
  149MOL   H18630082   4.398   3.119   6.634  0.2202 -0.4276 -0.4754
  149MOL   H18730083   4.529   3.205   6.700  2.2992 -2.1559  2.1702
  149MOL   H18830084   4.606   2.997   6.838  0.3065 -2.6154 -0.9477
  149MOL   H18930085   4.393   2.871   6.678  0.1964 -1.6875  1.0081
  149MOL   H19030086   4.472   2.683   6.843  1.3505 -3.3145 -0.8440
  149MOL   H19130087   4.625   2.758   6.854  0.2113  1.3520 -0.3651
  149MOL   C19230088   4.585   2.651   6.665 -0.4343 -1.1409 -1.0280
  149MOL   C19330089   4.536   2.510   6.686 -0.7180  0.3388  1.0020
  149MOL   C19430090   4.624   2.408   6.705 -0.5544 -0.1993  0.1768
  149MOL   C19530091   4.572   2.271   6.733 -0.4855  0.2399  0.4863
  149MOL   H19630092   4.530   2.685   6.577 -0.0244  1.2429 -0.3930
  149MOL   H19730093   4.687   2.640   6.630 -0.3562 -2.0260 -0.5278
  149MOL   H19830094   4.430   2.494   6.684 -0.9021  1.5383 -2.2594
  149MOL   H19930095   4.730   2.427   6.693 -0.3054 -0.8481  1.3088
  149MOL   H20030096   4.636   2.229   6.810  1.0116 -0.1420 -0.9440
  149MOL   H20130097   4.582   2.207   6.645  0.0717 -0.0977  0.7892
  149MOL   H20230098   4.470   2.260   6.769 -0.9361  0.9841 -0.5398
  150MOL     C130099   6.600   5.108   1.113  0.1931 -0.3445  0.5862
  150MOL     C230100   6.725   5.191   1.079 -0.4290  0.5248  0.1164
  150MOL     C330101   6.813   5.226   1.182  0.9445  0.0254 -0.4473
  150MOL     C430102   6.948   5.296   1.162 -0.7382 -0.2181  0.4723
  150MOL     H530103   6.616   5.012   1.064  1.3335 -0.3020  0.8646
  150MOL     H630104   6.507   5.155   1.080  2.1975  2.0772 -1.9443
  150MOL     H730105   6.746   5.204   0.974  2.7545  1.6454  0.8396
  150MOL     H830106   6.793   5.190   1.282  2.5490  0.5037  0.0551
  150MOL     H930107   6.961   5.379   1.231 -0.9392  0.8942 -0.8070
  150MOL    H1030108   6.951   5.332   1.060  1.2791  0.9110  0.9102
  150MOL    H1130109   6.598   5.079   1.218  0.8204  1.4032  1.1017
  150MOL    C1230110   7.056   5.192   1.189 -0.7143  0.2350  0.0032
  150MOL    C1330111   7.202   5.235   1.183  0.4297  0.2066 -0.3399
  150MOL    C1430112   7.279   5.255   1.294  0.1716 -0.1168  0.8493
  150MOL    C1530113   7.422   5.296   1.287 -0.5374  0.2912  0.3958
  150MOL    H1630114   7.038   5.142   1.284 -1.2195  2.2768  1.0081
  150MOL    H1730115   7.048   5.123   1.106 -0.1643 -1.6381  1.4720
  150MOL    H1830116   7.244   5.261   1.087  1.2874  0.3274  0.0663
  150MOL    H1930117   7.242   5.222   1.391 -0.8058 -2.1425 -0.1780
  150MOL    H2030118   7.445   5.320   1.183  0.8492 -1.8605  0.1694
  150MOL    H2130119   7.501   5.225   1.313 -0.0037  0.7315  0.0039
  150MOL    C2230120   7.443   5.429   1.366 -0.3803 -0.1610 -0.1138
  150MOL    C2330121   7.582   5.483   1.358 -0.6193  0.1792 -0.1413
  150MOL    C2430122   7.615   5.605   1.303  0.0085 -0.2047  0.7047
  150MOL    C2530123   7.756   5.659   1.286  0.3157 -0.6031 -0.5009
  150MOL    H2630124   7.372   5.507   1.339 -1.3141 -1.0483 -0.2804
  150MOL    H2730125   7.420   5.405   1.470 -1.5807  0.7377 -0.1564
  150MOL    H2830126   7.664   5.419   1.388 -1.2251  0.7339  2.8372
  150MOL    H2930127   7.539   5.672   1.265  0.2010  1.5010  3.2159
  150MOL    H3030128   7.791   5.701   1.192  2.3428 -0.2916  0.3672
  150MOL    H3130129   7.831   5.581   1.299  1.1615 -0.0601 -2.0327
  150MOL    C3230130   7.764   5.769   1.397  0.2496 -0.0044 -0.8989
  150MOL    C3330131   7.891   5.855   1.386  0.1527 -0.2454 -0.0919
  150MOL    C3430132   0.020   5.857   1.469  0.7910 -0.2247 -0.2162
  150MOL    C3530133   0.131   5.958   1.467 -0.0217  0.2289 -0.1818
  150MOL    H3630134   7.674   5.830   1.386  1.6749  2.2404 -0.4377
  150MOL    H3730135   7.765   5.720   1.494 -0.4734 -2.2302 -1.9787
  150MOL    H3830136   7.881   5.938   1.318  1.0260 -0.5973 -0.6460
  150MOL    H3930137   0.029   5.790   1.553  1.4373  0.2661  0.1013
  150MOL    H4030138   0.131   6.013   1.373  2.4487  0.1374 -0.2718
  150MOL    H4130139   0.223   5.900   1.475 -0.3970 -0.3783 -0.2687
  150MOL    C4230140   0.126   6.061   1.575 -0.7936 -0.8615  0.0309
  150MOL    C4330141   0.012   6.159   1.562  0.2797  0.3808  0.3919
  150MOL    C4430142   0.041   6.288   1.559 -0.4349  0.1267  0.5641
  150MOL    C4530143   7.912   6.398   1.558 -0.3986  0.1153 -0.3048
  150MOL    H4630144   0.110   6.000   1.664 -0.0219  2.1950  2.3347
  150MOL    H4730145   0.221   6.110   1.596 -1.3980 -0.0835  0.9663
  150MOL    H4830146   7.886   6.126   1.550 -0.4348  1.7903  2.3722
  150MOL    H4930147   0.142   6.325   1.571 -0.6311  1.1330 -0.8026
  150MOL    H5030148   7.819   6.342   1.570  0.2372 -0.4995  1.8976
  150MOL    H5130149   7.905   6.456   1.465 -0.5751  0.2945 -0.1793
  150MOL    C5230150   7.926   6.500   1.681  0.2373  0.1963  0.8370
  150MOL    C5330151   7.819   6.607   1.673  0.4149 -0.2632 -0.1351
  150MOL    C5430152   7.729   6.614   1.772  0.6591 -0.6246 -0.1626
  150MOL    C5530153   7.639   6.731   1.791 -0.0729  0.3575  0.0546
  150MOL    H5630154   7.911   6.445   1.774  4.6717 -0.7660  1.0768
  150MOL    H5730155   0.049   6.544   1.683  0.4300 -0.1779 -0.2521
  150MOL    H5830156   7.829   6.677   1.591  1.4125  0.5287  0.6545
  150MOL    H5930157   7.718   6.536   1.845  0.1872  0.9516  1.4914
  150MOL    H6030158   7.532   6.710   1.790 -0.0746  0.3429  0.3841
  150MOL    H6130159   7.663   6.797   1.707 -3.0419  0.2801 -0.9066
  150MOL    C6230160   7.667   6.801   1.926  0.4568  0.1205  0.2804
  150MOL    C6330161   7.595   6.936   1.952  0.3767  0.3131  0.0693
  150MOL    C6430162   7.667   7.047   1.980  0.3475  0.5572  0.0648
  150MOL    C6530163   7.599   7.179   2.016 -0.0325  0.2792  0.4524
  150MOL    H6630164   7.643   6.740   2.013 -0.4599 -0.7120 -0.5505
  150MOL    H6730165   7.774   6.812   1.945  1.1021 -1.4774 -2.2516
  150MOL    H6830166   7.487   6.935   1.949  0.3909 -0.0324 -0.2354
  150MOL    H6930167   7.774   7.043   1.993  0.3066 -2.4150 -0.2842
  150MOL    H7030168   7.627   7.186   2.122  1.8740  0.5796 -0.0531
  150MOL    H7130169   7.490   7.181   2.006  0.1866  1.4223 -1.9823
  150MOL    C7230170   7.654   7.301   1.950 -0.0615  0.6608  0.2603
  150MOL    C7330171   7.580   7.419   2.000 -0.3800  0.2449 -0.6505
  150MOL    C7430172   7.627   7.542   2.018 -0.5060  0.0778  0.3688
  150MOL    C7530173   7.550   7.668   2.047  0.3886 -0.5898 -0.5434
  150MOL    H7630174   7.761   7.307   1.969 -0.2722  3.2490  0.7798
  150MOL    H7730175   7.636   7.300   1.843 -2.8506  2.3781  0.6770
  150MOL    H7830176   7.475   7.404   2.016 -0.4433  1.9243  0.6115
  150MOL    H7930177   7.728   7.560   1.982 -1.0899  2.0966 -0.2997
  150MOL    H8030178   7.450   7.644   2.082 -0.1094 -2.2214 -2.9321
  150MOL    H8130179   7.545   7.725   1.954  2.4708 -0.5161 -0.6413
  150MOL    C8230180   7.632   7.743   2.154  0.0858  0.2572  0.8042
  150MOL    C8330181   7.585   7.877   2.202  0.4097  0.4147  0.4916
  150MOL    C8430182   7.636   0.011   2.149 -0.2402 -0.7592  0.4333
  150MOL    C8530183   7.593   0.154   2.174 -0.3808 -0.5627 -0.4628
  150MOL    H8630184   7.599   7.687   2.241 -2.3409 -0.1352 -0.3422
  150MOL    H8730185   7.741   7.748   2.143 -0.0353  0.3380 -0.3961
  150MOL    H8830186   7.488   7.875   2.250  0.6484 -1.6634  0.9565
  150MOL    H8930187   7.720   0.002   2.080 -0.3906 -0.0922  0.1602
  150MOL    H9030188   7.685   0.205   2.200  0.4929 -2.6742  0.7088
  150MOL    H9130189   7.534   0.163   2.266  0.8928  1.5900  0.1675
  150MOL    C9230190   7.516   0.232   2.072  0.2629  0.0274 -0.0050
  150MOL    C9330191   7.588   0.243   1.940 -0.5444  0.2130 -0.7588
  150MOL    C9430192   7.631   0.356   1.883 -0.6318 -0.9844  0.8785
  150MOL    C9530193   7.722   0.355   1.759  0.3036  0.6698  0.0184
  150MOL    H9630194   7.417   0.188   2.064  0.5512 -0.9321  1.4939
  150MOL    H9730195   7.508   0.335   2.108  0.3369  0.2127 -0.5124
  150MOL    H9830196   7.612   0.143   1.906  1.5305  0.1227  0.8353
  150MOL    H9930197   7.595   0.451   1.918  0.8556  0.1310 -0.5629
  150MOL   H10030198   7.695   0.268   1.700 -0.4326  0.9963 -0.1261
  150MOL   H10130199   7.827   0.350   1.787  0.8426  0.4135 -1.9906
  150MOL   C10230200   7.698   0.478   1.666  0.0849 -0.1350  0.1890
  150MOL   C10330201   7.713   0.614   1.725 -0.0297 -0.7542 -0.2145
  150MOL   C10430202   7.605   0.695   1.736  0.6384  0.0877 -0.5945
  150MOL   C10530203   7.605   0.813   1.817 -0.1421 -0.1772 -0.3896
  150MOL   H10630204   7.751   0.469   1.571  1.1737 -0.0762  0.7756
  150MOL   H10730205   7.597   0.468   1.626 -0.1277  0.1939  0.6346
  150MOL   H10830206   7.810   0.650   1.755 -1.0340  0.0808  2.1601
  150MOL   H10930207   7.512   0.651   1.705  0.2776 -0.9984  1.8978
  150MOL   H11030208   7.516   0.870   1.790  0.0281  0.9850  1.3896
  150MOL   H11130209   7.696   0.871   1.798 -0.4214  0.3453 -0.1493
  150MOL   C11230210   7.602   0.769   1.971 -0.2528 -0.1348  1.4013
  150MOL   C11330211   7.567   0.881   2.060 -0.4130  0.5944 -0.1118
  150MOL   C11430212   7.661   0.959   2.116 -0.1699  0.2954 -0.0541
  150MOL   C11530213   7.635   1.088   2.193  0.4846  0.3194 -0.0853
  150MOL   H11630214   7.532   0.688   1.994  2.0945 -2.8930 -0.7131
  150MOL   H11730215   7.701   0.730   1.995 -0.1537 -1.7521 -1.4031
  150MOL   H11830216   7.461   0.904   2.056 -0.3427  0.8671 -0.4502
  150MOL   H11930217   7.764   0.928   2.105 -0.8422 -2.2003  0.2859
  150MOL   H12030218   7.529   1.102   2.211  0.1830  2.4960 -3.1650
  150MOL   H12130219   7.677   1.159   2.122 -0.9283 -2.4127 -3.8379
  150MOL   C12230220   7.722   1.090   2.323  0.0980 -0.6269 -0.5944
  150MOL   C12330221   7.688   0.979   2.427  0.6027 -0.6998  0.3710
  150MOL   C12430222   7.567   0.930   2.453 -0.3740 -0.6872 -0.1426
  150MOL   C12530223   7.537   0.832   2.563  0.1783  0.2748 -0.2218
  150MOL   H12630224   7.822   1.064   2.290  0.0395 -1.0012 -0.4824
  150MOL   H12730225   7.725   1.187   2.372 -1.3770 -0.7647 -0.1857
  150MOL   H12830226   7.771   0.940   2.485  3.0169 -0.8486 -3.0571
  150MOL   H12930227   7.491   0.967   2.386 -0.8935 -1.8346 -0.1862
  150MOL   H13030228   7.632   0.786   2.591  0.7495  0.3006 -2.1002
  150MOL   H13130229   7.474   0.755   2.519 -0.3099 -0.1426  1.1553
  150MOL   C13230230   7.468   0.897   2.685 -0.9188 -0.0173  0.1336
  150MOL   C13330231   7.440   0.795   2.796  0.6041 -0.2711 -0.2525
  150MOL   C13430232   7.439   0.657   2.784 -0.3235 -0.4536  0.0159
  150MOL   C13530233   7.430   0.560   2.909 -0.9205  0.5498  0.1560
  150MOL   H13630234   7.532   0.982   2.705 -3.5611  2.4081 -1.4284
  150MOL   H13730235   7.370   0.932   2.655 -0.5116  0.5557 -0.5532
  150MOL   H13830236   7.433   0.842   2.893  3.1472 -0.2434 -0.0433
  150MOL   H13930237   7.452   0.607   2.689 -1.8144  1.8535 -1.4511
  150MOL   H14030238   7.339   0.502   2.898  0.2291 -1.1929 -0.4219
  150MOL   H14130239   7.422   0.626   2.995 -1.4218 -1.8199  1.9456
  150MOL   C14230240   7.552   0.467   2.930  0.0338  0.4287 -0.0429
  150MOL   C14330241   7.574   0.438   3.080  0.0806 -0.1538  0.1394
  150MOL   C14430242   7.687   0.383   3.129  0.1077 -0.3746  0.5323
  150MOL   C14530243   7.713   0.358   3.270 -0.0380 -0.5307 -0.7421
  150MOL   H14630244   7.522   0.372   2.885 -0.2813 -0.0267  1.0848
  150MOL   H14730245   7.649   0.504   2.897  0.6455  0.8978  2.1858
  150MOL   H14830246   7.486   0.447   3.143  0.7343  1.9201  0.7982
  150MOL   H14930247   7.773   0.371   3.066 -0.0741 -0.2514  0.2585
  150MOL   H15030248   7.763   0.262   3.285 -1.8043 -1.2655  0.7100
  150MOL   H15130249   7.622   0.357   3.330  0.9716 -0.7802  0.8179
  150MOL   C15230250   7.812   0.462   3.328  0.1784  0.2463 -0.2808
  150MOL   C15330251   7.931   0.488   3.241 -0.3893 -0.1519  0.4414
  150MOL   C15430252   0.072   0.446   3.267 -0.2324  0.4410 -0.2947
  150MOL   C15530253   0.204   0.451   3.185  0.3495  0.2564 -0.1848
  150MOL   H15630254   7.758   0.556   3.343 -0.4479 -0.2234  0.4776
  150MOL   H15730255   7.834   0.431   3.430  0.0664 -0.6403 -0.5194
  150MOL   H15830256   7.910   0.548   3.154  1.8788 -1.1407 -0.8189
  150MOL   H15930257   0.083   0.401   3.364  0.7330 -0.0714 -0.6206
  150MOL   H16030258   0.244   0.349   3.187 -0.9659 -0.2695  0.1073
  150MOL   H16130259   0.258   0.520   3.249 -2.8202  1.8465  0.8998
  150MOL   C16230260   0.192   0.500   3.043 -0.5390  0.1912 -0.1296
  150MOL   C16330261   0.140   0.392   2.949  0.7551  0.0624  0.0765
  150MOL   C16430262   0.024   0.400   2.882  0.1288 -0.8327  0.6594
  150MOL   C16530263   7.948   0.299   2.785 -0.4112  0.1803 -0.3964
  150MOL   H16630264   0.130   0.588   3.056  0.6047  1.4812 -3.0192
  150MOL   H16730265   0.291   0.527   3.007  0.2098 -0.4856  1.3656
  150MOL   H16830266   0.208   0.310   2.931  0.4608 -0.2239  0.2641
  150MOL   H16930267   7.942   0.490   2.889  1.4890  0.1296 -0.0931
  150MOL   H17030268   7.854   0.269   2.833 -0.3180 -0.6840 -0.7478
  150MOL   H17130269   0.031   0.208   2.789  0.7830  1.0072  0.8730
  150MOL   C17230270   7.921   0.352   2.644  0.4489 -0.0998  0.8536
  150MOL   C17330271   7.896   0.251   2.527  0.4305  0.6571 -0.3053
  150MOL   C17430272   7.875   0.120   2.544 -0.4145  0.2291  0.0988
  150MOL   C17530273   7.877   0.012   2.439  0.0560  0.5495  0.0188
  150MOL   H17630274   7.833   0.416   2.649 -0.2000 -1.0633  2.5384
  150MOL   H17730275   0.023   0.420   2.613  0.5598 -0.2472  0.8086
  150MOL   H17830276   7.905   0.287   2.426 -0.9919  0.1943 -0.6122
  150MOL   H17930277   7.869   0.091   2.648  0.0903  1.7333  0.5610
  150MOL   H18030278   7.898   0.040   2.336  2.0734 -1.7659 -0.2294
  150MOL   H18130279   7.774   7.953   2.435  0.2599  0.1280 -1.7816
  150MOL   C18230280   0.001   7.880   2.472  0.6403  0.3479  0.7855
  150MOL   C18330281   0.015   7.778   2.359 -0.3678 -0.6547 -0.0272
  150MOL   C18430282   0.131   7.768   2.289 -0.0629  0.4858 -0.2339
  150MOL   C18530283   0.150   7.681   2.165  0.8357  0.0290 -0.1276
  150MOL   H18630284   0.099   7.926   2.476  0.3009  1.1385  0.2702
  150MOL   H18730285   7.972   7.842   2.574  1.5240  1.3352  1.2125
  150MOL   H18830286   7.910   7.714   2.329 -2.4709  1.2599  1.4401
  150MOL   H18930287   0.214   7.829   2.320  0.8909 -0.8433 -0.1592
  150MOL   H19030288   0.067   7.611   2.155  0.9856 -0.0858 -0.5648
  150MOL   H19130289   0.241   7.621   2.176  1.3410  0.8060 -0.0120
  150MOL   C19230290   0.142   7.762   2.034  0.2120  0.5805 -0.4542
  150MOL   C19330291   0.148   7.657   1.931 -0.0301  0.1632  0.4250
  150MOL   C19430292   0.044   7.614   1.860  0.3654 -0.0703 -0.5307
  150MOL   C19530293   0.036   7.502   1.756  0.1027  0.2451  0.2186
  150MOL   H19630294   0.042   7.806   2.031  1.1100  2.6189 -1.1058
  150MOL   H19730295   0.209   7.847   2.022  1.4132 -0.4917 -1.4791
  150MOL   H19830296   0.250   7.628   1.912  0.1184  1.2009 -0.4058
  150MOL   H19930297   7.922   7.657   1.869  1.2482  1.9266 -0.2950
  150MOL   H20030298   0.142   7.490   1.731  0.1473  1.2166 -0.0838
  150MOL   H20130299   7.956   7.527   1.667  3.9916 -1.1653 -2.8400
  150MOL   H20230300   0.018   7.399   1.788 -1.3679 -0.3956 -2.5378
  151MOL     C130301   5.649   7.934   6.129  0.0310 -0.8490  0.1856
  151MOL     C230302   5.641   0.049   6.018  0.6641  0.1674 -0.2524
  151MOL     C330303   5.579   0.165   6.033 -1.0365 -0.5171 -0.1064
  151MOL     C430304   5.584   0.271   5.919  0.8711 -0.1382 -0.4135
  151MOL     H530305   5.634   7.835   6.087  1.8550 -1.3057  0.5773
  151MOL     H630306   5.576   7.945   6.210 -0.7842 -0.8232 -0.5519
  151MOL     H730307   5.690   0.018   5.927  0.8337  0.8506 -0.4008
  151MOL     H830308   5.518   0.191   6.118 -1.1981 -0.5946 -0.1985
  151MOL     H930309   5.656   0.234   5.846 -0.3561 -0.1622 -1.6445
  151MOL    H1030310   5.618   0.370   5.947  1.5269 -0.3735 -0.3713
  151MOL    H1130311   5.745   7.941   6.180  0.5990  1.2070 -1.1127
  151MOL    C1230312   5.451   0.297   5.858  0.6042 -0.2302  0.4942
  151MOL    C1330313   5.467   0.413   5.758  0.2196 -0.2958  0.2455
  151MOL    C1430314   5.405   0.417   5.636 -0.1363  0.4042 -0.7308
  151MOL    C1530315   5.413   0.540   5.543  0.2355 -0.3421  0.0819
  151MOL    H1630316   5.411   0.208   5.811 -0.4258  0.4753  0.0205
  151MOL    H1730317   5.381   0.332   5.934  0.2378  2.3287 -0.9379
  151MOL    H1830318   5.523   0.498   5.792  0.1316 -0.0411 -0.2436
  151MOL    H1930319   5.347   0.330   5.610 -2.5793  1.3311  1.2744
  151MOL    H2030320   5.441   0.495   5.448  3.3600  2.4730 -0.4192
  151MOL    H2130321   5.491   0.607   5.581 -1.1878 -0.5801  3.6117
  151MOL    C2230322   5.276   0.610   5.527 -0.8380  0.3347  0.1057
  151MOL    C2330323   5.259   0.702   5.411 -0.2321  0.9876 -0.0292
  151MOL    C2430324   5.135   0.732   5.371  0.0899 -0.2215  0.3844
  151MOL    C2530325   5.096   0.823   5.259  0.5834 -0.2494  0.3988
  151MOL    H2630326   5.208   0.526   5.510 -1.2876  0.6502  0.3237
  151MOL    H2730327   5.248   0.666   5.616 -1.8931  0.5096 -0.3303
  151MOL    H2830328   5.355   0.735   5.373  0.4008 -1.1571 -0.3935
  151MOL    H2930329   5.048   0.690   5.418 -1.6287  1.5000 -1.1934
  151MOL    H3030330   5.033   0.765   5.191  0.3898  1.3636 -0.8278
  151MOL    H3130331   5.191   0.849   5.212  1.0691 -0.1564  1.4367
  151MOL    C3230332   5.024   0.946   5.298  0.0625  0.2386 -0.2078
  151MOL    C3330333   4.961   1.020   5.176  0.0810  0.5080 -0.0799
  151MOL    C3430334   4.828   1.037   5.158  0.0676  0.7119 -0.0740
  151MOL    C3530335   4.755   1.092   5.034 -0.2051 -0.5723  0.2260
  151MOL    H3630336   4.941   0.908   5.359  0.2053  0.1538 -0.0667
  151MOL    H3730337   5.086   1.010   5.360  1.1411 -1.8075  0.8917
  151MOL    H3830338   5.040   1.047   5.108  2.4012 -1.9953  1.5451
  151MOL    H3930339   4.764   0.997   5.236  1.0021 -0.4631  0.0927
  151MOL    H4030340   4.691   1.017   4.989  0.1954 -1.2595  0.7864
  151MOL    H4130341   4.821   1.143   4.963 -0.4957 -0.6774 -0.1181
  151MOL    C4230342   4.654   1.196   5.077 -0.2955  0.3062  0.6052
  151MOL    C4330343   4.566   1.242   4.966  0.4037  0.5931 -0.1657
  151MOL    C4430344   4.544   1.367   4.927 -0.4256 -0.6739 -0.0182
  151MOL    C4530345   4.450   1.413   4.813  0.1570  0.1730  0.1329
  151MOL    H4630346   4.596   1.143   5.153  1.2058 -3.4894 -0.7720
  151MOL    H4730347   4.711   1.280   5.118 -0.4359  0.0570  1.3237
  151MOL    H4830348   4.502   1.170   4.916  0.1363  1.5424 -1.2127
  151MOL    H4930349   4.582   1.453   4.980  1.1367 -2.2957  1.5655
  151MOL    H5030350   4.428   1.332   4.744  0.5495  1.6211 -1.7371
  151MOL    H5130351   4.498   1.493   4.757 -0.4907  0.3468 -0.1750
  151MOL    C5230352   4.316   1.471   4.867  1.0623  0.0889  0.0427
  151MOL    C5330353   4.196   1.477   4.769 -0.5858 -0.3647  0.0910
  151MOL    C5430354   4.080   1.411   4.781  0.1924  0.6835  0.6232
  151MOL    C5530355   3.955   1.436   4.690  0.0139  0.6066 -0.5471
  151MOL    H5630356   4.294   1.406   4.951 -0.0605 -1.3291 -1.3082
  151MOL    H5730357   4.331   1.573   4.901 -0.5065  0.7299 -1.1245
  151MOL    H5830358   4.213   1.549   4.690  3.6882 -0.7202  0.5855
  151MOL    H5930359   4.069   1.337   4.859 -2.1337 -0.6615 -0.8974
  151MOL    H6030360   3.982   1.502   4.608 -1.4483  0.7966 -0.8806
  151MOL    H6130361   3.880   1.495   4.742  0.9636  1.1987  0.1703
  151MOL    C6230362   3.889   1.306   4.644  1.2589 -0.1740  0.4041
  151MOL    C6330363   3.752   1.311   4.588  0.2590  0.0073 -0.4976
  151MOL    C6430364   3.728   1.342   4.458  0.4269  0.8060  0.1618
  151MOL    C6530365   3.591   1.354   4.394  0.0506  0.1776 -0.3292
  151MOL    H6630366   3.953   1.257   4.571 -1.0654  0.0597 -1.8808
  151MOL    H6730367   3.890   1.233   4.726  1.5462 -0.9799 -0.3101
  151MOL    H6830368   3.669   1.288   4.654  0.8761  0.3539  0.4176
  151MOL    H6930369   3.815   1.353   4.395 -0.4294 -0.6950 -1.3193
  151MOL    H7030370   3.542   1.267   4.350 -1.0285  1.0131 -0.8050
  151MOL    H7130371   3.606   1.412   4.304 -3.5418 -0.3933 -1.3879
  151MOL    C7230372   3.494   1.420   4.486 -0.1563  0.4171 -0.6089
  151MOL    C7330373   3.531   1.562   4.527 -0.2605 -0.0444  0.5365
  151MOL    C7430374   3.459   1.672   4.495  0.2072 -0.4801 -0.1158
  151MOL    C7530375   3.486   1.820   4.536 -0.9332 -0.5486  0.1957
  151MOL    H7630376   3.404   1.432   4.425 -1.3993 -0.1561  1.0708
  151MOL    H7730377   3.465   1.362   4.573 -2.2136  0.7204 -1.0685
  151MOL    H7830378   3.622   1.572   4.583 -0.6495  0.1115  1.1551
  151MOL    H7930379   3.371   1.653   4.435  0.5751 -2.3918 -0.0843
  151MOL    H8030380   3.495   1.889   4.453 -1.4178  1.7889  2.0307
  151MOL    H8130381   3.582   1.821   4.587 -0.6913 -1.3792 -0.2299
  151MOL    C8230382   3.373   1.854   4.638 -0.0711  0.0799 -0.3341
  151MOL    C8330383   3.258   1.922   4.566 -0.6598 -0.0116  0.6591
  151MOL    C8430384   3.138   1.930   4.620 -0.8296 -0.3267  0.1435
  151MOL    C8530385   3.019   2.000   4.564 -0.2703 -0.3296  0.3974
  151MOL    H8630386   3.332   1.769   4.692  1.1541  2.0217  3.8776
  151MOL    H8730387   3.407   1.929   4.710  1.7365 -0.9264 -0.1160
  151MOL    H8830388   3.274   1.967   4.469 -0.7887  1.3237  1.2399
  151MOL    H8930389   3.118   1.874   4.710 -1.8795 -3.2110 -1.8224
  151MOL    H9030390   2.969   1.925   4.503 -0.7317  0.5918 -0.3663
  151MOL    H9130391   3.061   2.071   4.492 -0.1505 -0.5231  0.2765
  151MOL    C9230392   2.940   2.075   4.675 -0.0686  0.1371 -0.2324
  151MOL    C9330393   2.898   1.997   4.796  0.1243  0.0223 -0.1326
  151MOL    C9430394   2.920   2.022   4.926 -0.1615  0.0329 -0.5062
  151MOL    C9530395   2.882   1.923   5.030 -0.0399 -0.4270  0.0661
  151MOL    H9630396   2.993   2.160   4.716 -1.9765  1.3744 -0.2633
  151MOL    H9730397   2.849   2.105   4.622 -0.9900 -1.1048  0.6126
  151MOL    H9830398   2.846   1.905   4.773 -0.5229  0.4935 -0.6052
  151MOL    H9930399   2.979   2.106   4.961 -2.6652  1.7005 -0.1386
  151MOL   H10030400   2.969   1.874   5.072  1.0292  1.5097  0.1590
  151MOL   H10130401   2.828   1.840   4.984  0.1701  0.5122 -1.9331
  151MOL   C10230402   2.797   1.996   5.143 -0.2795 -0.1181 -0.3845
  151MOL   C10330403   2.758   1.900   5.247  0.2058  0.1088  0.6882
  151MOL   C10430404   2.812   1.895   5.368  0.0307 -0.2940 -0.5078
  151MOL   C10530405   2.773   1.784   5.463 -0.3943 -0.5911 -0.6773
  151MOL   H10630406   2.855   2.082   5.176  1.6250 -1.5241  0.0011
  151MOL   H10730407   2.703   2.037   5.104  0.4145  1.4049 -0.5104
  151MOL   H10830408   2.683   1.827   5.220  0.6721  0.7050 -2.4443
  151MOL   H10930409   2.881   1.973   5.395 -0.6986  0.3469 -0.4839
  151MOL   H11030410   2.851   1.709   5.480  0.1195  0.0071 -0.3435
  151MOL   H11130411   2.703   1.713   5.420 -0.1694 -1.1180 -0.1843
  151MOL   C11230412   2.717   1.823   5.600  0.1137 -0.0927  0.5247
  151MOL   C11330413   2.794   1.906   5.691 -0.0636 -0.0651 -0.2389
  151MOL   C11430414   2.784   2.043   5.711  0.2737 -0.3155 -0.3931
  151MOL   C11530415   2.849   2.120   5.821 -0.0777  0.3731  0.0583
  151MOL   H11630416   2.621   1.874   5.591  0.2393  0.5791  2.7033
  151MOL   H11730417   2.691   1.729   5.648 -1.1389 -0.7785 -1.4608
  151MOL   H11830418   2.858   1.851   5.760  1.8371 -0.4887 -2.2828
  151MOL   H11930419   2.715   2.088   5.640  0.3933  1.9019  0.8563
  151MOL   H12030420   2.900   2.212   5.794  1.5498  0.2163  2.4776
  151MOL   H12130421   2.926   2.052   5.858 -0.6359 -1.1561 -1.4731
  151MOL   C12230422   2.757   2.137   5.937  0.6632  0.2563 -0.1249
  151MOL   C12330423   2.822   2.164   6.070  0.1899 -0.8143 -0.7846
  151MOL   C12430424   2.806   2.104   6.193  0.1439  0.1934 -0.2058
  151MOL   C12530425   2.893   2.133   6.313  0.2333  0.7101  0.1175
  151MOL   H12630426   2.688   2.220   5.926  0.6406 -0.0718 -2.5950
  151MOL   H12730427   2.721   2.036   5.955 -1.9626  1.1725 -0.0311
  151MOL   H12830428   2.896   2.243   6.075 -1.4621  0.8510 -2.1501
  151MOL   H12930429   2.738   2.021   6.205 -0.9995  1.0194 -0.7898
  151MOL   H13030430   2.953   2.223   6.303 -0.0403  0.8518 -0.2558
  151MOL   H13130431   2.960   2.048   6.321 -1.3744 -0.7822 -1.6662
  151MOL   C13230432   2.801   2.146   6.433  0.3689  0.3535  0.0506
  151MOL   C13330433   2.877   2.116   6.558  0.3295  0.6663 -0.1077
  151MOL   C13430434   2.917   2.211   6.646 -0.7295 -0.3908 -0.4646
  151MOL   C13530435   3.007   2.175   6.765 -0.1379  0.2456 -0.7904
  151MOL   H13630436   2.756   2.244   6.444 -1.4251 -0.5789  1.1893
  151MOL   H13730437   2.726   2.067   6.425  0.8261 -0.0642 -0.1589
  151MOL   H13830438   2.906   2.014   6.577  1.8332  0.7777 -1.6399
  151MOL   H13930439   2.896   2.316   6.635  0.3578 -0.2145 -0.9075
  151MOL   H14030440   3.022   2.067   6.770  0.4333  0.4423  2.8683
  151MOL   H14130441   2.968   2.209   6.861  0.0250  2.8589 -1.6271
  151MOL   C14230442   3.150   2.238   6.753  0.4872 -0.6445  0.0853
  151MOL   C14330443   3.239   2.211   6.874  0.6737 -0.0793 -1.0697
  151MOL   C14430444   3.364   2.167   6.863  0.5486  0.1644  0.1299
  151MOL   C14530445   3.448   2.132   6.986  0.9295 -0.2443  0.0266
  151MOL   H14630446   3.195   2.204   6.660  1.2908 -2.2875  1.0684
  151MOL   H14730447   3.139   2.347   6.746 -0.7120 -0.7725 -0.0497
  151MOL   H14830448   3.195   2.229   6.972  1.2662 -1.5089 -0.5239
  151MOL   H14930449   3.392   2.147   6.760  1.2914 -0.4573  0.4488
  151MOL   H15030450   3.405   2.163   7.081 -0.4266 -1.8090 -0.0436
  151MOL   H15130451   3.538   2.192   6.980  1.1741 -0.6593 -0.4638
  151MOL   C15230452   3.459   1.982   6.988 -0.2426  0.8041  0.3031
  151MOL   C15330453   3.545   1.941   7.105  0.6716  0.0140 -0.4608
  151MOL   C15430454   3.509   1.881   7.222 -0.1776 -0.2174 -0.7269
  151MOL   C15530455   3.610   1.861   7.333 -0.5505 -0.3841 -0.4876
  151MOL   H15630456   3.365   1.928   6.994 -0.4446  0.9933 -1.0189
  151MOL   H15730457   3.507   1.935   6.902  3.0358  4.0081  0.2237
  151MOL   H15830458   3.647   1.969   7.086  0.3310  0.2612 -1.9962
  151MOL   H15930459   3.406   1.860   7.250 -0.2567  2.0218  0.8781
  151MOL   H16030460   3.705   1.899   7.297 -1.3988  2.6371  0.3002
  151MOL   H16130461   3.624   1.754   7.350 -0.1915 -0.4585 -1.2450
  151MOL   C16230462   3.569   1.917   7.470  0.1360 -0.2976  0.0198
  151MOL   C16330463   3.659   1.871   7.581 -0.0965 -0.0472 -0.0632
  151MOL   C16430464   3.703   1.949   7.679 -0.4428 -0.4112  0.3961
  151MOL   C16530465   3.783   1.906   7.801 -0.2719  0.1798 -0.4649
  151MOL   H16630466   3.562   2.025   7.467 -3.0042 -0.4365  1.0496
  151MOL   H16730467   3.468   1.883   7.494  1.5447 -2.6830  2.9728
  151MOL   H16830468   3.686   1.767   7.573  2.2281  0.3743  1.8112
  151MOL   H16930469   3.673   2.053   7.681  1.9184  0.3170 -0.8754
  151MOL   H17030470   3.876   1.963   7.809  0.5234 -1.2397  0.7045
  151MOL   H17130471   3.810   1.802   7.781  1.7260  0.1128  2.2817
  151MOL   C17230472   3.697   1.920   7.926 -0.1400  0.2387 -0.4340
  151MOL   C17330473   3.764   1.878   0.074 -1.0762 -0.2548  0.5041
  151MOL   C17430474   3.785   1.753   0.117 -0.7358  0.4476  0.0507
  151MOL   C17530475   3.863   1.714   0.241  0.7432 -0.0615  0.1508
  151MOL   H17630476   3.670   2.024   7.947  1.0190  0.1972  1.4104
  151MOL   H17730477   3.599   1.876   7.908  0.3841 -0.2317 -2.1639
  151MOL   H17830478   3.808   1.964   0.121 -0.0421 -0.2068 -0.5442
  151MOL   H17930479   3.755   1.671   0.053 -2.3883  1.4971 -0.5470
  151MOL   H18030480   3.798   1.650   0.300 -0.1577 -0.0725 -0.8383
  151MOL   H18130481   3.889   1.803   0.298  0.7184 -0.8484  1.4208
  151MOL   C18230482   3.996   1.644   0.205  0.1199 -0.6365 -0.3149
  151MOL   C18330483   4.064   1.599   0.326  0.1281  0.6556 -0.0216
  151MOL   C18430484   4.200   1.607   0.345  0.5968 -0.4779 -0.1787
  151MOL   C18530485   4.279   1.560   0.467 -0.1707  0.0692  0.5530
  151MOL   H18630486   3.980   1.551   0.151  0.4563 -0.3555 -0.8999
  151MOL   H18730487   4.058   1.710   0.144  1.2192 -1.4396 -0.0909
  151MOL   H18830488   4.000   1.553   0.400  1.0288  0.3502  0.5737
  151MOL   H18930489   4.255   1.649   0.262  1.3059  0.7842  0.9232
  151MOL   H19030490   4.347   1.488   0.423  2.9942  3.9908 -1.3205
  151MOL   H19130491   4.219   1.504   0.538  0.6307  0.2574  1.3915
  151MOL   C19230492   4.353   1.667   0.543 -0.3180  0.8224 -0.5744
  151MOL   C19330493   4.447   1.740   0.446 -0.1823  0.2247  0.0332
  151MOL   C19430494   4.415   1.869   0.423  0.0790 -0.0408 -0.6572
  151MOL   C19530495   4.501   1.962   0.339  0.1796  0.3515 -0.6951
  151MOL   H19630496   4.266   1.732   0.560 -2.1089 -1.4275 -0.9401
  151MOL   H19730497   4.387   1.634   0.641 -0.4914  0.7167 -0.5486
  151MOL   H19830498   4.529   1.686   0.401 -0.7714 -1.8366  1.3952
  151MOL   H19930499   4.326   1.914   0.464  0.5007 -0.8846  1.2123
  151MOL   H20030500   4.521   2.051   0.399 -4.9802  1.8775 -1.0274
  151MOL   H20130501   4.446   1.978   0.247 -2.2693 -2.9864  0.1307
  151MOL   H20230502   4.598   1.912   0.335 -0.1200 -0.4924  1.8393
  152MOL     C130503   0.305   0.614   7.390 -0.1541 -1.1158  0.1451
  152MOL     C230504   0.183   0.523   7.387  0.3558  1.4287  1.0366
  152MOL     C330505   0.089   0.520   7.292 -0.3427  0.4185  0.7898
  152MOL     C430506   7.941   0.440   7.285  0.1606 -0.0239  0.3040
  152MOL     H530507   0.308   0.644   7.495  0.1796 -1.0781  0.1249
  152MOL     H630508   0.296   0.699   7.322  0.7469 -1.6494 -0.6412
  152MOL     H730509   0.179   0.463   7.477 -1.1577 -1.2597 -0.7468
  152MOL     H830510   0.094   0.584   7.205  0.6530 -2.7165 -1.5419
  152MOL     H930511   7.857   0.501   7.317  0.5715  1.1186 -0.7696
  152MOL    H1030512   7.963   0.359   7.355  0.0101 -0.5788 -0.2783
  152MOL    H1130513   0.397   0.558   7.374  0.4829  0.1698 -0.7716
  152MOL    C1230514   7.924   0.393   7.138  0.2156  0.0209  0.1660
  152MOL    C1330515   7.812   0.299   7.120 -0.8226 -0.6844 -0.7108
  152MOL    C1430516   7.825   0.172   7.094 -0.3147  0.5557  1.1933
  152MOL    C1530517   7.713   0.075   7.085  0.3284  0.3868  0.4318
  152MOL    H1630518   7.899   0.477   7.073  0.4543 -1.3121 -1.6979
  152MOL    H1730519   0.041   0.353   7.101  0.4711 -0.9787  1.8344
  152MOL    H1830520   7.719   0.343   7.155 -0.7477 -0.7557 -0.4224
  152MOL    H1930521   7.925   0.139   7.073 -0.5673  0.3520  0.2656
  152MOL    H2030522   7.722   0.015   6.994  1.3241  1.9498 -0.5223
  152MOL    H2130523   7.620   0.133   7.086 -0.6249 -1.0702 -0.9143
  152MOL    C2230524   7.701   7.959   7.208 -0.5910 -0.7185  0.1923
  152MOL    C2330525   7.608   7.838   7.206 -0.8321  0.6989 -0.1774
  152MOL    C2430526   7.624   7.722   7.140  0.6250  0.0252 -0.0984
  152MOL    C2530527   7.534   7.610   7.171  0.0761 -0.2032  0.7397
  152MOL    H2630528   7.802   7.925   7.231 -0.7127  0.5920  2.8455
  152MOL    H2730529   7.677   0.051   7.289 -2.3635 -1.7865  0.5822
  152MOL    H2830530   7.526   7.847   7.275 -0.2867  0.9763  0.4323
  152MOL    H2930531   7.714   7.722   7.080  0.9326  4.7001  0.2324
  152MOL    H3030532   7.443   7.639   7.222 -0.9303  1.9635 -2.1255
  152MOL    H3130533   7.594   7.541   7.231 -0.7333 -0.9858  0.6524
  152MOL    C3230534   7.459   7.541   7.051  0.3604  0.2629  0.7934
  152MOL    C3330535   7.403   7.406   7.072 -0.5112 -0.0454 -0.1176
  152MOL    C3430536   7.417   7.306   6.984 -0.0734 -0.1799  0.0003
  152MOL    C3530537   7.350   7.174   6.999 -0.2418  0.4362  0.3202
  152MOL    H3630538   7.369   7.589   7.011  0.5540  0.3131  0.4262
  152MOL    H3730539   7.526   7.548   6.966  1.3274 -0.5625  1.4827
  152MOL    H3830540   7.344   7.399   7.163  0.4909  3.1165  0.8286
  152MOL    H3930541   7.482   7.324   6.900  1.6033  0.5027  1.4185
  152MOL    H4030542   7.308   7.168   7.099  1.7811 -0.3889  1.1438
  152MOL    H4130543   7.425   7.094   7.004 -0.8210 -0.0796  0.8872
  152MOL    C4230544   7.248   7.148   6.882  0.0023 -0.0705 -0.1917
  152MOL    C4330545   7.333   7.129   6.758 -0.5435  0.3554 -0.1046
  152MOL    C4430546   7.351   7.213   6.657  0.0645 -0.2405  0.1810
  152MOL    C4530547   7.432   7.189   6.537  0.3769  0.1216 -0.6591
  152MOL    H4630548   7.178   7.065   6.898 -0.2884 -0.0454 -1.3257
  152MOL    H4730549   7.193   7.242   6.878 -0.4270 -0.2511  1.1036
  152MOL    H4830550   7.388   7.036   6.760 -1.0417  0.0367 -1.1648
  152MOL    H4930551   7.300   7.308   6.661 -0.2625 -0.4411  0.8528
  152MOL    H5030552   7.478   7.090   6.533  1.8176  0.7285  0.5649
  152MOL    H5130553   7.520   7.251   6.551 -0.5999  1.9436 -2.3505
  152MOL    C5230554   7.352   7.235   6.411  0.6336  0.1164 -0.8426
  152MOL    C5330555   7.436   7.219   6.287 -0.4734 -0.7524 -0.3356
  152MOL    C5430556   7.502   7.318   6.222 -0.3209  0.2167  0.3138
  152MOL    C5530557   7.591   7.284   6.099 -0.2698 -0.1938  0.1808
  152MOL    H5630558   7.258   7.180   6.404  1.8515 -2.5231  2.0800
  152MOL    H5730559   7.333   7.342   6.422  0.2802 -0.2724  2.8561
  152MOL    H5830560   7.444   7.117   6.252 -1.1897 -1.0143  0.2561
  152MOL    H5930561   7.492   7.421   6.253  0.8420  0.5423 -0.3917
  152MOL    H6030562   7.599   7.176   6.084 -2.7149 -0.6705  1.8189
  152MOL    H6130563   7.689   7.330   6.107 -0.6904  1.3893 -3.0295
  152MOL    C6230564   7.536   7.350   5.967  0.0758  0.1276 -0.0673
  152MOL    C6330565   7.416   7.280   5.906  0.0403  0.1350  0.3220
  152MOL    C6430566   7.287   7.323   5.895 -0.1468  0.2593 -0.0791
  152MOL    C6530567   7.164   7.250   5.848 -0.1750 -0.1601 -0.2579
  152MOL    H6630568   7.516   7.457   5.975 -1.3006 -0.1906  0.9931
  152MOL    H6730569   7.620   7.355   5.898 -0.5402 -0.3605 -0.8580
  152MOL    H6830570   7.441   7.188   5.855  0.3036  1.7230 -2.4802
  152MOL    H6930571   7.275   7.419   5.943 -1.4513  0.1720 -0.2170
  152MOL    H7030572   7.133   7.273   5.746 -2.4706  1.2327  0.7249
  152MOL    H7130573   7.082   7.281   5.912 -1.4124 -0.5571 -1.6231
  152MOL    C7230574   7.176   7.095   5.859  0.5563 -0.9439 -0.5831
  152MOL    C7330575   7.175   7.047   6.006  0.0692  0.0860  0.0337
  152MOL    C7430576   7.091   6.959   6.061  0.1542 -0.2379 -0.3259
  152MOL    C7530577   7.089   6.926   6.211  0.0894 -0.0125  0.7014
  152MOL    H7630578   7.104   7.040   5.799 -0.3949  0.5793 -0.8609
  152MOL    H7730579   7.279   7.067   5.835  1.1229  1.5600 -1.1730
  152MOL    H7830580   7.258   7.091   6.059 -0.7826  0.5989  0.9531
  152MOL    H7930581   7.015   6.903   6.009 -1.5798  0.8738  0.9654
  152MOL    H8030582   6.997   6.874   6.237  0.1223  0.1054  1.0637
  152MOL    H8130583   7.080   7.006   6.285 -1.0996  0.3002  0.2297
  152MOL    C8230584   7.213   6.834   6.234  0.0807  0.0015  0.0734
  152MOL    C8330585   7.202   6.785   6.380  0.1335  0.7781 -0.0222
  152MOL    C8430586   7.265   6.839   6.483  0.3756 -0.1226 -0.0003
  152MOL    C8530587   7.242   6.789   6.626 -0.5002 -0.1565  0.2266
  152MOL    H8630588   7.216   6.745   6.171  0.6573 -0.7243  1.0879
  152MOL    H8730589   7.304   6.889   6.209  1.4914 -2.2651  0.0440
  152MOL    H8830590   7.135   6.702   6.398  1.9534 -0.4075  1.4762
  152MOL    H8930591   7.331   6.923   6.469 -0.6508  0.5039 -1.1833
  152MOL    H9030592   7.158   6.721   6.632 -0.3905 -0.2603  0.5994
  152MOL    H9130593   7.213   6.872   6.691 -0.8720 -0.7151  0.7853
  152MOL    C9230594   7.364   6.714   6.680 -0.2838 -0.5535  0.3991
  152MOL    C9330595   7.481   6.807   6.714  0.3177 -0.3145  0.2488
  152MOL    C9430596   7.540   6.819   6.836 -0.7580  1.2035  0.1102
  152MOL    C9530597   7.647   6.911   6.883 -0.4795  0.2864  0.6788
  152MOL    H9630598   7.333   6.659   6.769  2.3602 -0.8012  1.2068
  152MOL    H9730599   7.413   6.637   6.621 -1.1783 -1.8535  1.3260
  152MOL    H9830600   7.513   6.873   6.635  1.9468 -0.8704  0.4206
  152MOL    H9930601   7.508   6.747   6.910 -1.4243  0.1250 -1.2033
  152MOL   H10030602   7.722   6.850   6.932 -1.1548 -0.8750  0.2845
  152MOL   H10130603   7.605   6.979   6.957  1.6913  0.5170  1.7308
  152MOL   C10230604   7.708   7.002   6.781 -0.0185 -0.5075 -0.2747
  152MOL   C10330605   7.796   7.109   6.839  0.4728  0.6985  0.3585
  152MOL   C10430606   7.774   7.240   6.833 -0.8453 -0.5695 -0.3899
  152MOL   C10530607   7.889   7.337   6.852 -0.0037  0.1287  0.2811
  152MOL   H10630608   7.768   6.949   6.707 -0.5953  0.2956 -1.3419
  152MOL   H10730609   7.632   7.060   6.728  1.6150  1.1815 -0.8142
  152MOL   H10830610   7.893   7.078   6.874  0.9232 -0.3668 -1.7440
  152MOL   H10930611   7.681   7.277   6.792 -1.1755 -0.1194  0.7451
  152MOL   H11030612   7.928   7.351   6.751 -3.6185  1.8295 -0.9643
  152MOL   H11130613   7.966   7.291   6.914 -0.1284  1.0532  1.1318
  152MOL   C11230614   7.847   7.475   6.908  0.1966  0.0417  0.2665
  152MOL   C11330615   7.968   7.566   6.924 -0.4854  0.8115  0.3089
  152MOL   C11430616   0.013   7.678   6.856  0.1463 -0.4798  0.0082
  152MOL   C11530617   0.127   7.780   6.871  0.4358 -0.0353  0.0087
  152MOL   H11630618   7.774   7.520   6.841 -0.3565 -1.1810  0.0371
  152MOL   H11730619   7.792   7.459   7.000  0.5827 -1.1265  0.3077
  152MOL   H11830620   0.064   7.535   6.997  0.6514 -1.9712 -1.9382
  152MOL   H11930621   7.910   7.712   6.792 -0.1929  0.4582  0.9235
  152MOL   H12030622   0.155   7.810   6.771 -3.2131  0.3684 -0.9776
  152MOL   H12130623   0.216   7.742   6.920 -0.3758 -0.1695  1.4208
  152MOL   C12230624   0.085   7.907   6.950  0.3249 -0.1685  0.1837
  152MOL   C12330625   0.194   0.036   6.951  0.1583  0.6376 -0.4658
  152MOL   C12430626   0.326   0.019   6.946 -0.0016 -0.0212 -0.1176
  152MOL   C12530627   0.421   0.139   6.942 -0.0649  0.0562  0.4478
  152MOL   H12630628   7.959   7.936   6.926 -0.0492 -1.9793 -0.5036
  152MOL   H12730629   0.071   7.875   7.053 -1.6647  0.8983  0.2705
  152MOL   H12830630   0.159   0.138   6.953  0.3041  0.6804 -0.1164
  152MOL   H12930631   0.363   7.894   6.949  1.3159  0.3794 -1.8064
  152MOL   H13030632   0.363   0.221   6.900  0.9114  0.4420 -0.1629
  152MOL   H13130633   0.499   0.120   6.869  0.0483 -1.0655  0.8545
  152MOL   C13230634   0.480   0.194   7.071 -0.3611 -0.0022  0.1615
  152MOL   C13330635   0.587   0.098   7.138  0.2310  0.6042 -0.3023
  152MOL   C13430636   0.721   0.116   7.152  0.0690  0.6517  1.0005
  152MOL   C13530637   0.812   0.009   7.217  0.7657  0.6667  0.0010
  152MOL   H13630638   0.531   0.286   7.043 -1.1602  1.2825  2.6608
  152MOL   H13730639   0.397   0.211   7.140 -1.1540  2.7046 -1.3876
  152MOL   H13830640   0.543   0.009   7.180 -0.7656  1.7000  1.0222
  152MOL   H13930641   0.771   0.204   7.114 -0.8520  0.6653 -0.2231
  152MOL   H14030642   0.893   7.969   7.146  0.6670  3.3643 -0.8205
  152MOL   H14130643   0.760   7.891   7.224 -0.4438  1.2780 -0.5789
  152MOL   C14230644   0.877   0.064   7.346 -0.6535 -0.6555  0.1023
  152MOL   C14330645   0.950   7.928   7.417  0.6859 -0.0891 -0.0066
  152MOL   C14430646   1.083   7.937   7.438  0.2173 -0.1305 -0.0318
  152MOL   C14530647   1.175   7.837   7.496 -0.4815  1.1189  0.7486
  152MOL   H14630648   0.934   0.156   7.336 -1.1128  0.0730  3.4909
  152MOL   H14730649   0.797   0.099   7.412  1.1777  1.4049  1.3062
  152MOL   H14830650   0.900   7.834   7.435  1.4286 -0.7032 -1.1157
  152MOL   H14930651   1.141   0.042   7.400 -0.8236 -0.3606 -2.2152
  152MOL   H15030652   1.129   7.739   7.505  2.1772 -0.4740 -2.0512
  152MOL   H15130653   1.194   7.860   7.600 -1.2032  0.1762  1.0932
  152MOL   C15230654   1.311   7.814   7.417  0.5945  0.2964 -0.4145
  152MOL   C15330655   1.411   7.723   7.481  0.3063 -0.1266 -0.9143
  152MOL   C15430656   1.541   7.767   7.491  0.1238 -0.1305 -0.2795
  152MOL   C15530657   1.657   7.681   7.539  0.1002 -0.7788  0.0757
  152MOL   H15630658   1.283   7.770   7.321 -0.7618 -0.2303  0.2103
  152MOL   H15730659   1.355   7.913   7.404 -1.1254  1.4775  2.3163
  152MOL   H15830660   1.383   7.630   7.528  0.0856  0.2512 -0.2903
  152MOL   H15930661   1.563   7.869   7.465  0.5313 -0.3485 -0.8069
  152MOL   H16030662   1.604   7.599   7.586 -1.4772  0.2002  0.0261
  152MOL   H16130663   1.717   7.742   7.606 -2.1517  1.0390  0.5024
  152MOL   C16230664   1.762   7.633   7.433  0.2534 -0.8291 -0.2575
  152MOL   C16330665   1.879   7.576   7.500 -0.3886  0.0858  0.0681
  152MOL   C16430666   1.939   7.463   7.461 -0.6954  0.1550 -0.0810
  152MOL   C16530667   2.063   7.397   7.532 -0.6038 -0.6913 -0.4442
  152MOL   H16630668   1.715   7.574   7.355 -0.2069  1.0485 -1.4298
  152MOL   H16730669   1.798   7.728   7.393  2.2509 -2.0428 -1.3873
  152MOL   H16830670   1.929   7.631   7.577  1.1772 -0.9232 -0.2043
  152MOL   H16930671   1.896   7.407   7.379 -4.2670  1.0079  1.1342
  152MOL   H17030672   2.131   7.472   7.571 -1.5137 -0.0625 -0.0462
  152MOL   H17130673   2.117   7.336   7.460  0.6210 -2.6481  2.0825
  152MOL   C17230674   2.033   7.323   7.659 -0.2249 -0.0485  0.0523
  152MOL   C17330675   2.148   7.249   7.722 -0.3333  0.4910  0.4059
  152MOL   C17430676   2.160   7.114   7.704 -0.5303  0.1904 -0.5276
  152MOL   C17530677   2.266   7.026   7.767  0.3272 -0.6456  0.4820
  152MOL   H17630678   2.001   7.391   7.738 -1.0729  0.3843 -0.6601
  152MOL   H17730679   1.943   7.262   7.662 -0.8300  0.8802  0.9746
  152MOL   H17830680   2.232   7.304   7.761 -0.9758  2.0237 -0.3234
  152MOL   H17930681   2.084   7.067   7.643 -0.5000 -0.7309  0.1306
  152MOL   H18030682   2.349   7.080   7.813  0.1398 -0.5852  0.7492
  152MOL   H18130683   2.315   6.968   7.688  0.6617 -0.6752  0.7083
  152MOL   C18230684   2.204   6.925   7.877  0.0799 -0.2251 -0.4354
  152MOL   C18330685   2.094   6.837   7.813  0.4822 -0.6572  0.4341
  152MOL   C18430686   2.089   6.706   7.821  0.5996  0.0232  0.0866
  152MOL   C18530687   1.995   6.619   7.740  0.1479 -0.6096  0.0914
  152MOL   H18630688   2.287   6.875   7.928  0.2534 -0.2392 -0.7261
  152MOL   H18730689   2.140   6.983   7.944  0.9419 -1.7343  1.7433
  152MOL   H18830690   2.023   6.891   7.753  0.0162 -2.8410 -1.0330
  152MOL   H18930691   2.158   6.642   7.873  0.6370 -0.7294 -0.8698
  152MOL   H19030692   1.914   6.675   7.693  0.2155  0.3777  1.1097
  152MOL   H19130693   1.939   6.554   7.808  1.5964 -4.5668 -2.3341
  152MOL   C19230694   2.065   6.549   7.632  0.0813 -0.4170  0.1820
  152MOL   C19330695   1.965   6.478   7.543  0.5718 -0.6347  0.0091
  152MOL   C19430696   1.971   6.482   7.411  0.1257  0.2522 -0.2621
  152MOL   C19530697   1.882   6.398   7.319  0.1986 -0.6860  0.6757
  152MOL   H19630698   2.135   6.616   7.582 -0.1194  0.4071  0.9716
  152MOL   H19730699   2.122   6.474   7.688  0.1655  1.2558  2.4231
  152MOL   H19830700   1.890   6.423   7.597  0.6718 -1.3825 -0.6061
  152MOL   H19930701   2.044   6.539   7.355 -0.7922  1.4234 -0.2826
  152MOL   H20030702   1.827   6.448   7.240 -0.9901 -0.8281  1.4079
  152MOL   H20130703   1.817   6.333   7.378  0.9330 -1.5147  0.5837
  152MOL   H20230704   1.948   6.331   7.263 -0.8733 -1.6613  0.5582
  153MOL     C130705   6.741   4.970   4.459  0.0966  0.1693  0.1564
  153MOL     C230706   6.689   4.936   4.598  0.2436  1.1845  0.1445
  153MOL     C330707   6.559   4.918   4.628  0.4692 -0.1097 -0.5858
  153MOL     C430708   6.505   4.874   4.765 -0.8929 -0.1717  0.5663
  153MOL     H530709   6.783   5.069   4.477  0.3431 -0.0310  0.7201
  153MOL     H630710   6.668   4.965   4.379  1.0599  0.2217 -0.7279
  153MOL     H730711   6.770   4.923   4.667 -0.6294 -0.4940  0.8830
  153MOL     H830712   6.498   4.919   4.538  1.4623  0.4637 -1.2692
  153MOL     H930713   6.405   4.916   4.772 -1.2220 -1.0011  0.8138
  153MOL    H1030714   6.576   4.895   4.845  0.8845 -0.9177 -0.7607
  153MOL    H1130715   6.829   4.912   4.433  0.1773  0.8869 -1.1973
  153MOL    C1230716   6.489   4.719   4.768  0.7782  0.1636 -0.1232
  153MOL    C1330717   6.454   4.687   4.907 -0.4583  0.4727 -0.0996
  153MOL    C1430718   6.535   4.642   5.002 -0.0255  0.9027  0.1959
  153MOL    C1530719   6.504   4.617   5.148  0.0599 -0.2402  0.7306
  153MOL    H1630720   6.427   4.663   4.699 -0.7084  0.7635  0.6999
  153MOL    H1730721   6.589   4.677   4.766  0.7096 -0.0480  0.7468
  153MOL    H1830722   6.355   4.724   4.932  0.4793  3.8161 -1.0442
  153MOL    H1930723   6.633   4.613   4.966 -0.3075 -0.6427  0.6454
  153MOL    H2030724   6.411   4.664   5.181  0.7379  0.7038  1.3377
  153MOL    H2130725   6.574   4.667   5.215 -2.7971 -0.5517  4.0867
  153MOL    C2230726   6.498   4.471   5.171  0.6256 -0.0493  0.0096
  153MOL    C2330727   6.629   4.406   5.176 -0.3222 -0.1057  0.3317
  153MOL    C2430728   6.661   4.312   5.260 -0.2420  0.3009 -0.0773
  153MOL    C2530729   6.796   4.237   5.285 -0.8096 -0.0411  0.2380
  153MOL    H2630730   6.450   4.459   5.268 -0.8381  0.7554 -0.5905
  153MOL    H2730731   6.433   4.429   5.094 -1.5041 -0.7831  2.1315
  153MOL    H2830732   6.703   4.439   5.105 -0.1070  2.1152  1.5535
  153MOL    H2930733   6.583   4.280   5.327 -1.9478  0.3944 -1.9836
  153MOL    H3030734   6.868   4.282   5.216  1.7029 -2.1734  1.3793
  153MOL    H3130735   6.769   4.135   5.257 -0.5846 -0.2562  0.8092
  153MOL    C3230736   6.831   4.235   5.432  0.7439  0.3119 -0.5294
  153MOL    C3330737   6.963   4.149   5.454  0.0792  0.1867  0.3220
  153MOL    C3430738   6.975   4.042   5.536 -1.0903 -0.4639  0.3762
  153MOL    C3530739   7.106   3.965   5.549  0.1776  0.1500 -0.5217
  153MOL    H3630740   6.852   4.337   5.464  0.9258 -0.1551  0.8664
  153MOL    H3730741   6.747   4.196   5.491 -1.1833  0.5358 -3.0364
  153MOL    H3830742   7.050   4.172   5.395 -1.6739 -0.3960 -2.5752
  153MOL    H3930743   6.883   4.025   5.588 -0.9197 -1.1019  0.4753
  153MOL    H4030744   7.146   3.964   5.650 -0.0591  0.4302 -0.4236
  153MOL    H4130745   7.189   4.005   5.490  1.3404 -3.1427 -1.2078
  153MOL    C4230746   7.097   3.818   5.509  0.0014  0.8430  0.3489
  153MOL    C4330747   7.046   3.724   5.617 -0.2423  0.7144 -0.2463
  153MOL    C4430748   6.939   3.644   5.600 -0.3343  1.1505  0.1649
  153MOL    C4530749   6.880   3.542   5.696 -0.6855  0.3436  0.4668
  153MOL    H4630750   7.042   3.812   5.415 -0.9483  3.3656  0.6965
  153MOL    H4730751   7.198   3.782   5.493  0.5559  1.6018  2.0837
  153MOL    H4830752   7.105   3.722   5.707  1.2119  0.2833 -1.1873
  153MOL    H4930753   6.887   3.657   5.507  2.2725  2.1265 -1.2025
  153MOL    H5030754   6.879   3.451   5.636  0.5535 -0.3214  1.4386
  153MOL    H5130755   6.777   3.571   5.717 -1.1713  0.2999 -1.7029
  153MOL    C5230756   6.956   3.524   5.826 -0.3223 -0.4322  0.0365
  153MOL    C5330757   6.899   3.415   5.908  0.8959  0.0408 -0.4130
  153MOL    C5430758   6.881   3.425   6.041  0.1804 -0.7918  0.7773
  153MOL    C5530759   6.804   3.312   6.106 -0.1631  0.4053  0.1069
  153MOL    H5630760   7.060   3.505   5.801  0.0846  1.0125  0.5701
  153MOL    H5730761   6.957   3.610   5.894 -0.0525 -0.0404 -0.4577
  153MOL    H5830762   6.864   3.332   5.849  1.6250 -0.4395 -0.1691
  153MOL    H5930763   6.922   3.512   6.091 -0.3870 -0.6762  1.0367
  153MOL    H6030764   6.878   3.235   6.127 -0.0010  0.4833 -0.1760
  153MOL    H6130765   6.729   3.277   6.037  0.6327 -1.6347  0.2586
  153MOL    C6230766   6.742   3.359   6.241  0.0381  0.5117  0.0688
  153MOL    C6330767   6.658   3.259   6.309  0.7656 -0.0568 -0.5512
  153MOL    C6430768   6.672   3.216   6.437  0.3111  0.4457 -0.6376
  153MOL    C6530769   6.598   3.095   6.495 -0.2161 -0.1492 -0.0993
  153MOL    H6630770   6.807   3.406   6.315  1.7222 -1.8645  0.1560
  153MOL    H6730771   6.666   3.430   6.210 -0.0631  1.1005  1.6089
  153MOL    H6830772   6.576   3.223   6.248  0.3494  2.0515 -1.2677
  153MOL    H6930773   6.769   3.242   6.477  0.4843 -2.3276  0.8464
  153MOL    H7030774   6.492   3.116   6.512  0.2262  3.4081 -1.3735
  153MOL    H7130775   6.649   3.077   6.590 -0.1261 -0.9208 -0.2925
  153MOL    C7230776   6.625   2.959   6.419  0.4159  0.1028  0.3168
  153MOL    C7330777   6.776   2.932   6.387  0.4012  0.1818  0.9120
  153MOL    C7430778   6.828   2.923   6.262  0.3700  0.3669  0.4200
  153MOL    C7530779   6.973   2.895   6.226  0.2234 -0.4068 -0.1027
  153MOL    H7630780   6.592   2.874   6.479 -0.3559 -1.3935 -2.1644
  153MOL    H7730781   6.561   2.955   6.330 -1.3493 -0.0436  1.5573
  153MOL    H7830782   6.847   2.918   6.468  1.6419 -0.5905 -0.2924
  153MOL    H7930783   6.758   2.931   6.180  0.1744 -0.9394  0.4388
  153MOL    H8030784   7.018   2.841   6.309  1.0361 -0.5462 -0.6255
  153MOL    H8130785   7.024   2.991   6.214  1.1692 -1.1197 -2.2375
  153MOL    C8230786   6.985   2.805   6.099 -0.2178 -0.3436 -0.0585
  153MOL    C8330787   7.125   2.764   6.070  0.8610  0.3340 -0.4802
  153MOL    C8430788   7.181   2.752   5.948 -0.8758 -0.5428 -0.1854
  153MOL    C8530789   7.327   2.729   5.940 -0.3597  0.1013 -0.2887
  153MOL    H8630790   6.930   2.715   6.126 -1.4384  0.1208 -0.9867
  153MOL    H8730791   6.935   2.845   6.011  0.7808  0.2990 -0.3503
  153MOL    H8830792   7.186   2.754   6.158  0.3628 -0.0162 -0.1719
  153MOL    H8930793   7.124   2.771   5.859 -0.7207  3.4856  0.4730
  153MOL    H9030794   7.353   2.699   6.041 -0.3027 -2.7090 -1.0991
  153MOL    H9130795   7.378   2.820   5.908  0.2082  0.0809  0.5672
  153MOL    C9230796   7.362   2.627   5.831  0.1281  0.1669  0.0641
  153MOL    C9330797   7.515   2.607   5.825  0.0390  0.4020 -0.8090
  153MOL    C9430798   7.581   2.494   5.847 -0.2308 -0.1802 -0.3350
  153MOL    C9530799   7.732   2.478   5.847 -0.4881 -0.0940 -1.0923
  153MOL    H9630800   7.315   2.529   5.838 -0.0225  0.3105  1.2417
  153MOL    H9730801   7.329   2.661   5.733  0.9049  2.2191  0.4840
  153MOL    H9830802   7.575   2.695   5.814  0.4419  0.1347 -0.7717
  153MOL    H9930803   7.527   2.403   5.867 -0.9418  0.1369 -0.7997
  153MOL   H10030804   7.765   2.412   5.927  1.6794  3.9434  1.5081
  153MOL   H10130805   7.766   2.573   5.888 -1.4430 -0.0291 -0.4212
  153MOL   C10230806   7.788   2.458   5.705  0.1942  0.0232 -0.1293
  153MOL   C10330807   7.752   2.318   5.655  0.5789  0.5859  0.2778
  153MOL   C10430808   7.687   2.296   5.536  0.0592 -1.0627 -0.0952
  153MOL   C10530809   7.652   2.165   5.470 -0.1236  0.3643  0.0964
  153MOL   H10630810   7.749   2.535   5.638 -0.8106 -0.4292 -0.0784
  153MOL   H10730811   7.897   2.457   5.701  0.2288  1.0636  0.6293
  153MOL   H10830812   7.781   2.237   5.721  1.4463  1.0015  0.4096
  153MOL   H10930813   7.659   2.385   5.482 -1.9602 -2.0036 -0.6209
  153MOL   H11030814   7.544   2.152   5.458 -0.1838  1.0943 -0.2524
  153MOL   H11130815   7.684   2.085   5.535  1.9039  1.4617  0.4936
  153MOL   C11230816   7.720   2.146   5.335 -0.0366 -0.5885 -0.1120
  153MOL   C11330817   7.643   2.215   5.216 -0.2316 -0.5073  0.0922
  153MOL   C11430818   7.530   2.287   5.223  0.2241  0.1405 -0.0551
  153MOL   C11530819   7.471   2.351   5.103 -0.8939 -0.1486 -0.0372
  153MOL   H11630820   7.819   2.191   5.328 -1.1324  1.8987 -0.1751
  153MOL   H11730821   7.729   2.041   5.308 -2.7761 -0.6161 -1.1408
  153MOL   H11830822   7.679   2.216   5.114 -0.9768  1.4276 -0.1674
  153MOL   H11930823   7.473   2.310   5.312  0.5793  0.8726 -0.0147
  153MOL   H12030824   7.363   2.338   5.100 -0.9038  0.1440 -1.0040
  153MOL   H12130825   7.517   2.303   5.017  0.8319 -1.3869  1.5293
  153MOL   C12230826   7.496   2.505   5.111 -0.3018 -0.1271 -0.1536
  153MOL   C12330827   7.391   2.574   5.204  0.4498 -0.4654  0.6302
  153MOL   C12430828   7.424   2.663   5.296 -0.2699 -1.0026 -0.6431
  153MOL   C12530829   7.324   2.731   5.389 -0.6636 -0.5405 -0.2369
  153MOL   H12630830   7.593   2.542   5.142 -0.6205 -0.4107  1.2220
  153MOL   H12730831   7.481   2.538   5.008 -0.1628  2.2101  0.5318
  153MOL   H12830832   7.285   2.563   5.185  0.1589 -1.0685  2.4835
  153MOL   H12930833   7.528   2.686   5.313  0.3498 -3.2280 -1.2161
  153MOL   H13030834   7.346   2.693   5.489 -2.9851  0.2278  0.5858
  153MOL   H13130835   7.224   2.719   5.347 -1.6046 -0.0159  1.7904
  153MOL   C13230836   7.364   2.877   5.393 -0.5920  0.5431  0.7710
  153MOL   C13330837   7.251   2.966   5.440 -0.1127 -0.2290  0.6837
  153MOL   C13430838   7.172   2.943   5.545 -0.2640  0.7994  0.4189
  153MOL   C13530839   7.075   3.044   5.603  0.4630  0.0447 -0.1439
  153MOL   H13630840   7.455   2.905   5.445  0.4150  0.5866 -1.0205
  153MOL   H13730841   7.383   2.924   5.297  0.8391  0.4121  0.9916
  153MOL   H13830842   7.239   3.056   5.382 -2.1723 -0.4885  0.7017
  153MOL   H13930843   7.172   2.852   5.604  2.3662  0.5130  0.0343
  153MOL   H14030844   7.075   3.130   5.536  1.3320 -0.2082 -0.4861
  153MOL   H14130845   7.106   3.066   5.705  0.0600  1.1897 -0.2604
  153MOL   C14230846   6.931   2.989   5.614  0.4645 -0.3872 -0.9537
  153MOL   C14330847   6.912   2.878   5.712  0.2149 -0.3996  0.3956
  153MOL   C14430848   6.851   2.764   5.676  0.1384  1.0308 -0.0675
  153MOL   C14530849   6.829   2.646   5.768  0.4378  0.3289 -0.2621
  153MOL   H14630850   6.869   3.071   5.649 -1.7365 -2.9620  1.4504
  153MOL   H14730851   6.891   2.963   5.516  1.9483  0.5564 -1.8183
  153MOL   H14830852   6.947   2.897   5.812 -0.6509  0.5509  0.5250
  153MOL   H14930853   6.819   2.748   5.574  1.2593 -0.9849 -0.1323
  153MOL   H15030854   6.721   2.637   5.782  0.1808  2.8276 -0.4332
  153MOL   H15130855   6.860   2.670   5.870 -0.2588 -0.9876  0.2783
  153MOL   C15230856   6.900   2.524   5.715  0.0717 -0.2467 -1.0458
  153MOL   C15330857   6.916   2.419   5.823  0.1141 -0.0053  0.3857
  153MOL   C15430858   7.025   2.338   5.844  0.4216  0.2211  0.3094
  153MOL   C15530859   7.034   2.238   5.960 -0.3839 -0.3719  0.9403
  153MOL   H15630860   6.844   2.499   5.625  0.0301 -1.2807 -0.7320
  153MOL   H15730861   7.001   2.555   5.687 -0.2103 -0.8593 -2.7925
  153MOL   H15830862   6.825   2.405   5.880 -0.2556 -0.7152 -0.3519
  153MOL   H15930863   7.121   2.351   5.797 -0.0636  3.1187  0.0223
  153MOL   H16030864   7.079   2.143   5.932  1.2926  0.2811  1.3218
  153MOL   H16130865   6.936   2.205   5.992 -1.5949  0.6444 -1.5383
  153MOL   C16230866   7.128   2.287   6.066  0.0423 -0.5596  0.7650
  153MOL   C16330867   7.078   2.401   6.155 -0.3606  0.3233  0.7592
  153MOL   C16430868   6.998   2.392   6.261  0.2307 -0.0103 -0.1720
  153MOL   C16530869   6.955   2.513   6.335 -0.3804 -0.5121  0.8580
  153MOL   H16630870   7.152   2.203   6.132  0.2371  0.5409  2.1124
  153MOL   H16730871   7.227   2.301   6.025  0.0377  1.0802  1.2762
  153MOL   H16830872   7.094   2.500   6.114 -0.3911 -0.0338 -0.1216
  153MOL   H16930873   6.967   2.294   6.295 -0.6659  0.4187  0.2593
  153MOL   H17030874   6.848   2.525   6.318 -0.2324 -0.0995  0.2241
  153MOL   H17130875   6.992   2.602   6.286 -0.1462 -0.9149  0.2935
  153MOL   C17230876   6.993   2.510   6.485 -1.0406  0.8897  0.2418
  153MOL   C17330877   7.141   2.542   6.508  0.0206 -0.5105 -0.5181
  153MOL   C17430878   7.170   2.645   6.593  0.1266  0.1301  0.4631
  153MOL   C17530879   7.307   2.690   6.634 -0.9435  0.4337 -0.6671
  153MOL   H17630880   6.930   2.581   6.538  1.1982  1.0707  2.7824
  153MOL   H17730881   6.957   2.413   6.517 -0.4913  0.4027 -0.5901
  153MOL   H17830882   7.210   2.477   6.458 -2.0462 -2.3922 -1.0230
  153MOL   H17930883   7.082   2.689   6.638  0.6523  0.8056  0.8422
  153MOL   H18030884   7.376   2.617   6.590  0.0980  2.2800 -2.1909
  153MOL   H18130885   7.305   2.681   6.743 -1.4259  0.4956 -0.6717
  153MOL   C18230886   7.340   2.834   6.611  0.0080  0.2887 -0.6006
  153MOL   C18330887   7.230   2.936   6.665 -0.4617 -0.4432 -0.0063
  153MOL   C18430888   7.144   3.005   6.591  0.2217 -0.2922  1.2870
  153MOL   C18530889   7.036   3.097   6.632  0.5453  0.2087 -1.4354
  153MOL   H18630890   7.433   2.878   6.646 -1.0732 -1.0920  4.3448
  153MOL   H18730891   7.351   2.852   6.504  1.6307 -2.2315 -0.9208
  153MOL   H18830892   7.225   2.958   6.770 -1.1938  2.6737 -0.6439
  153MOL   H18930893   7.154   2.977   6.487  2.9742  0.1928  1.3840
  153MOL   H19030894   6.939   3.071   6.591 -1.0227  0.4560  1.9426
  153MOL   H19130895   7.052   3.200   6.599 -0.3927  0.3892 -1.3173
  153MOL   C19230896   7.016   3.104   6.787 -0.7046 -0.1269 -0.0500
  153MOL   C19330897   6.885   3.178   6.824 -0.3802 -0.0572  0.0752
  153MOL   C19430898   6.789   3.130   6.903 -0.3792  0.3376 -0.2191
  153MOL   C19530899   6.668   3.218   6.945  0.2111  0.8204 -0.6159
  153MOL   H19630900   7.012   3.003   6.828  1.6596  0.1217  0.8900
  153MOL   H19730901   7.106   3.152   6.827  0.0093 -0.6903 -0.9642
  153MOL   H19830902   6.867   3.279   6.788 -4.3782  0.1531  2.3475
  153MOL   H19930903   6.797   3.033   6.949  1.8682 -0.1809 -1.6150
  153MOL   H20030904   6.664   3.214   7.054  0.2307  1.1643 -0.6025
  153MOL   H20130905   6.581   3.162   6.911 -0.4974  2.3236 -1.3406
  153MOL   H20230906   6.659   3.315   6.897 -1.6800  0.0994 -1.7965
  154MOL     C130907   5.215   6.770   0.388  0.0168  0.1176 -0.4179
  154MOL     C230908   5.219   6.886   0.294 -0.3612  0.1020  0.3176
  154MOL     C330909   5.114   6.926   0.219 -0.1052 -0.1091  0.1586
  154MOL     C430910   5.109   7.042   0.116  0.1598  0.1981 -0.9460
  154MOL     H530911   5.276   6.692   0.342 -0.4456  0.6960 -2.0468
  154MOL     H630912   5.117   6.723   0.394  0.4266 -0.5485  1.3126
  154MOL     H730913   5.314   6.937   0.290 -1.2741  2.0960  2.5078
  154MOL     H830914   5.022   6.872   0.235  0.6765 -1.5953 -0.2628
  154MOL     H930915   5.105   6.994   0.018 -1.1690 -1.6493 -0.0176
  154MOL    H1030916   5.199   7.102   0.117  0.5898 -0.4217 -1.6625
  154MOL    H1130917   5.250   6.782   0.491 -0.2340 -0.8486 -0.2071
  154MOL    C1230918   4.989   7.126   0.139  0.2755  0.0266 -0.1946
  154MOL    C1330919   4.986   7.258   0.066  0.3240 -0.0180 -0.1358
  154MOL    C1430920   4.915   7.282   7.931 -0.3478 -0.1615  0.5847
  154MOL    C1530921   4.902   7.410   7.861  0.1662 -0.0850  0.0551
  154MOL    H1630922   4.903   7.065   0.112 -1.0630  2.1819 -0.9175
  154MOL    H1730923   4.985   7.144   0.247  3.1316  1.6280 -0.3020
  154MOL    H1830924   5.050   7.334   0.108  2.2298 -1.4776 -0.3263
  154MOL    H1930925   4.842   7.210   7.899  0.3058 -1.1521  1.2898
  154MOL    H2030926   4.965   7.491   7.898  0.7043 -0.1122 -0.8022
  154MOL    H2130927   4.795   7.431   7.860 -0.0042 -0.8460  0.8659
  154MOL    C2230928   4.932   7.386   7.713  0.3218  0.3877 -0.5309
  154MOL    C2330929   4.847   7.466   7.616  0.2424  0.0427  0.1127
  154MOL    C2430930   4.887   7.513   7.495  0.2184  0.0378 -0.0256
  154MOL    C2530931   4.800   7.568   7.389 -0.0594 -0.0056  0.0369
  154MOL    H2630932   5.037   7.383   7.687  0.0283  1.6300 -1.9568
  154MOL    H2730933   4.906   7.282   7.696  1.9721  0.0089 -0.7618
  154MOL    H2830934   4.741   7.472   7.637 -0.1811 -1.2277 -1.5639
  154MOL    H2930935   4.992   7.506   7.474  0.4647  0.7238  0.9380
  154MOL    H3030936   4.698   7.570   7.428 -0.3746 -0.0194 -0.7714
  154MOL    H3130937   4.803   7.501   7.302 -1.9439  0.4575 -0.4120
  154MOL    C3230938   4.846   7.707   7.341 -0.1588  0.0304  0.8864
  154MOL    C3330939   4.759   7.752   7.223  0.2692  0.5119  0.8499
  154MOL    C3430940   4.810   7.807   7.111 -0.1036  0.4887 -0.5024
  154MOL    C3530941   4.724   7.873   7.003 -0.1588  0.9090  0.2661
  154MOL    H3630942   4.835   7.774   7.426 -0.0927 -0.4938  1.3093
  154MOL    H3730943   4.950   7.698   7.309 -0.7924 -4.1734 -0.2982
  154MOL    H3830944   4.652   7.744   7.235  0.1209 -2.1427 -1.5655
  154MOL    H3930945   4.916   7.796   7.094 -0.4092 -0.4666 -1.8402
  154MOL    H4030946   4.766   7.973   6.992 -1.1145  1.2161 -0.6590
  154MOL    H4130947   4.622   7.883   7.038  0.3229  0.4043  1.8595
  154MOL    C4230948   4.722   7.803   6.872  0.4104 -0.6509  0.7641
  154MOL    C4330949   4.869   7.802   6.822 -0.1168 -0.4065 -0.3275
  154MOL    C4430950   4.946   7.689   6.818  0.7691  0.4065  0.2340
  154MOL    C4530951   5.083   7.674   6.752 -0.0130 -0.5000 -0.2664
  154MOL    H4630952   4.685   7.701   6.880 -2.0909 -0.0274 -2.0885
  154MOL    H4730953   4.653   7.839   6.797  0.2703 -1.4740  0.4952
  154MOL    H4830954   4.912   7.887   6.772  0.8920 -1.4499 -1.2721
  154MOL    H4930955   4.915   7.598   6.867  3.1359 -0.5973 -0.0273
  154MOL    H5030956   5.084   7.723   6.655 -2.2073  1.4248  0.6219
  154MOL    H5130957   5.104   7.568   6.735 -0.1501 -0.1392 -2.8678
  154MOL    C5230958   5.190   7.733   6.853 -0.1426  0.0023 -0.2026
  154MOL    C5330959   5.330   7.743   6.796  0.1029 -0.4662 -0.1269
  154MOL    C5430960   5.411   7.855   6.811  0.0878 -0.5744  0.6022
  154MOL    C5530961   5.559   7.854   6.766 -0.1545  0.0887  0.0932
  154MOL    H5630962   5.166   7.836   6.879 -1.0967 -0.3626  0.3828
  154MOL    H5730963   5.204   7.679   6.946  0.8697  0.8104  0.1249
  154MOL    H5830964   5.371   7.646   6.774 -2.5668 -1.4781 -0.8386
  154MOL    H5930965   5.364   7.944   6.850  0.1758  0.1108 -0.8245
  154MOL    H6030966   5.590   7.749   6.759 -0.8270 -0.1301  0.3100
  154MOL    H6130967   5.623   7.895   6.844 -1.6208 -0.5813  1.6846
  154MOL    C6230968   5.579   7.924   6.631  0.2554  0.1801 -0.2925
  154MOL    C6330969   5.708   7.909   6.558 -0.3493  0.0137 -0.4018
  154MOL    C6430970   5.804   0.026   6.560 -0.3933 -0.1602  0.6388
  154MOL    C6530971   5.950   0.003   6.514 -0.1266 -0.4812 -0.1207
  154MOL    H6630972   5.505   7.880   6.563 -0.7570  0.3102  0.7013
  154MOL    H6730973   5.559   0.054   6.645 -0.0002 -0.0643  1.2108
  154MOL    H6830974   5.729   7.805   6.537 -2.0561 -0.4713  0.2352
  154MOL    H6930975   5.782   0.120   6.608 -0.8249 -0.1477  0.4133
  154MOL    H7030976   5.973   0.048   6.417 -3.5413  0.2707 -0.6403
  154MOL    H7130977   5.963   7.873   6.499  0.9305 -0.4191  0.3213
  154MOL    C7230978   6.055   0.048   6.615  0.8358 -0.2222  0.8466
  154MOL    C7330979   6.197   0.002   6.578  0.1950 -0.4142 -0.6773
  154MOL    C7430980   6.256   7.866   6.624  0.1921  0.4087  0.2550
  154MOL    C7530981   6.390   7.824   6.577 -0.5312 -0.2695 -0.5650
  154MOL    H7630982   6.052   0.156   6.631  0.8045 -0.1091  0.1138
  154MOL    H7730983   6.038   0.002   6.712  1.0333 -2.1178  0.0166
  154MOL    H7830984   6.249   0.057   6.501 -2.6068  1.0511 -1.5945
  154MOL    H7930985   6.211   7.811   6.706 -0.7225 -0.8054 -1.0355
  154MOL    H8030986   6.396   7.844   6.470  2.2170 -2.6536 -0.9247
  154MOL    H8130987   6.419   7.721   6.600  2.3696  1.1207  2.4786
  154MOL    C8230988   6.498   7.918   6.634 -0.4585 -0.1254  0.2194
  154MOL    C8330989   6.622   7.936   6.545 -0.9382 -0.3883  0.3539
  154MOL    C8430990   6.721   7.845   6.530  0.7349 -0.7582  0.1402
  154MOL    C8530991   6.841   7.873   6.438 -0.0825 -1.1805 -0.5367
  154MOL    H8630992   6.468   0.043   6.659 -0.8328 -0.3462  0.6941
  154MOL    H8730993   6.532   7.878   6.729 -0.6278 -0.0191  0.3242
  154MOL    H8830994   6.633   0.053   6.491 -1.0562 -0.7076 -0.2266
  154MOL    H8930995   6.725   7.753   6.588  1.9128 -0.4488  0.5699
  154MOL    H9030996   6.830   7.974   6.397 -1.7073 -1.1102  0.0198
  154MOL    H9130997   6.834   7.797   6.361 -0.5338 -0.4340 -1.2383
  154MOL    C9230998   6.967   7.850   6.523 -0.1559  0.8377  0.5491
  154MOL    C9330999   7.098   7.841   6.441 -0.2122  0.3199  0.1450
  154MOL    C9431000   7.177   7.733   6.444  0.6325  0.6040  0.1488
  154MOL    C9531001   7.316   7.710   6.389 -0.5999 -0.2291 -0.0564
  154MOL    H9631002   6.976   7.931   6.596  0.2525  1.6044 -0.3338
  154MOL    H9731003   6.953   7.761   6.583  1.2847  0.7771  0.8183
  154MOL    H9831004   7.139   7.936   6.411  1.1532  0.3578  2.0899
  154MOL    H9931005   7.137   7.644   6.490  2.7789  0.2960  1.5308
  154MOL   H10031006   7.355   7.798   6.337 -1.7033  0.9083  1.0086
  154MOL   H10131007   7.315   7.626   6.319 -0.5616 -1.6747  1.6498
  154MOL   C10231008   7.430   7.670   6.486  0.3391 -0.3401  0.0155
  154MOL   C10331009   7.563   7.690   6.427 -0.2664  0.2906  0.8601
  154MOL   C10431010   7.650   7.587   6.407  0.4421  0.1481  0.6545
  154MOL   C10531011   7.789   7.603   6.352 -0.0190 -0.2429 -0.7335
  154MOL   H10631012   7.421   7.731   6.576 -0.5355 -0.9078  0.3203
  154MOL   H10731013   7.428   7.567   6.522 -1.9405 -0.4166 -0.2860
  154MOL   H10831014   7.595   7.791   6.407  0.1225  0.3747  1.8877
  154MOL   H10931015   7.614   7.488   6.430 -0.6845  0.5271  0.5732
  154MOL   H11031016   7.827   7.704   6.346 -0.8604  0.4055  3.3512
  154MOL   H11131017   7.800   7.559   6.253 -1.8855  1.6565 -1.8305
  154MOL   C11231018   7.885   7.514   6.439  0.7212  0.9147 -0.2621
  154MOL   C11331019   7.858   7.363   6.443 -0.2016  0.3059  0.0615
  154MOL   C11431020   7.939   7.274   6.384 -0.0425 -0.3654 -0.8067
  154MOL   C11531021   7.916   7.130   6.367  0.3113 -0.5440 -1.3714
  154MOL   H11631022   0.007   7.537   6.398  1.4351 -1.0672  0.2955
  154MOL   H11731023   7.886   7.535   6.546  0.4232  0.0521 -0.0924
  154MOL   H11831024   7.759   7.339   6.481 -0.3043  0.7505  0.0727
  154MOL   H11931025   0.059   7.314   6.360 -1.1405  1.2920 -2.6308
  154MOL   H12031026   7.977   7.075   6.439  0.4949  1.7119  0.2416
  154MOL   H12131027   7.939   7.109   6.263  1.8235 -2.5603 -0.6566
  154MOL   C12231028   7.773   7.083   6.386 -0.4365 -0.0807  0.0285
  154MOL   C12331029   7.751   6.944   6.324  0.1757  0.0899  0.8477
  154MOL   C12431030   7.661   6.916   6.232 -0.0026  0.4609  0.4152
  154MOL   C12531031   7.640   6.778   6.175  0.1767  0.1886 -0.6011
  154MOL   H12631032   7.759   7.080   6.494 -0.2564  0.7397  0.0730
  154MOL   H12731033   7.707   7.156   6.339 -0.7677 -0.2662  0.2051
  154MOL   H12831034   7.809   6.868   6.373  1.6553  1.1108  0.7389
  154MOL   H12931035   7.598   6.997   6.199 -0.0820  0.9964  1.8384
  154MOL   H13031036   7.552   6.733   6.221  0.6286 -0.1538 -0.0706
  154MOL   H13131037   7.719   6.711   6.207 -0.2041 -0.2901 -0.6585
  154MOL   C13231038   7.642   6.759   6.024  0.5864  0.4703  1.0040
  154MOL   C13331039   7.502   6.788   5.963  0.5634  0.0625 -0.1172
  154MOL   C13431040   7.417   6.692   5.925 -0.5489  0.6029  0.7413
  154MOL   C13531041   7.286   6.717   5.848 -0.1859 -0.0992 -0.1017
  154MOL   H13631042   7.713   6.828   5.977 -0.0416  0.6936  0.3700
  154MOL   H13731043   7.676   6.659   5.995 -4.4260 -1.3246  0.8499
  154MOL   H13831044   7.479   6.892   5.945  0.8973  0.4440  1.5655
  154MOL   H13931045   7.466   6.597   5.940 -1.6197 -0.2477 -0.9753
  154MOL   H14031046   7.246   6.817   5.859 -1.9544 -0.8712  0.7724
  154MOL   H14131047   7.214   6.653   5.899 -1.6080 -0.1016 -2.0417
  154MOL   C14231048   7.309   6.687   5.698  0.5779  0.1163  0.0995
  154MOL   C14331049   7.176   6.711   5.632 -0.3857  0.3527 -0.1831
  154MOL   C14431050   7.158   6.788   5.522 -0.8617 -0.1942 -0.2093
  154MOL   C14531051   7.021   6.815   5.458 -0.2573 -0.6281 -0.4827
  154MOL   H14631052   7.384   6.756   5.657  1.7543 -1.7244 -0.9098
  154MOL   H14731053   7.340   6.587   5.670  0.9987  1.2482 -3.8881
  154MOL   H14831054   7.097   6.658   5.683  2.0418 -2.1134  1.1570
  154MOL   H14931055   7.243   6.836   5.477 -0.7369  0.5711  0.8287
  154MOL   H15031056   6.952   6.732   5.476 -0.6603  0.4474  3.3399
  154MOL   H15131057   7.038   6.821   5.350  0.8620 -0.1282 -0.2805
  154MOL   C15231058   6.966   6.935   5.536 -0.2177  0.9477  0.5963
  154MOL   C15331059   6.847   6.991   5.459 -0.1174 -0.0864 -0.2188
  154MOL   C15431060   6.780   6.939   5.355 -0.2573  0.4730  0.8804
  154MOL   C15531061   6.657   7.016   5.295 -0.5642 -0.2662  0.1870
  154MOL   H15631062   6.929   6.920   5.638  0.3111  0.2213  0.6847
  154MOL   H15731063   7.046   7.008   5.541  0.7756 -0.2520  3.6945
  154MOL   H15831064   6.808   7.080   5.505  2.9934  1.0191  0.4163
  154MOL   H15931065   6.798   6.842   5.311 -0.6411  0.8673 -0.1489
  154MOL   H16031066   6.689   7.045   5.196 -2.9971 -1.4359 -0.9997
  154MOL   H16131067   6.638   7.112   5.344  0.2252  0.0823 -0.1884
  154MOL   C16231068   6.529   6.932   5.286  0.1603  0.6031 -0.8652
  154MOL   C16331069   6.480   6.876   5.427 -0.8892 -0.2904  0.1706
  154MOL   C16431070   6.366   6.903   5.489  0.1348 -0.2660 -0.6229
  154MOL   C16531071   6.329   6.856   5.627  0.1414  0.1062  0.2915
  154MOL   H16631072   6.460   7.000   5.238 -1.5545  0.4857  1.3481
  154MOL   H16731073   6.535   6.842   5.225 -1.6922  2.1697 -3.4391
  154MOL   H16831074   6.552   6.813   5.477 -0.8885 -2.5122 -2.5339
  154MOL   H16931075   6.294   6.962   5.434  0.8395 -0.0037 -1.2772
  154MOL   H17031076   6.335   6.934   5.704 -1.1725  0.7405 -0.2231
  154MOL   H17131077   6.410   6.801   5.674 -0.0354  0.2677  0.7952
  154MOL   C17231078   6.190   6.802   5.638 -0.3989 -0.2266  0.0471
  154MOL   C17331079   6.074   6.905   5.619  0.0238 -0.3419  0.0684
  154MOL   C17431080   5.987   6.943   5.714 -0.7199 -0.1976 -0.2956
  154MOL   C17531081   5.879   7.042   5.679  0.3168  0.0043  0.2541
  154MOL   H17631082   6.174   6.730   5.558  1.4089 -0.8930  0.2530
  154MOL   H17731083   6.189   6.743   5.730  1.8154 -1.1624 -0.4958
  154MOL   H17831084   6.062   6.944   5.519  2.1109  2.5981  0.9016
  154MOL   H17931085   6.008   6.924   5.818 -0.0755  2.2675  0.0689
  154MOL   H18031086   5.876   7.042   5.570 -1.4402  0.4019  0.2852
  154MOL   H18131087   5.905   7.144   5.710  0.3562  0.5048 -1.3700
  154MOL   C18231088   5.736   7.002   5.728  1.1223  0.4946  0.1235
  154MOL   C18331089   5.633   7.105   5.680  0.2992 -0.4013 -0.0669
  154MOL   C18431090   5.525   7.089   5.599  0.5563 -0.3697  0.1869
  154MOL   C18531091   5.446   7.203   5.549  0.3916 -0.0978 -0.2414
  154MOL   H18631092   5.704   6.904   5.693 -0.0477  0.1687  2.0504
  154MOL   H18731093   5.726   7.000   5.837 -0.2124 -0.5082 -0.0076
  154MOL   H18831094   5.669   7.205   5.698  2.9159 -1.3979  0.4598
  154MOL   H18931095   5.491   6.989   5.577 -0.0098  0.0974 -1.0913
  154MOL   H19031096   5.454   7.187   5.442 -0.4805  0.2989 -0.3689
  154MOL   H19131097   5.491   7.298   5.580 -0.2870  0.2565 -0.3436
  154MOL   C19231098   5.297   7.180   5.590  0.0135 -0.2878  0.3379
  154MOL   C19331099   5.207   7.304   5.543  0.4181  0.0789  0.6169
  154MOL   C19431100   5.160   7.397   5.625 -0.1621  0.1428 -0.1406
  154MOL   C19531101   5.068   7.502   5.569 -0.1958 -0.3545  0.3156
  154MOL   H19631102   5.258   7.087   5.550 -0.4167  0.3098 -0.6550
  154MOL   H19731103   5.294   7.181   5.699 -1.9584 -0.5003  0.3046
  154MOL   H19831104   5.176   7.291   5.440 -0.1021  0.7234  0.6909
  154MOL   H19931105   5.183   7.386   5.730 -0.6143  0.3631 -0.0177
  154MOL   H20031106   4.998   7.527   5.649  1.3067  0.0576  1.5149
  154MOL   H20131107   5.005   7.461   5.491 -2.3548  0.2860  1.6748
  154MOL   H20231108   5.116   7.595   5.536 -1.3767  0.6164  1.2674
  155MOL     C131109   5.917   5.822   7.589  0.0259 -0.7016 -0.9363
  155MOL     C231110   6.016   5.912   7.667 -0.8745 -0.3066  0.8496
  155MOL     C331111   6.071   6.027   7.617  0.0403  0.0209  0.4674
  155MOL     C431112   6.181   6.108   7.692 -0.7312 -0.0115  0.4410
  155MOL     H531113   5.844   5.783   7.661 -0.8083  2.1859 -0.1467
  155MOL     H631114   5.958   5.732   7.544  0.3962 -0.9214 -0.1660
  155MOL     H731115   6.049   5.881   7.765 -0.0358  1.0889  1.0264
  155MOL     H831116   6.046   6.047   7.514  2.9943  0.2332 -0.2376
  155MOL     H931117   6.201   6.071   7.792 -3.1421  0.2458  1.0418
  155MOL    H1031118   6.148   6.212   7.700 -0.9417  0.1908 -2.3498
  155MOL    H1131119   5.869   5.887   7.516  0.6945  0.1348 -0.6323
  155MOL    C1231120   6.303   6.101   7.599 -0.2762  0.2060 -0.0906
  155MOL    C1331121   6.419   6.180   7.662  0.5246 -0.0739  0.9416
  155MOL    C1431122   6.530   6.120   7.715  0.1307  0.5935  0.4479
  155MOL    C1531123   6.647   6.180   7.792 -0.1569 -0.1102 -0.8882
  155MOL    H1631124   6.332   5.996   7.600  0.7660  0.4848 -0.4258
  155MOL    H1731125   6.288   6.131   7.495 -1.2421 -1.3630 -0.4152
  155MOL    H1831126   6.396   6.285   7.664 -2.0736 -0.5212 -1.6466
  155MOL    H1931127   6.538   6.014   7.693 -1.1394  0.4358  0.7082
  155MOL    H2031128   6.622   6.152   7.895 -1.9933  2.2501 -0.6338
  155MOL    H2131129   6.649   6.289   7.796 -1.9855 -0.0253 -1.9016
  155MOL    C2231130   6.782   6.110   7.751  0.5103  0.1403 -0.6128
  155MOL    C2331131   6.887   6.133   7.852 -0.1060  0.3543  0.5403
  155MOL    C2431132   6.994   6.211   7.830  0.2470  0.2319 -0.0662
  155MOL    C2531133   7.101   6.243   7.941  0.0892  0.0603  0.2198
  155MOL    H2631134   6.766   6.005   7.727  1.3214  0.6322 -3.4973
  155MOL    H2731135   6.813   6.158   7.658  0.3550 -0.5664 -1.0298
  155MOL    H2831136   6.885   6.089   7.951 -0.2853 -2.2925 -0.6146
  155MOL    H2931137   7.003   6.257   7.733 -1.1923 -0.0485 -0.3433
  155MOL    H3031138   7.190   6.189   7.912 -0.3239 -0.4140 -0.1710
  155MOL    H3131139   7.073   6.201   0.060 -0.1823  1.9393  0.9979
  155MOL    C3231140   7.123   6.396   7.976 -0.3927 -0.2003 -1.5015
  155MOL    C3331141   6.994   6.465   0.041  0.3313  0.0768 -0.1781
  155MOL    C3431142   6.874   6.416   0.081 -0.0262  0.6121  1.6001
  155MOL    C3531143   6.748   6.490   0.103  0.3210 -0.0186  0.4559
  155MOL    H3631144   7.202   6.400   0.073 -1.0878 -0.5478 -0.7273
  155MOL    H3731145   7.145   6.462   7.893  0.6108  2.3592  0.7385
  155MOL    H3831146   7.002   6.573   0.040 -0.8030  0.1727  0.5096
  155MOL    H3931147   6.863   6.308   0.088 -0.6182  0.5563  0.0293
  155MOL    H4031148   6.672   6.431   0.051  3.2181 -0.4606 -3.5719
  155MOL    H4131149   6.748   6.578   0.038 -1.1156 -0.5922 -0.3468
  155MOL    C4231150   6.719   6.534   0.244  0.4879  0.0796 -1.6810
  155MOL    C4331151   6.599   6.619   0.264  0.1830  0.0738  0.0238
  155MOL    C4431152   6.501   6.597   0.352  0.8873  0.4860 -0.5041
  155MOL    C4531153   6.371   6.679   0.357  0.3861  0.2603 -0.5470
  155MOL    H4631154   6.698   6.443   0.299  1.8163 -0.6917 -2.4102
  155MOL    H4731155   6.800   6.584   0.298  1.5366 -1.3508 -1.8793
  155MOL    H4831156   6.604   6.705   0.200  0.0981 -1.9943 -2.8620
  155MOL    H4931157   6.508   6.512   0.418  0.4003 -1.2310 -2.6277
  155MOL    H5031158   6.291   6.610   0.383  1.7855 -0.3035  2.5666
  155MOL    H5131159   6.345   6.709   0.256 -2.7708  0.2267  0.1963
  155MOL    C5231160   6.378   6.803   0.450 -0.0076  0.4938  0.1925
  155MOL    C5331161   6.471   6.913   0.407 -0.2366 -0.1931  0.3981
  155MOL    C5431162   6.592   6.942   0.457  0.1119 -0.9593  0.2418
  155MOL    C5531163   6.675   7.060   0.397  0.5459  0.0102  0.3702
  155MOL    H5631164   6.276   6.837   0.466  0.4153  1.8753  0.0046
  155MOL    H5731165   6.413   6.775   0.550  0.9382  2.4476  0.4371
  155MOL    H5831166   6.429   6.972   0.327 -1.8630 -3.9595 -1.6594
  155MOL    H5931167   6.642   6.890   0.537  0.6651 -0.9732 -0.1034
  155MOL    H6031168   6.697   7.126   0.481 -0.8391 -0.8093  1.4185
  155MOL    H6131169   6.612   7.111   0.324  1.9620  2.4047  0.7747
  155MOL    C6231170   6.801   7.019   0.322  0.5903  0.1218 -0.6225
  155MOL    C6331171   6.905   6.956   0.418 -0.1389 -0.6325  0.5452
  155MOL    C6431172   7.038   6.963   0.405  0.0903 -0.5169 -0.5326
  155MOL    C6531173   7.134   6.899   0.499 -0.3837 -0.2939 -0.5728
  155MOL    H6631174   6.793   6.951   0.238  3.3782  0.5899 -1.3241
  155MOL    H6731175   6.859   7.100   0.277 -0.0426  1.7935  1.4747
  155MOL    H6831176   6.864   6.903   0.502  2.5151 -2.0482  0.9909
  155MOL    H6931177   7.076   7.006   0.314  1.0828  0.5123  0.3528
  155MOL    H7031178   7.102   6.905   0.604  2.2979 -1.1126  0.3172
  155MOL    H7131179   7.230   6.950   0.495  0.3761 -1.8006 -1.9805
  155MOL    C7231180   7.156   6.750   0.477 -0.2672 -0.0573 -0.7393
  155MOL    C7331181   7.270   6.686   0.557  0.6955 -0.5665 -0.0518
  155MOL    C7431182   7.360   6.606   0.502 -0.0194 -0.5018 -0.2907
  155MOL    C7531183   7.481   6.555   0.584  0.3231  0.4037 -0.3723
  155MOL    H7631184   7.067   6.690   0.497  1.0474 -1.6952  0.3591
  155MOL    H7731185   7.176   6.735   0.371 -1.5898  2.4784 -1.3971
  155MOL    H7831186   7.278   6.697   0.664  1.6229  4.3210 -0.5015
  155MOL    H7931187   7.361   6.574   0.399  1.0438  0.2205 -0.5148
  155MOL    H8031188   7.480   6.449   0.611  2.9563  0.7710  1.3149
  155MOL    H8131189   7.475   6.619   0.672  2.9171  0.0672  0.0834
  155MOL    C8231190   7.616   6.574   0.518  0.1425 -0.0750  0.5782
  155MOL    C8331191   7.722   6.556   0.626 -0.0496 -0.4196  0.4664
  155MOL    C8431192   7.844   6.618   0.626  0.2406 -0.3877  0.0124
  155MOL    C8531193   7.956   6.600   0.727  0.1738 -0.3087  0.3673
  155MOL    H8631194   7.619   6.498   0.440 -1.4299  0.2067  0.2191
  155MOL    H8731195   7.622   6.670   0.467 -1.2322 -0.4459 -0.2858
  155MOL    H8831196   7.684   6.488   0.701 -0.6509  0.2343  0.7668
  155MOL    H8931197   7.865   6.689   0.548 -1.5574  0.8273  0.6096
  155MOL    H9031198   0.065   6.574   0.665 -0.5954  2.5069 -2.0369
  155MOL    H9131199   7.932   6.517   0.793 -0.3191  0.3571  1.0286
  155MOL    C9231200   0.008   6.730   0.804 -0.1818  0.4798  0.2962
  155MOL    C9331201   7.872   6.751   0.905  0.3043  0.7519 -0.5136
  155MOL    C9431202   7.891   6.753   1.034  0.2089 -0.1811 -0.0894
  155MOL    C9531203   7.784   6.753   1.142 -0.2514 -0.0242  0.2184
  155MOL    H9631204   0.104   6.717   0.854  0.3104  0.6571 -0.5886
  155MOL    H9731205   0.033   6.811   0.735 -0.7854 -0.0431 -0.5523
  155MOL    H9831206   7.769   6.740   0.874 -0.2036 -0.8163  1.6413
  155MOL    H9931207   0.013   6.756   1.076 -0.2242 -3.3664  1.2867
  155MOL   H10031208   7.690   6.738   1.089 -0.3921  1.3240  0.0518
  155MOL   H10131209   7.772   6.854   1.182 -0.0903 -0.5484  1.6103
  155MOL   C10231210   7.810   6.659   1.255 -0.5747 -0.2696  0.3344
  155MOL   C10331211   7.696   6.654   1.352 -0.4814  0.5112 -0.0087
  155MOL   C10431212   7.619   6.547   1.376 -0.0564 -0.2309  0.2134
  155MOL   C10531213   7.518   6.547   1.484 -0.5940 -0.1872  0.7239
  155MOL   H10631214   7.824   6.558   1.216 -0.3624  0.1278 -0.6362
  155MOL   H10731215   7.906   6.680   1.303 -1.1222 -0.4281  1.5003
  155MOL   H10831216   7.699   6.743   1.412  1.2994 -0.7015  1.7471
  155MOL   H10931217   7.626   6.459   1.314 -1.5433  1.3875 -2.3326
  155MOL   H11031218   7.486   6.648   1.506 -0.7350  0.3990 -2.0230
  155MOL   H11131219   7.557   6.507   1.578  1.6094  0.7803  0.2413
  155MOL   C11231220   7.382   6.490   1.435 -0.0331 -0.4789 -0.5159
  155MOL   C11331221   7.287   6.448   1.540 -0.3387 -0.2971  0.1694
  155MOL   C11431222   7.255   6.318   1.573 -0.7921 -0.3815 -0.2497
  155MOL   C11531223   7.160   6.298   1.695  0.0496  0.3622  0.7761
  155MOL   H11631224   7.330   6.562   1.372  0.5801  1.0724  0.7304
  155MOL   H11731225   7.408   6.403   1.374 -0.1872  0.0051 -1.2905
  155MOL   H11831226   7.221   6.520   1.586 -2.6671 -0.9231 -2.0588
  155MOL   H11931227   7.288   6.239   1.508  0.5088 -1.5776  1.8300
  155MOL   H12031228   7.156   6.394   1.746 -2.0940  0.5936  0.2387
  155MOL   H12131229   7.201   6.223   1.763  0.1063  0.8650  1.2946
  155MOL   C12231230   7.017   6.265   1.663 -0.3787 -0.3130  0.9626
  155MOL   C12331231   6.935   6.264   1.794  0.9949 -0.0999  0.3310
  155MOL   C12431232   6.834   6.350   1.826  0.1125 -0.1029 -0.4134
  155MOL   C12531233   6.755   6.371   1.950 -0.0061  0.3180  0.4234
  155MOL   H12631234   6.972   6.332   1.590 -0.7690  0.8444  2.2435
  155MOL   H12731235   7.014   6.161   1.630 -1.0899 -0.4530  1.4352
  155MOL   H12831236   6.985   6.204   1.868  0.0974 -0.8502  0.3406
  155MOL   H12931237   6.798   6.417   1.750  0.4876 -1.8459 -2.1621
  155MOL   H13031238   6.801   6.316   2.033  0.9978 -0.8675 -0.8912
  155MOL   H13131239   6.652   6.336   1.946  0.1093 -0.0446  0.5758
  155MOL   C13231240   6.751   6.518   1.991 -0.7835  0.8032 -0.1355
  155MOL   C13331241   6.668   6.539   2.121  0.2408  0.3973 -0.4254
  155MOL   C13431242   6.716   6.577   2.243  0.2800  0.2243  0.0438
  155MOL   C13531243   6.628   6.594   2.361 -0.1389 -0.0183 -0.0221
  155MOL   H13631244   6.851   6.554   2.015 -0.5270 -1.6374  2.7621
  155MOL   H13731245   6.707   6.571   1.906 -4.5800 -0.8878  0.6690
  155MOL   H13831246   6.565   6.510   2.112 -0.2658  1.9022  0.2976
  155MOL   H13931247   6.821   6.601   2.253  0.2311  0.7019 -0.5289
  155MOL   H14031248   6.525   6.565   2.342 -0.4830  0.5606  0.9703
  155MOL   H14131249   6.633   6.701   2.382  2.0624 -0.4278  1.7194
  155MOL   C14231250   6.689   6.515   2.481 -0.1257 -0.0559  1.2076
  155MOL   C14331251   6.630   6.544   2.617 -0.3209 -0.8242  0.4770
  155MOL   C14431252   6.707   6.585   2.724 -0.2588  0.1611 -0.2354
  155MOL   C14531253   6.643   6.592   2.866 -0.2186  0.5029  0.0282
  155MOL   H14631254   6.690   6.407   2.471  0.5560 -0.0106  0.7880
  155MOL   H14731255   6.794   6.546   2.478 -0.3045  0.4859  0.2499
  155MOL   H14831256   6.526   6.515   2.629 -0.0367 -0.6045  3.9518
  155MOL   H14931257   6.814   6.600   2.716 -0.2585 -0.7427 -2.2435
  155MOL   H15031258   6.535   6.598   2.862 -0.2148  0.3873 -0.2850
  155MOL   H15131259   6.668   6.694   2.898  0.4465 -0.0620  1.3512
  155MOL   C15231260   6.696   6.489   2.971  0.8110 -0.3147  1.0827
  155MOL   C15331261   6.847   6.493   2.974  0.6049 -0.8922 -0.9499
  155MOL   C15431262   6.925   6.383   2.977  0.3948 -0.0662 -1.5082
  155MOL   C15531263   7.070   6.392   2.998  0.8958 -0.5537  0.3788
  155MOL   H15631264   6.660   6.527   3.067 -1.6457  0.6033 -0.1580
  155MOL   H15731265   6.669   6.386   2.949  2.6573 -0.3822 -0.9645
  155MOL   H15831266   6.890   6.589   2.999 -1.8275 -0.0962  0.4017
  155MOL   H15931267   6.886   6.282   2.970 -2.0504  0.5853  1.3790
  155MOL   H16031268   7.106   6.495   3.008  1.0893 -0.6134  0.3012
  155MOL   H16131269   7.109   6.350   2.905 -0.2433 -0.3347 -0.2063
  155MOL   C16231270   7.114   6.308   3.108 -0.0294  0.4795 -0.2897
  155MOL   C16331271   7.267   6.318   3.128 -0.0573  0.1421  0.3561
  155MOL   C16431272   7.320   6.348   3.246 -0.2810 -0.4338 -0.6937
  155MOL   C16531273   7.463   6.383   3.261  0.0101  0.3367  0.1486
  155MOL   H16631274   7.073   6.343   3.203 -1.0214 -0.4558 -0.3633
  155MOL   H16731275   7.083   6.205   3.091 -0.3837  0.3981  0.8009
  155MOL   H16831276   7.324   6.295   3.039  0.4442  2.9472 -0.0994
  155MOL   H16931277   7.262   6.360   3.336 -1.3178 -6.2524 -0.3981
  155MOL   H17031278   7.471   6.487   3.292  4.2964  0.0352  0.3460
  155MOL   H17131279   7.505   6.380   3.161  2.2040 -0.6636  1.0646
  155MOL   C17231280   7.523   6.290   3.360  0.4827  0.6830  0.2926
  155MOL   C17331281   7.668   6.326   3.373 -0.2095 -0.3689 -0.9975
  155MOL   C17431282   7.766   6.244   3.328 -0.0850  0.8178 -0.4585
  155MOL   C17531283   7.918   6.254   3.338 -1.0167 -0.7331  0.1069
  155MOL   H17631284   7.465   6.290   3.452 -0.1906 -0.3464 -0.1244
  155MOL   H17731285   7.510   6.186   3.330  0.3547  0.5461  0.8222
  155MOL   H17831286   7.699   6.408   3.437  0.5594 -0.1989 -1.5792
  155MOL   H17931287   7.739   6.152   3.279 -0.2232  0.6118  0.0002
  155MOL   H18031288   7.934   6.334   3.411  0.9632 -1.4715  0.5029
  155MOL   H18131289   7.963   6.283   3.244 -0.6089 -0.7876  0.2864
  155MOL   C18231290   0.010   6.140   3.410 -0.6284 -0.2366 -0.4365
  155MOL   C18331291   0.003   6.005   3.335 -0.0785 -0.1827 -0.0294
  155MOL   C18431292   0.106   5.934   3.293  0.2787 -0.4115  0.0437
  155MOL   C18531293   0.096   5.797   3.231  0.9488 -1.1282  0.2118
  155MOL   H18631294   0.114   6.169   3.428 -1.6529  3.1409  0.2964
  155MOL   H18731295   7.937   6.119   3.504  0.1172 -1.5270 -0.3192
  155MOL   H18831296   7.880   5.964   3.336  0.3698 -1.2781  1.9501
  155MOL   H18931297   0.206   5.974   3.305 -0.0124  0.0671  0.8761
  155MOL   H19031298   0.132   5.798   3.129  0.9204  0.0423  0.2020
  155MOL   H19131299   7.970   5.760   3.228  0.4176  0.3669 -0.5731
  155MOL   C19231300   0.171   5.698   3.322  0.3051 -0.1939  0.4126
  155MOL   C19331301   0.154   5.550   3.275  0.2301  0.0594  0.2799
  155MOL   C19431302   0.183   5.440   3.345  0.2672 -0.0863  0.3370
  155MOL   C19531303   0.163   5.297   3.310  0.1632 -0.2613  0.9575
  155MOL   H19631304   0.278   5.720   3.321  0.8600 -2.6552  0.9078
  155MOL   H19731305   0.135   5.695   3.425 -1.3534 -0.3988 -0.1650
  155MOL   H19831306   0.099   5.532   3.184 -1.2781 -0.5074  1.2910
  155MOL   H19931307   0.234   5.463   3.438 -1.0210  2.3017  0.4869
  155MOL   H20031308   0.110   5.247   3.391 -1.2093  1.0943  0.9164
  155MOL   H20131309   0.256   5.243   3.294  1.2218  0.8042  3.2643
  155MOL   H20231310   0.094   5.285   3.226  0.1813  0.9553  0.7617
  156MOL     C131311   7.199   3.536   0.905  0.0737 -0.0023  0.5977
  156MOL     C231312   7.225   3.685   0.897 -0.2234 -0.1085 -0.9390
  156MOL     C331313   7.189   3.763   1.003  0.2891 -0.1423  1.0015
  156MOL     C431314   7.221   3.914   1.013  1.2184  0.1464  1.3869
  156MOL     H531315   7.119   3.517   0.976  1.5919 -0.0877  2.3276
  156MOL     H631316   7.291   3.486   0.937  0.4609  1.3589  1.6981
  156MOL     H731317   7.280   3.710   0.808 -0.0880  2.9238 -0.0549
  156MOL     H831318   7.131   3.732   1.089  1.4215 -1.4930  1.3048
  156MOL     H931319   7.273   3.937   1.106 -0.1891  1.1693  1.9344
  156MOL    H1031320   7.122   3.953   1.035  0.7596 -0.8944  1.1823
  156MOL    H1131321   7.180   3.497   0.805 -1.2011  1.8748  0.0868
  156MOL    C1231322   7.299   3.978   0.898 -0.2573 -0.0664  0.6185
  156MOL    C1331323   7.222   3.979   0.766  0.5599 -0.4452 -0.0787
  156MOL    C1431324   7.279   3.993   0.643 -0.1304  0.4829 -0.6188
  156MOL    C1531325   7.195   3.977   0.517  0.7586  0.0088  0.2321
  156MOL    H1631326   7.314   4.083   0.921 -0.1359  0.5129 -1.9643
  156MOL    H1731327   7.394   3.924   0.890 -1.8450 -3.2280  1.9525
  156MOL    H1831328   7.115   3.961   0.766  0.5049 -0.2012  1.1040
  156MOL    H1931329   7.386   3.991   0.634 -0.1577  1.4491 -1.1891
  156MOL    H2031330   7.094   4.013   0.536  1.0256  0.1085  1.4794
  156MOL    H2131331   7.197   3.869   0.503 -2.2135  0.0045 -0.4803
  156MOL    C2231332   7.247   4.058   0.396 -0.5323  0.9286 -0.8203
  156MOL    C2331333   7.159   4.055   0.275 -0.3342  0.5807  0.3374
  156MOL    C2431334   7.200   4.024   0.144  0.3420  1.1115  0.0524
  156MOL    C2531335   7.108   4.017   0.021  0.3456 -0.0721 -0.0084
  156MOL    H2631336   7.258   4.160   0.434 -0.9410  0.8619 -0.5091
  156MOL    H2731337   7.344   4.023   0.361 -1.0970  0.3825 -1.8420
  156MOL    H2831338   7.056   4.068   0.303 -0.8247 -0.6225 -0.8704
  156MOL    H2931339   7.305   4.016   0.119  0.2846 -0.1616  0.1878
  156MOL    H3031340   7.093   4.114   7.951 -0.0307 -0.1758 -0.1026
  156MOL    H3131341   7.008   4.004   0.063  0.3184  0.7821  0.2021
  156MOL    C3231342   7.144   3.906   7.907  0.5883 -0.0932  0.7333
  156MOL    C3331343   7.073   3.927   7.776 -0.2603 -0.1317  0.2265
  156MOL    C3431344   7.132   3.964   7.660  0.3052  1.0805 -0.0648
  156MOL    C3531345   7.056   3.992   7.527 -0.2046  0.4292 -0.0306
  156MOL    H3631346   7.250   3.907   7.880  1.1113 -0.2718  2.7292
  156MOL    H3731347   7.129   3.806   7.946  0.4403 -0.5064 -0.3578
  156MOL    H3831348   6.966   3.912   7.781 -0.3125  0.5871  1.4832
  156MOL    H3931349   7.239   3.978   7.666  0.0872  2.1830  1.7387
  156MOL    H4031350   7.064   4.100   7.514  1.3578  0.2036 -1.1224
  156MOL    H4131351   6.954   3.970   7.557 -1.2021  4.0607 -0.4895
  156MOL    C4231352   7.110   3.907   7.412  0.2160  0.0347  0.1717
  156MOL    C4331353   7.020   3.911   7.292  0.3348 -0.1474  0.1358
  156MOL    C4431354   7.038   4.001   7.195 -0.0561  0.0472  0.2930
  156MOL    C4531355   6.959   4.020   7.065  0.3544  0.3794 -0.1400
  156MOL    H4631356   7.207   3.945   7.381  0.6531 -1.0588  0.1841
  156MOL    H4731357   7.117   3.800   7.429 -0.8741 -0.3032 -1.3496
  156MOL    H4831358   6.934   3.845   7.289 -0.9846  1.4883  1.2634
  156MOL    H4931359   7.119   4.071   7.201  1.2625 -1.0608 -3.1164
  156MOL    H5031360   6.885   3.940   7.054 -0.5372  1.1914 -0.1434
  156MOL    H5131361   7.032   3.992   6.990  0.4658  0.5000 -0.0785
  156MOL    C5231362   6.895   4.154   7.051  0.2700  0.1599  0.0863
  156MOL    C5331363   6.810   4.161   6.920  0.4030  0.3615  0.1727
  156MOL    C5431364   6.783   4.064   6.831 -0.2860 -0.3775 -0.0295
  156MOL    C5531365   6.692   4.070   6.713  0.2528  0.0749 -0.1225
  156MOL    H5631366   6.828   4.178   7.134  2.0915  0.8303  1.3797
  156MOL    H5731367   6.965   4.237   7.056  1.7321 -1.1015  1.1580
  156MOL    H5831368   6.753   4.252   6.912  0.6378  0.3508 -1.9244
  156MOL    H5931369   6.823   3.965   6.849  2.0907  0.5214 -0.1475
  156MOL    H6031370   6.633   4.162   6.718  2.0767  1.3641 -1.6095
  156MOL    H6131371   6.612   3.997   6.726 -0.4729  1.1329  1.5278
  156MOL    C6231372   6.754   4.046   6.576 -0.2469  0.2138  0.3951
  156MOL    C6331373   6.848   4.158   6.532 -0.6089 -0.3104  0.1427
  156MOL    C6431374   6.953   4.137   6.445 -0.2806 -0.3087  0.0652
  156MOL    C6531375   7.043   4.255   6.407 -0.2682 -0.2373 -1.1273
  156MOL    H6631376   6.796   3.946   6.559 -0.3094  0.1237  0.7600
  156MOL    H6731377   6.675   4.040   6.501 -0.2729 -0.2356  0.4566
  156MOL    H6831378   6.844   4.255   6.580  1.9255  0.4095 -0.9796
  156MOL    H6931379   6.958   4.043   6.391 -0.6030 -0.0684 -0.3822
  156MOL    H7031380   7.005   4.347   6.451 -1.4332 -1.5304  0.6440
  156MOL    H7131381   7.037   4.280   6.301 -2.3863  1.5130 -0.6210
  156MOL    C7231382   7.185   4.239   6.464 -0.5986  0.0642  0.4176
  156MOL    C7331383   7.272   4.139   6.397 -0.4876  0.0757 -0.3328
  156MOL    C7431384   7.291   4.015   6.449  0.5021  0.5051  0.3691
  156MOL    C7531385   7.340   3.896   6.379  0.0239  0.1746  0.5832
  156MOL    H7631386   7.239   4.334   6.470 -0.2151 -0.3004  3.3033
  156MOL    H7731387   7.173   4.217   6.570 -2.6857 -0.2470  0.1435
  156MOL    H7831388   7.314   4.170   6.303  2.2722  0.1083  0.8766
  156MOL    H7931389   7.240   3.994   6.542  1.3440 -1.8181  0.3319
  156MOL    H8031390   7.267   3.819   6.405 -1.7590  0.8932 -2.1731
  156MOL    H8131391   7.441   3.885   6.419  0.3518  0.7551 -0.0771
  156MOL    C8231392   7.346   3.906   6.226 -0.7990  0.0526 -0.5546
  156MOL    C8331393   7.334   3.773   6.154  0.6605  0.2121 -0.2392
  156MOL    C8431394   7.427   3.734   6.062 -0.2055  0.3601  0.0236
  156MOL    C8531395   7.411   3.616   5.977 -0.2144 -0.2584  0.2517
  156MOL    H8631396   7.254   3.960   6.202  0.0023  2.0256  0.6754
  156MOL    H8731397   7.424   3.969   6.182 -0.8996 -1.4499 -2.9603
  156MOL    H8831398   7.238   3.727   6.172  2.1113 -1.7679  2.8778
  156MOL    H8931399   7.513   3.798   6.053  0.2737 -0.4620 -1.5125
  156MOL    H9031400   7.328   3.554   6.009  0.7326 -1.3050  0.7097
  156MOL    H9131401   7.501   3.555   5.972  1.0512  1.5988 -0.6576
  156MOL    C9231402   7.390   3.664   5.826  0.0108  0.2273 -0.2979
  156MOL    C9331403   7.340   3.550   5.741 -0.0764 -1.0670 -0.5930
  156MOL    C9431404   7.379   3.547   5.617 -0.0384  0.3629 -0.5061
  156MOL    C9531405   7.350   3.430   5.525  0.4631 -1.0033  0.2465
  156MOL    H9631406   7.323   3.750   5.816 -0.0590  0.6888  3.3433
  156MOL    H9731407   7.480   3.700   5.778 -0.0042  1.4315  0.5412
  156MOL    H9831408   7.271   3.476   5.779  0.4577 -1.3081 -0.0960
  156MOL    H9931409   7.449   3.620   5.579 -2.2502  2.6610 -0.2580
  156MOL   H10031410   7.282   3.362   5.575  0.7977  0.2599  2.4665
  156MOL   H10131411   7.445   3.385   5.496  0.5127 -0.6845 -0.0976
  156MOL   C10231412   7.278   3.474   5.401 -0.0062  0.4078 -0.0328
  156MOL   C10331413   7.213   3.370   5.320 -0.0036  0.7248  0.0270
  156MOL   C10431414   7.080   3.345   5.321  0.4959  1.2129 -0.0091
  156MOL   C10531415   7.022   3.223   5.244  0.2750 -0.1506 -0.0273
  156MOL   H10631416   7.204   3.552   5.421 -1.5951 -0.7960 -1.0524
  156MOL   H10731417   7.350   3.525   5.336  0.3896 -1.5402 -1.1739
  156MOL   H10831418   7.275   3.302   5.264  1.3682  1.6080  0.4539
  156MOL   H10931419   7.010   3.400   5.382 -0.4358 -0.3211  0.3558
  156MOL   H11031420   7.017   3.138   5.313  2.4755  0.0190  0.4033
  156MOL   H11131421   7.098   3.197   5.170  1.2013 -0.4056  1.0058
  156MOL   C11231422   6.892   3.248   5.159  0.6600  0.1647  0.2494
  156MOL   C11331423   6.827   3.122   5.105 -0.0127  0.5296  0.8635
  156MOL   C11431424   6.818   3.091   4.976  0.1394 -0.1809  0.1060
  156MOL   C11531425   6.757   2.958   4.934 -1.0276  0.0560  0.7125
  156MOL   H11631426   6.830   3.322   5.211 -1.1557  1.1126 -3.1105
  156MOL   H11731427   6.922   3.308   5.073 -0.3025  0.1037 -0.1351
  156MOL   H11831428   6.789   3.055   5.181  1.1642 -1.4252 -0.2088
  156MOL   H11931429   6.859   3.157   4.902  0.9127 -0.3371  0.3878
  156MOL   H12031430   6.704   2.913   5.018 -0.8087 -1.1724  0.1974
  156MOL   H12131431   6.829   2.880   4.910 -0.1391  1.3673 -0.9358
  156MOL   C12231432   6.658   2.976   4.817  0.3518 -0.2335  0.0889
  156MOL   C12331433   6.720   3.004   4.686  0.1092  1.4417  0.1198
  156MOL   C12431434   6.683   3.104   4.608  0.2578  0.1511  0.3090
  156MOL   C12531435   6.756   3.138   4.485 -0.1110 -1.0192  0.2157
  156MOL   H12631436   6.600   2.886   4.795  0.0763  0.3611 -1.7467
  156MOL   H12731437   6.596   3.061   4.847  1.2219  0.9318 -1.3215
  156MOL   H12831438   6.807   2.947   4.656 -0.7527  0.7206 -1.0276
  156MOL   H12931439   6.609   3.175   4.642  1.0834 -0.6854  4.1757
  156MOL   H13031440   6.814   3.051   4.455  2.5886  0.7256  0.1871
  156MOL   H13131441   6.835   3.209   4.510 -0.6035  0.4077 -2.1544
  156MOL   C13231442   6.659   3.188   4.380  0.5477 -0.1333  0.3625
  156MOL   C13331443   6.722   3.208   4.245 -0.4874  0.3644 -0.4292
  156MOL   C13431444   6.847   3.247   4.215 -0.6036 -0.3590 -0.0896
  156MOL   C13531445   6.897   3.265   4.070 -0.4831 -0.1341  0.3991
  156MOL   H13631446   6.570   3.129   4.359  0.2287 -0.6503  3.0374
  156MOL   H13731447   6.627   3.289   4.408  1.6262  0.1085  0.7647
  156MOL   H13831448   6.651   3.183   4.168 -1.0310 -0.0659  0.2126
  156MOL   H13931449   6.912   3.270   4.298  1.0990 -0.2020 -1.4465
  156MOL   H14031450   6.948   3.360   4.053  0.6282 -0.7757  0.1095
  156MOL   H14131451   6.813   3.270   4.000  0.4002 -2.5214 -0.8705
  156MOL   C14231452   6.984   3.147   4.022 -0.2725 -0.0806  0.0429
  156MOL   C14331453   7.027   3.153   3.877  0.0349  0.3148  0.3277
  156MOL   C14431454   6.951   3.101   3.781  0.3114 -0.3756 -0.0734
  156MOL   C14531455   6.975   3.124   3.636  0.6597  0.7094  0.3564
  156MOL   H14631456   7.066   3.130   4.092  0.4047 -0.8135 -0.9106
  156MOL   H14731457   6.930   3.055   4.045  0.4328 -0.6316 -0.4402
  156MOL   H14831458   7.118   3.201   3.844  0.8589 -0.3207  1.6159
  156MOL   H14931459   6.867   3.045   3.818 -0.5834  0.5381 -0.6913
  156MOL   H15031460   6.974   3.025   3.590 -1.1433  0.1830  1.4764
  156MOL   H15131461   7.076   3.165   3.629  1.2343 -0.5872  0.9071
  156MOL   C15231462   6.871   3.210   3.567  0.1332 -0.4377  0.6511
  156MOL   C15331463   6.899   3.230   3.417  0.5026 -0.5881 -0.2028
  156MOL   C15431464   6.907   3.353   3.351  0.4419  0.3702 -0.4099
  156MOL   C15531465   6.928   3.379   3.203 -0.1449 -0.2879  0.2781
  156MOL   H15631466   6.773   3.162   3.575 -0.0631 -0.1509 -0.0159
  156MOL   H15731467   6.854   3.309   3.609 -1.5398  0.3970 -1.9158
  156MOL   H15831468   6.910   3.137   3.363  1.4755  0.1147 -1.2314
  156MOL   H15931469   6.889   3.441   3.412 -0.0362 -0.5861  0.8324
  156MOL   H16031470   6.921   3.287   3.145 -0.9166 -0.4554  0.6256
  156MOL   H16131471   7.030   3.415   3.191 -0.6541  0.8173 -0.8690
  156MOL   C16231472   6.821   3.479   3.146 -0.3732 -0.0056 -0.4174
  156MOL   C16331473   6.810   3.595   3.243  0.4850 -0.1370 -0.4659
  156MOL   C16431474   6.705   3.644   3.311 -0.2614  0.2911  0.3436
  156MOL   C16531475   6.713   3.765   3.402 -0.2412  0.2798 -0.4271
  156MOL   H16631476   6.855   3.513   3.048 -0.9085  0.6006 -0.3940
  156MOL   H16731477   6.725   3.431   3.129  0.5815 -3.0471  2.4804
  156MOL   H16831478   6.905   3.647   3.252  1.2828 -1.0749 -2.9107
  156MOL   H16931479   6.608   3.597   3.301  0.4274 -1.2832  1.0016
  156MOL   H17031480   6.628   3.821   3.365  0.7141  1.7963 -0.3632
  156MOL   H17131481   6.809   3.815   3.387  0.0675 -0.4011 -0.7273
  156MOL   C17231482   6.701   3.729   3.552  0.5026 -0.6727  0.4651
  156MOL   C17331483   6.832   3.705   3.615  0.3868 -0.2344  0.0864
  156MOL   C17431484   6.850   3.606   3.704  0.0331  0.5032 -0.6055
  156MOL   C17531485   6.988   3.596   3.780 -0.0722 -0.6487 -0.3903
  156MOL   H17631486   6.661   3.814   3.607  0.1244 -1.2437  1.0871
  156MOL   H17731487   6.629   3.650   3.572 -1.0425  1.1518  2.3041
  156MOL   H17831488   6.915   3.771   3.592  1.5215 -1.7974 -0.4144
  156MOL   H17931489   6.776   3.527   3.707  0.0100  0.4361 -2.3127
  156MOL   H18031490   6.979   3.553   3.880  0.8021  0.7433  0.2910
  156MOL   H18131491   7.022   3.699   3.785 -2.7937  0.3115 -0.6516
  156MOL   C18231492   7.087   3.530   3.696  0.1830 -0.4875  0.1849
  156MOL   C18331493   7.230   3.563   3.738  0.2397  0.1286 -0.0657
  156MOL   C18431494   7.328   3.631   3.678  0.4476 -0.1063 -0.1102
  156MOL   C18531495   7.466   3.664   3.728 -0.2584 -0.2727  0.0223
  156MOL   H18631496   7.073   3.422   3.709  1.5346 -0.8817 -1.4946
  156MOL   H18731497   7.081   3.554   3.590  0.8423  2.7034  0.8440
  156MOL   H18831498   7.249   3.515   3.833  2.3688  0.6214 -0.2177
  156MOL   H18931499   7.296   3.677   3.586  2.7401  2.8857  0.4940
  156MOL   H19031500   7.488   3.590   3.804 -0.2445 -0.5278 -0.2267
  156MOL   H19131501   7.452   3.762   3.774 -0.2153 -1.2482  2.1483
  156MOL   C19231502   7.563   3.671   3.616 -0.7974  0.2558  0.2476
  156MOL   C19331503   7.599   3.542   3.550 -0.1213  0.0857 -0.0858
  156MOL   C19431504   7.723   3.492   3.530 -0.4790  0.3314  0.3018
  156MOL   C19531505   7.753   3.363   3.463 -0.0377 -0.8035 -0.1421
  156MOL   H19631506   7.538   3.743   3.537 -3.1124 -3.2885 -2.3817
  156MOL   H19731507   7.656   3.717   3.651 -1.9717  3.6716 -0.8397
  156MOL   H19831508   7.517   3.475   3.530 -0.8501  0.5872  1.1803
  156MOL   H19931509   7.806   3.557   3.555 -0.4437 -0.4653  2.3072
  156MOL   H20031510   7.830   3.308   3.517 -0.5894 -1.5092 -0.0597
  156MOL   H20131511   7.792   3.380   3.363 -1.2922  3.5877  0.0117
  156MOL   H20231512   7.663   3.302   3.455  0.0639 -0.8891 -0.6316
  157MOL     C131513   3.996   7.329   7.033 -0.1079 -0.4618  0.1126
  157MOL     C231514   3.855   7.296   6.998  0.1016 -0.1907  0.6308
  157MOL     C331515   3.755   7.387   6.966 -0.3235  0.7790 -0.4185
  157MOL     C431516   3.608   7.342   6.932  0.5659 -0.4077  0.1873
  157MOL     H531517   4.077   7.283   6.975  1.7730  3.0760 -0.2267
  157MOL     H631518   4.020   7.283   7.129  0.7229 -1.4034 -0.5318
  157MOL     H731519   3.836   7.190   6.992  1.6436 -0.4093 -0.7570
  157MOL     H831520   3.778   7.492   6.964  1.5062  0.4180  0.4011
  157MOL     H931521   3.541   7.363   7.015  0.5859  0.7699 -0.0925
  157MOL    H1031522   3.596   7.234   6.920  1.5101 -0.4319 -0.6323
  157MOL    H1131523   4.013   7.437   7.039 -3.2375  0.1882 -1.7789
  157MOL    C1231524   3.546   7.386   6.792  0.0653  0.5054 -0.1557
  157MOL    C1331525   3.408   7.323   6.774  0.2733 -0.5052 -0.5401
  157MOL    C1431526   3.291   7.385   6.794 -0.0341  0.1385 -0.3598
  157MOL    C1531527   3.161   7.318   6.779 -0.0607  0.0039  0.0259
  157MOL    H1631528   3.545   7.495   6.784  0.0452  0.4992 -0.2364
  157MOL    H1731529   3.624   7.354   6.723 -2.0480 -4.1316 -0.5592
  157MOL    H1831530   3.419   7.221   6.739  1.6694 -0.5746  0.0569
  157MOL    H1931531   3.290   7.490   6.821  2.6302  0.4515 -1.2745
  157MOL    H2031532   3.097   7.342   6.864  1.7343 -0.1438  1.4528
  157MOL    H2131533   3.166   7.209   6.780 -0.7045 -0.0328 -0.2397
  157MOL    C2231534   3.080   7.372   6.656 -0.5627 -0.0506  0.3541
  157MOL    C2331535   2.950   7.295   6.629 -0.1073 -0.7011  0.5727
  157MOL    C2431536   2.944   7.203   6.533  0.3198  0.1354  1.0213
  157MOL    C2531537   2.831   7.104   6.520  0.0854 -0.0689  0.1976
  157MOL    H2631538   3.055   7.478   6.660  0.8152  0.3360 -0.7079
  157MOL    H2731539   3.150   7.369   6.572  0.7812 -0.4781  1.4810
  157MOL    H2831540   2.874   7.301   6.706 -0.2688  1.7518  0.2644
  157MOL    H2931541   3.023   7.179   6.464 -0.8529  4.1513 -1.8868
  157MOL    H3031542   2.755   7.152   6.582  1.3300  0.4375  1.3594
  157MOL    H3131543   2.871   7.014   6.567 -2.5772 -1.2482  0.3190
  157MOL    C3231544   2.781   7.074   6.382  0.3390 -0.0797  0.4560
  157MOL    C3331545   2.688   6.954   6.377  0.5836  0.1934  0.7478
  157MOL    C3431546   2.562   6.954   6.338 -0.2249 -0.0688  0.5013
  157MOL    C3531547   2.465   6.836   6.349 -0.0910 -0.4736 -0.9674
  157MOL    H3631548   2.729   7.161   6.343  1.2030 -0.2688 -1.2031
  157MOL    H3731549   2.865   7.057   6.314  0.0291 -1.2715  0.3597
  157MOL    H3831550   2.713   6.865   6.433 -2.7613 -0.4854  1.2543
  157MOL    H3931551   2.529   7.045   6.289  1.0862 -0.0564 -0.3763
  157MOL    H4031552   2.509   6.756   6.407 -0.4887 -0.5150 -0.7275
  157MOL    H4131553   2.436   6.807   6.248 -1.7065 -0.4077 -0.5384
  157MOL    C4231554   2.330   6.867   6.413 -0.0117 -0.0331  0.2269
  157MOL    C4331555   2.244   6.739   6.441 -0.4164  0.4295  0.2145
  157MOL    C4431556   2.252   6.670   6.558 -0.4310 -0.1624 -0.3439
  157MOL    C4531557   2.174   6.541   6.587 -0.0292 -0.4013 -0.8841
  157MOL    H4631558   2.357   6.923   6.503  0.5985 -2.2677  1.4667
  157MOL    H4731559   2.276   6.940   6.352  1.3255  2.1891  1.6067
  157MOL    H4831560   2.183   6.697   6.363 -0.6685  1.8917 -0.4024
  157MOL    H4931561   2.309   6.707   6.642  1.5155 -0.6272 -1.4380
  157MOL    H5031562   2.246   6.462   6.603  2.3211  1.5112 -1.6664
  157MOL    H5131563   2.124   6.503   6.498 -3.0241  0.8614  0.1715
  157MOL    C5231564   2.077   6.559   6.697 -0.3056  0.7876  0.0933
  157MOL    C5331565   1.990   6.436   6.704 -0.3129  0.4048  0.1092
  157MOL    C5431566   1.987   6.353   6.810  0.7256 -0.3242 -0.3445
  157MOL    C5531567   1.901   6.231   6.824 -0.1559  0.5533  0.3526
  157MOL    H5631568   2.124   6.576   6.794  0.5189 -0.6335 -0.0530
  157MOL    H5731569   2.006   6.640   6.678  0.4824  1.6275  0.6642
  157MOL    H5831570   1.935   6.407   6.615  0.3879  2.7351 -1.1276
  157MOL    H5931571   2.047   6.377   6.897  1.9820 -1.4668 -0.8791
  157MOL    H6031572   1.866   6.192   6.729 -1.0392 -1.8577  1.6300
  157MOL    H6131573   1.814   6.262   6.881  1.0019  1.8507  1.4686
  157MOL    C6231574   1.993   6.117   6.878  0.5690 -0.9446 -0.1089
  157MOL    C6331575   2.114   6.084   6.792  0.1721 -0.1357  0.5803
  157MOL    C6431576   2.244   6.111   6.809  0.1668  0.6817 -0.2791
  157MOL    C6531577   2.364   6.105   6.713 -0.7006 -0.2531  0.5001
  157MOL    H6631578   2.033   6.159   6.971 -1.4419  0.5894  0.0755
  157MOL    H6731579   1.935   6.026   6.893  0.5052 -0.6842  1.2550
  157MOL    H6831580   2.102   6.031   6.699  0.5278 -2.4498  1.8048
  157MOL    H6931581   2.264   6.158   6.904  1.6297 -0.5135  0.0273
  157MOL    H7031582   2.342   6.021   6.647  1.2091  0.2459 -0.8232
  157MOL    H7131583   2.451   6.059   6.762 -0.0676  1.1345  0.7079
  157MOL    C7231584   2.398   6.234   6.639 -0.3114 -0.9426 -0.4672
  157MOL    C7331585   2.520   6.226   6.550  0.3313 -0.1645  0.2235
  157MOL    C7431586   2.619   6.317   6.546 -0.1566  0.2129  0.5309
  157MOL    C7531587   2.733   6.306   6.451 -0.1122  0.4819 -0.3005
  157MOL    H7631588   2.314   6.257   6.573  0.6752 -0.2033 -1.4767
  157MOL    H7731589   2.414   6.321   6.703  1.4032 -0.1814 -1.8779
  157MOL    H7831590   2.522   6.148   6.476  0.3333 -0.6022  0.6867
  157MOL    H7931591   2.613   6.405   6.608  0.7383  0.7779 -0.1744
  157MOL    H8031592   2.723   6.225   6.379 -1.9839  0.1963  0.2500
  157MOL    H8131593   2.816   6.276   6.515 -0.4121 -0.8906 -0.5452
  157MOL    C8231594   2.766   6.436   6.378 -0.4156  0.4271  0.6328
  157MOL    C8331595   2.905   6.450   6.317  0.0202 -0.2324  0.3109
  157MOL    C8431596   2.993   6.547   6.350  0.3256 -0.1887  0.2183
  157MOL    C8531597   3.124   6.588   6.279 -0.4131 -0.0119  0.0076
  157MOL    H8631598   2.688   6.442   6.302 -0.7653 -1.0037  0.8567
  157MOL    H8731599   2.744   6.512   6.452 -1.2820  0.0754  0.7483
  157MOL    H8831600   2.936   6.376   6.244  0.4000  0.6757 -0.4699
  157MOL    H8931601   2.967   6.612   6.432 -2.4601 -1.3083  0.2953
  157MOL    H9031602   3.137   6.696   6.277 -1.7650  0.2073  1.6393
  157MOL    H9131603   3.126   6.560   6.173  0.6817  0.6893 -0.1628
  157MOL    C9231604   3.242   6.546   6.362 -0.9047  0.0353 -0.0524
  157MOL    C9331605   3.374   6.557   6.289  0.3013  0.1428  0.0303
  157MOL    C9431606   3.415   6.586   6.164 -0.3218  0.8181  0.5624
  157MOL    C9531607   3.565   6.587   6.127  0.1224 -0.0962 -0.4153
  157MOL    H9631608   3.255   6.621   6.440 -0.9211 -0.3869  0.3531
  157MOL    H9731609   3.241   6.445   6.402  0.3198 -0.8772 -2.2463
  157MOL    H9831610   3.456   6.530   6.354  0.3955 -0.6317 -0.3951
  157MOL    H9931611   3.347   6.621   6.088  0.5191  2.6514  0.6214
  157MOL   H10031612   3.564   6.532   6.034 -1.7271  0.3214 -0.6796
  157MOL   H10131613   3.621   6.526   6.198 -1.1700 -0.8935 -0.0627
  157MOL   C10231614   3.618   6.723   6.100 -0.2530 -0.2655  0.0661
  157MOL   C10331615   3.752   6.716   6.040 -0.2141  0.2796 -0.0474
  157MOL   C10431616   3.781   6.734   5.909  0.5030  0.1637  0.1662
  157MOL   C10531617   3.923   6.755   5.858  0.4061 -0.5928  0.0093
  157MOL   H10631618   3.547   6.777   6.038 -0.2418  0.9277  1.0848
  157MOL   H10731619   3.623   6.785   6.189  4.7666  0.6158 -0.6833
  157MOL   H10831620   3.835   6.706   6.109  1.2818  0.6649 -1.7436
  157MOL   H10931621   3.700   6.741   5.838  0.8230 -0.0752 -0.2229
  157MOL   H11031622   3.935   6.681   5.779  0.7261 -0.5553  0.0236
  157MOL   H11131623   4.001   6.739   5.933 -0.0043 -0.0741  0.5507
  157MOL   C11231624   3.950   6.906   5.818 -0.2089  0.2918  0.6116
  157MOL   C11331625   4.096   6.940   5.792  0.5961  0.5114  0.7827
  157MOL   C11431626   4.163   7.040   5.853 -0.4016 -0.8398  0.0578
  157MOL   C11531627   4.308   7.083   5.815  0.8323  1.0196 -0.3369
  157MOL   H11631628   3.888   6.939   5.735 -1.1331  0.4270  1.3470
  157MOL   H11731629   3.927   6.966   5.906 -2.5552 -0.4987  0.5609
  157MOL   H11831630   4.153   6.891   5.714  0.5975 -1.1656  1.8022
  157MOL   H11931631   4.113   7.105   5.924  0.0034  0.5293 -0.8835
  157MOL   H12031632   4.364   7.002   5.767  0.3979  1.5155 -1.6922
  157MOL   H12131633   4.368   7.105   5.904  0.4462 -0.2013  0.2379
  157MOL   C12231634   4.311   7.207   5.727 -0.7419 -0.6141  0.0130
  157MOL   C12331635   4.444   7.259   5.680  0.1323 -0.5760  0.2863
  157MOL   C12431636   4.486   7.389   5.695 -0.2753  0.1193 -0.0847
  157MOL   C12531637   4.617   7.441   5.646 -0.6711  0.2804 -0.2986
  157MOL   H12631638   4.272   7.185   5.628 -1.6844  2.4595 -0.3757
  157MOL   H12731639   4.259   7.293   5.771  1.6947 -0.1354  2.0939
  157MOL   H12831640   4.516   7.185   5.648  0.1929 -0.2569 -0.3108
  157MOL   H12931641   4.418   7.459   5.741  2.2526  3.1741 -0.7962
  157MOL   H13031642   4.655   7.370   5.572  0.1577  1.4467 -0.9935
  157MOL   H13131643   4.685   7.458   5.729 -1.2061 -0.6962  0.3614
  157MOL   C13231644   4.582   7.566   5.558  0.0739 -0.2842  0.0861
  157MOL   C13331645   4.705   7.641   5.498  0.1063 -0.5564 -0.1436
  157MOL   C13431646   4.724   7.671   5.369  0.2353 -0.4932  0.1805
  157MOL   C13531647   4.829   7.761   5.303  0.2592  0.7312  0.2575
  157MOL   H13631648   4.514   7.543   5.476  0.0075 -0.6710  0.2478
  157MOL   H13731649   4.536   7.641   5.623 -1.0574 -0.5684 -0.3617
  157MOL   H13831650   4.768   7.684   5.574 -0.7222  2.0185 -0.8541
  157MOL   H13931651   4.659   7.626   5.295 -0.1402 -1.0895  0.8760
  157MOL   H14031652   4.884   7.795   5.391 -0.6722 -0.8241  1.4630
  157MOL   H14131653   4.787   7.847   5.250 -1.7202 -0.3108  0.0880
  157MOL   C14231654   4.926   7.691   5.213  0.7487  0.3038 -0.6133
  157MOL   C14331655   5.045   7.777   5.176  0.1414  0.1597  0.5128
  157MOL   C14431656   5.064   7.838   5.058  0.1078  0.5999  0.7498
  157MOL   C14531657   5.190   7.918   5.008  0.0792  0.6230 -0.2577
  157MOL   H14631658   4.968   7.602   5.260 -0.3545 -0.6122 -1.3489
  157MOL   H14731659   4.880   7.667   5.117  1.9822 -0.4385 -1.0423
  157MOL   H14831660   5.116   7.784   5.257  0.8443  1.7743 -0.2174
  157MOL   H14931661   4.984   7.837   4.985  0.6336 -0.3552  0.1638
  157MOL   H15031662   5.257   7.943   5.091 -0.7785 -0.2195  0.7016
  157MOL   H15131663   5.159   0.040   4.974 -3.3521 -0.3222 -0.0613
  157MOL   C15231664   5.273   7.858   4.893 -0.6323 -0.3166 -0.3543
  157MOL   C15331665   5.363   7.963   4.824 -0.6315  0.3288 -0.6988
  157MOL   C15431666   5.310   0.078   4.740 -0.4669 -0.0698 -0.1425
  157MOL   C15531667   5.381   0.197   4.677 -0.2344 -0.0226 -0.6853
  157MOL   H15631668   5.326   7.765   4.916 -1.0715 -0.8679 -1.5206
  157MOL   H15731669   5.195   7.824   4.825 -1.2673  1.9087 -0.7592
  157MOL   H15831670   5.465   7.957   4.856 -0.4477 -0.7831 -1.4660
  157MOL   H15931671   5.204   0.084   4.719 -0.6864 -1.8962  0.3198
  157MOL   H16031672   5.483   0.195   4.716 -0.6825 -1.9269  0.4245
  157MOL   H16131673   5.348   0.297   4.707 -2.1220 -1.1674  1.1485
  157MOL   C16231674   5.371   0.195   4.526 -0.3089 -0.0790 -0.0129
  157MOL   C16331675   5.241   0.239   4.461 -0.4627  0.7333 -0.9876
  157MOL   C16431676   5.142   0.297   4.529  0.2320  0.2446 -0.3824
  157MOL   C16531677   5.012   0.335   4.465  0.0423  0.4068 -0.8734
  157MOL   H16631678   5.458   0.238   4.476 -0.0380  0.3827  0.8424
  157MOL   H16731679   5.387   0.090   4.503  0.4107 -0.1003  0.5783
  157MOL   H16831680   5.229   0.220   4.356 -0.7102  1.3805 -1.0821
  157MOL   H16931681   5.148   0.316   4.635  1.7192  0.7049 -0.5429
  157MOL   H17031682   5.043   0.349   4.362  2.1441 -1.0462 -0.4756
  157MOL   H17131683   4.991   0.436   4.501  1.9497  0.5664 -0.1107
  157MOL   C17231684   4.900   0.236   4.476  0.5989  0.1635 -0.3616
  157MOL   C17331685   4.783   0.295   4.396  0.4691  0.9797  0.7258
  157MOL   C17431686   4.692   0.232   4.312  0.2415  0.4767  0.2412
  157MOL   C17531687   4.581   0.305   4.246 -0.4263 -0.0898  0.5881
  157MOL   H17631688   4.931   0.136   4.444 -1.2474 -1.6753  3.3222
  157MOL   H17731689   4.860   0.223   4.576  3.3254 -1.5422  0.5417
  157MOL   H17831690   4.779   0.402   4.408  1.9987  0.9512  1.5719
  157MOL   H17931691   4.705   0.126   4.298 -0.0033  0.3825  0.7449
  157MOL   H18031692   4.562   0.404   4.288  1.8235  0.1836  1.0224
  157MOL   H18131693   4.492   0.247   4.267 -1.2901  1.0687  0.1861
  157MOL   C18231694   4.604   0.318   4.092 -0.8560  0.0478  0.2865
  157MOL   C18331695   4.492   0.400   4.027  0.8539 -0.5998 -0.3118
  157MOL   C18431696   4.510   0.527   3.987 -0.0059  0.1047 -0.0047
  157MOL   C18531697   4.410   0.621   3.926  0.1539  0.3796  0.3250
  157MOL   H18631698   4.700   0.371   4.087 -0.7825  0.0614  1.7493
  157MOL   H18731699   4.618   0.216   4.057  2.8727 -0.0324  1.7616
  157MOL   H18831700   4.398   0.346   4.023  1.7721 -2.1544 -1.1115
  157MOL   H18931701   4.612   0.559   4.002  0.5103  0.1220 -3.2011
  157MOL   H19031702   4.333   0.558   3.881  0.2134  1.0171 -0.6890
  157MOL   H19131703   4.460   0.673   3.844  0.6953  1.1444  1.1435
  157MOL   C19231704   4.333   0.713   4.022  0.7077  0.0091  0.3430
  157MOL   C19331705   4.226   0.794   3.951 -0.5371  0.6243 -0.3418
  157MOL   C19431706   4.258   0.915   3.895  0.2779 -0.6221 -0.2547
  157MOL   C19531707   4.160   0.978   3.801 -1.0183  0.3826 -0.4265
  157MOL   H19631708   4.289   0.654   4.102  1.2273 -3.0419 -1.5364
  157MOL   H19731709   4.397   0.793   4.061  2.8687 -1.2050 -0.6184
  157MOL   H19831710   4.133   0.743   3.931 -0.1564 -0.9266  1.6769
  157MOL   H19931711   4.348   0.965   3.929  0.7896 -0.5863 -1.6279
  157MOL   H20031712   4.063   0.929   3.797 -0.6869 -0.3347  0.2571
  157MOL   H20131713   4.206   0.998   3.704 -2.3701  4.1620 -0.3406
  157MOL   H20231714   4.154   1.079   3.840 -1.1266 -0.7870  2.7082
  158MOL     C131715   6.345   6.299   3.673  0.4222  0.2899  0.1599
  158MOL     C231716   6.273   6.425   3.710 -0.0315  0.0033 -0.6245
  158MOL     C331717   6.268   6.537   3.637 -0.3157  0.0042 -0.3852
  158MOL     C431718   6.179   6.658   3.665  0.2579 -0.4981  0.0090
  158MOL     H531719   6.421   6.325   3.599  1.1719 -0.1589  0.7721
  158MOL     H631720   6.282   6.228   3.619  0.4232  1.0895 -0.9088
  158MOL     H731721   6.217   6.414   3.802  0.8888 -0.9139 -0.1736
  158MOL     H831722   6.323   6.541   3.544  0.3798  0.7645  0.0448
  158MOL     H931723   6.131   6.658   3.763 -2.0816  1.3272 -1.0838
  158MOL    H1031724   6.101   6.651   3.589  0.7166  1.5188 -0.6806
  158MOL    H1131725   6.386   6.250   3.761  1.4490  2.4530  0.9146
  158MOL    C1231726   6.257   6.792   3.664 -0.3792 -0.3237  0.1985
  158MOL    C1331727   6.168   6.919   3.671 -0.1308 -0.5380  0.1377
  158MOL    C1431728   6.154   7.009   3.576 -0.1582 -0.1255  0.4567
  158MOL    C1531729   6.056   7.128   3.580  0.3200 -0.2250  0.3191
  158MOL    H1631730   6.325   6.789   3.750  0.5595  1.4225 -0.4670
  158MOL    H1731731   6.319   6.804   3.575  0.9618  1.6107  1.3500
  158MOL    H1831732   6.092   6.924   3.747 -2.1369  1.5622 -1.9175
  158MOL    H1931733   6.227   7.007   3.496  0.2961 -1.6548  0.8904
  158MOL    H2031734   6.109   7.214   3.539  2.6802 -2.3826 -1.3183
  158MOL    H2131735   6.029   7.153   3.683  0.8125 -1.4329  0.7601
  158MOL    C2231736   5.920   7.107   3.504  0.1878 -0.5604  0.1724
  158MOL    C2331737   5.840   7.240   3.497  0.0308 -0.4031  0.3143
  158MOL    C2431738   5.710   7.249   3.522  0.9469 -0.1728 -0.4825
  158MOL    C2531739   5.645   7.387   3.543  0.4902  0.2510 -0.6149
  158MOL    H2631740   5.933   7.090   3.397 -0.7312  0.6721 -0.1502
  158MOL    H2731741   5.860   7.034   3.558 -0.2852 -0.2878  0.0250
  158MOL    H2831742   5.898   7.327   3.471  1.6121 -1.2229  0.9884
  158MOL    H2931743   5.654   7.161   3.549  0.0786 -0.3744 -2.8498
  158MOL    H3031744   5.550   7.383   3.490 -0.0685 -1.3527  0.4965
  158MOL    H3131745   5.701   7.466   3.492  0.7030 -0.1999 -1.0821
  158MOL    C3231746   5.620   7.429   3.682 -0.7174  0.1854 -0.0928
  158MOL    C3331747   5.746   7.506   3.742  0.5025  0.4508  0.8751
  158MOL    C3431748   5.840   7.444   3.808  0.3625  0.0971 -0.0860
  158MOL    C3531749   5.940   7.521   3.886  1.0020 -0.3493 -0.7311
  158MOL    H3631750   5.536   7.498   3.691 -0.0326  0.8857  1.2006
  158MOL    H3731751   5.593   7.337   3.734  0.3320  0.7647  1.5041
  158MOL    H3831752   5.764   7.612   3.729 -2.5380  0.7096 -1.7975
  158MOL    H3931753   5.837   7.336   3.819 -2.7662  0.0319 -1.1111
  158MOL    H4031754   5.896   7.613   3.924 -0.4036 -1.6139  0.7293
  158MOL    H4131755   6.011   7.535   3.804  3.1269 -1.3832  0.8755
  158MOL    C4231756   6.021   7.443   3.995  0.9986 -1.1719  0.5985
  158MOL    C4331757   6.124   7.531   4.064  0.3052  0.1026  0.3272
  158MOL    C4431758   6.230   7.580   3.994  0.6413 -0.4481  0.0418
  158MOL    C4531759   6.338   7.650   4.076  0.6280 -0.1010  0.7086
  158MOL    H4631760   5.940   7.420   4.065 -1.4237  0.3073 -1.6590
  158MOL    H4731761   6.072   7.358   3.949  0.6611 -1.7535  1.2876
  158MOL    H4831762   6.115   7.540   4.171  0.2874  0.6941  0.2762
  158MOL    H4931763   6.249   7.557   3.890 -0.2926 -0.8431 -0.0478
  158MOL    H5031764   6.429   7.656   4.016  0.4390  0.0289  0.4343
  158MOL    H5131765   6.369   7.586   4.158  3.0964 -1.1116 -0.9544
  158MOL    C5231766   6.307   7.793   4.115  0.2207 -0.0519 -0.1643
  158MOL    C5331767   6.423   7.853   4.186  0.1255 -0.0955 -0.0832
  158MOL    C5431768   6.418   7.905   4.309 -0.2279  0.2172 -0.1259
  158MOL    C5531769   6.534   7.935   4.400  0.9061 -1.3548 -0.5893
  158MOL    H5631770   6.297   7.851   4.023  2.6627  3.1515  1.4883
  158MOL    H5731771   6.222   7.804   4.182  0.7002  0.6446  0.3383
  158MOL    H5831772   6.518   7.853   4.135  0.8603 -0.2834  1.2641
  158MOL    H5931773   6.322   7.926   4.355 -0.2968 -0.8911  0.2417
  158MOL    H6031774   6.625   7.893   4.357  1.0782 -0.5025 -1.0810
  158MOL    H6131775   6.526   7.880   4.493 -0.0074  0.1645  0.2569
  158MOL    C6231776   6.560   0.112   4.414 -0.6920 -0.0102 -0.3377
  158MOL    C6331777   6.636   0.146   4.542  0.2887  0.0454 -0.8624
  158MOL    C6431778   6.762   0.183   4.551 -0.3113 -0.2372 -0.0224
  158MOL    C6531779   6.833   0.235   4.679  0.1453 -0.5458  0.2691
  158MOL    H6631780   6.610   0.161   4.330  2.2049 -0.9269  0.8062
  158MOL    H6731781   6.462   0.159   4.416 -1.2507 -1.2239  0.8630
  158MOL    H6831782   6.578   0.150   4.632  0.4229  0.7484 -0.8044
  158MOL    H6931783   6.820   0.193   4.460  0.7126 -1.8792  0.4277
  158MOL    H7031784   6.757   0.273   4.748 -0.1695  0.4609 -0.6258
  158MOL    H7131785   6.886   0.329   4.671 -0.2113 -0.2697  1.0407
  158MOL    C7231786   6.920   0.125   4.744 -0.7601 -0.3284  0.3488
  158MOL    C7331787   6.980   0.167   4.879 -0.5934 -1.2600  1.0903
  158MOL    C7431788   6.974   0.097   4.998 -0.3375 -0.5129  0.3351
  158MOL    C7531789   7.042   0.136   5.127 -0.5813  0.5664  0.1542
  158MOL    H7631790   6.865   0.035   4.772 -2.3066  0.4278 -0.1817
  158MOL    H7731791   6.995   0.094   4.671  0.0555  0.7389  0.7335
  158MOL    H7831792   7.031   0.262   4.878  0.0212 -1.5874 -0.0757
  158MOL    H7931793   6.929   7.975   5.001  0.5233 -0.9428 -0.5876
  158MOL    H8031794   7.107   0.222   5.109 -0.4459  0.6484  1.0162
  158MOL    H8131795   7.104   0.051   5.153  2.6060  2.1836 -1.7541
  158MOL    C8231796   6.940   0.164   5.239 -0.1786  0.1843 -0.5216
  158MOL    C8331797   6.836   0.272   5.198 -0.2166  0.8167 -0.4964
  158MOL    C8431798   6.803   0.376   5.269 -0.1757  0.1350  0.4783
  158MOL    C8531799   6.721   0.493   5.235 -0.1119  0.6636  0.0887
  158MOL    H8631800   6.892   0.069   5.258  3.1751 -1.7465 -1.3124
  158MOL    H8731801   6.999   0.200   5.324 -0.5693 -0.8495  0.1909
  158MOL    H8831802   6.799   0.258   5.098 -1.3577 -0.5891  0.1057
  158MOL    H8931803   6.854   0.390   5.364 -0.8462 -1.1790  1.0370
  158MOL    H9031804   6.667   0.489   5.140 -0.9552 -0.4185  0.6038
  158MOL    H9131805   6.775   0.588   5.234 -0.6717  1.0520  2.4790
  158MOL    C9231806   6.612   0.519   5.349  0.3200 -1.1905  0.2417
  158MOL    C9331807   6.498   0.419   5.345  0.4905 -0.3411 -0.1863
  158MOL    C9431808   6.470   0.342   5.452 -0.6650 -0.1702 -0.3177
  158MOL    C9531809   6.354   0.254   5.463 -0.8894 -0.5939 -0.3887
  158MOL    H9631810   6.654   0.516   5.449  1.4528  0.4513 -0.1819
  158MOL    H9731811   6.579   0.622   5.336 -0.6113 -1.4170  0.7627
  158MOL    H9831812   6.441   0.416   5.254  0.6691  1.7830 -0.3949
  158MOL    H9931813   6.535   0.350   5.537 -1.6447  0.3114  0.3987
  158MOL   H10031814   6.386   0.164   5.515 -1.6421 -0.4633  0.3262
  158MOL   H10131815   6.314   0.213   5.371 -2.9180  0.7463 -0.1345
  158MOL   C10231816   6.253   0.310   5.555  0.4412 -0.2731  0.6858
  158MOL   C10331817   6.204   0.451   5.519 -0.2552  0.3032  0.1381
  158MOL   C10431818   6.077   0.496   5.511 -0.1863  0.3793 -0.5922
  158MOL   C10531819   6.055   0.639   5.477  0.5695 -0.2608 -0.3020
  158MOL   H10631820   6.168   0.242   5.561 -0.4205  0.4650 -2.3022
  158MOL   H10731821   6.290   0.314   5.657 -1.2405  1.5000  1.2476
  158MOL   H10831822   6.279   0.521   5.484 -0.5161 -0.5806 -2.2570
  158MOL   H10931823   5.986   0.444   5.538  0.3324 -0.8700 -1.2117
  158MOL   H11031824   6.119   0.675   5.396  1.8783 -2.3458 -0.2388
  158MOL   H11131825   6.074   0.693   5.570 -0.7346 -1.2014  0.5314
  158MOL   C11231826   5.908   0.677   5.427 -0.9275  0.1463  0.2335
  158MOL   C11331827   5.881   0.823   5.421  0.1625  0.4111 -0.2297
  158MOL   C11431828   5.763   0.879   5.450 -0.1313  1.0118 -0.0337
  158MOL   C11531829   5.721   1.024   5.447  0.2521 -0.2338 -0.4767
  158MOL   H11631830   5.894   0.631   5.329 -0.2615 -1.3825  0.8390
  158MOL   H11731831   5.826   0.641   5.490 -0.6545 -0.1580  0.4187
  158MOL   H11831832   5.968   0.882   5.394  2.7882 -1.9677  2.6057
  158MOL   H11931833   5.685   0.810   5.477 -0.2067 -0.7832 -4.4090
  158MOL   H12031834   5.804   1.091   5.427 -0.4981  0.4985 -1.1712
  158MOL   H12131835   5.679   1.053   5.543  2.4377  0.7395  0.2146
  158MOL   C12231836   5.604   1.042   5.346  0.1220 -0.2999 -0.4966
  158MOL   C12331837   5.516   1.165   5.371 -1.0598 -0.4026  0.3437
  158MOL   C12431838   5.380   1.172   5.380 -0.2310  0.4166  0.2625
  158MOL   C12531839   5.303   1.301   5.406 -0.2637 -0.4868 -0.5002
  158MOL   H12631840   5.627   1.035   5.240 -1.0848 -0.5007 -0.7562
  158MOL   H12731841   5.525   0.966   5.349 -1.3080  1.2105  1.0937
  158MOL   H12831842   5.567   1.260   5.382 -2.1736  0.2635 -0.1905
  158MOL   H12931843   5.317   1.087   5.362 -0.1187  0.1244  1.2238
  158MOL   H13031844   5.379   1.378   5.421 -0.3549 -0.6658  0.9396
  158MOL   H13131845   5.247   1.288   5.498 -1.1071  1.3724 -0.7299
  158MOL   C13231846   5.207   1.358   5.303  0.3519 -0.4528  0.2268
  158MOL   C13331847   5.147   1.485   5.360  0.0661 -0.0926 -0.1638
  158MOL   C13431848   5.011   1.505   5.381  0.0478 -0.4972  0.3068
  158MOL   C13531849   4.958   1.638   5.418  0.8828 -0.1504  0.4286
  158MOL   H13631850   5.251   1.378   5.205  0.5203 -1.5651  0.0698
  158MOL   H13731851   5.118   1.295   5.296  1.6485 -2.4042  0.9883
  158MOL   H13831852   5.216   1.568   5.363  0.1116 -0.1697  2.8404
  158MOL   H13931853   4.929   1.436   5.373 -3.0715  3.2381 -1.5529
  158MOL   H14031854   4.870   1.651   5.356  0.9279 -1.0613  0.1632
  158MOL   H14131855   5.024   1.718   5.384 -1.4110  1.5513 -0.1024
  158MOL   C14231856   4.916   1.672   5.567 -0.1073 -0.0270 -0.2532
  158MOL   C14331857   4.821   1.788   5.568 -0.2799  0.3611 -0.7891
  158MOL   C14431858   4.697   1.796   5.623 -1.0059  0.2904 -0.1172
  158MOL   C14531859   4.626   1.935   5.628 -0.3845  0.0531  0.4783
  158MOL   H14631860   4.872   1.579   5.604  1.5017 -1.1378 -1.0538
  158MOL   H14731861   5.013   1.699   5.611 -0.0566 -3.9296  2.3556
  158MOL   H14831862   4.861   1.881   5.531 -1.9039  0.7782 -1.5925
  158MOL   H14931863   4.647   1.716   5.675 -0.3215 -0.3417 -0.4355
  158MOL   H15031864   4.520   1.912   5.637 -0.3394 -0.7915 -0.9538
  158MOL   H15131865   4.634   1.978   5.528 -0.1994 -1.7696 -0.3120
  158MOL   C15231866   4.670   2.014   5.746 -0.9253 -0.0162  0.0273
  158MOL   C15331867   4.586   2.144   5.753 -0.3568  0.4705  0.6635
  158MOL   C15431868   4.478   2.159   5.834 -0.2333  0.1313  0.8688
  158MOL   C15531869   4.392   2.280   5.848  0.4937  0.3742  0.5476
  158MOL   H15631870   4.642   1.960   5.837 -0.1034 -1.0713 -0.3254
  158MOL   H15731871   4.777   2.036   5.753 -0.8802 -0.0100 -0.6592
  158MOL   H15831872   4.605   2.229   5.688  0.6998  0.9437  1.5556
  158MOL   H15931873   4.459   2.072   5.896 -2.4521  0.3696  0.5897
  158MOL   H16031874   4.294   2.262   5.803  0.8083 -1.7378  0.6623
  158MOL   H16131875   4.429   2.366   5.791  1.2170 -0.1896  0.1498
  158MOL   C16231876   4.372   2.318   5.995 -0.2034 -0.1645 -0.3477
  158MOL   C16331877   4.308   2.455   6.017  0.1754 -0.2111 -0.0734
  158MOL   C16431878   4.220   2.488   6.113  0.3016  0.2326  0.8670
  158MOL   C16531879   4.172   2.630   6.133 -0.7126  0.4542  0.2368
  158MOL   H16631880   4.322   2.240   6.053  0.2526  0.4947  0.9417
  158MOL   H16731881   4.470   2.333   6.039 -0.1347  2.0782 -1.2446
  158MOL   H16831882   4.350   2.525   5.947  0.4045  0.6704  0.9364
  158MOL   H16931883   4.200   2.406   6.181 -2.1721  0.2499  0.2320
  158MOL   H17031884   4.206   2.691   6.050  0.9084  0.8737  1.1921
  158MOL   H17131885   4.217   2.669   6.224  0.9730  2.7093 -1.5173
  158MOL   C17231886   4.016   2.642   6.154 -0.3788  0.0766  0.3525
  158MOL   C17331887   3.955   2.645   6.016  0.4632  0.4910  0.4805
  158MOL   C17431888   3.849   2.571   5.979 -0.0617  0.3912  0.0177
  158MOL   C17531889   3.776   2.576   5.845 -0.6831  0.6844 -0.6750
  158MOL   H17631890   3.966   2.566   6.214 -0.4299 -0.4789 -0.3937
  158MOL   H17731891   3.987   2.730   6.213 -3.5177 -1.6836  1.6026
  158MOL   H17831892   3.996   2.712   5.942  0.1764  0.1648  0.0282
  158MOL   H17931893   3.795   2.507   6.047  0.3287 -1.6422 -1.5672
  158MOL   H18031894   3.752   2.474   5.818 -0.7958  0.8720 -1.2908
  158MOL   H18131895   3.851   2.618   5.778  1.0063 -0.5811  0.3848
  158MOL   C18231896   3.648   2.660   5.838 -0.0209 -1.0923 -0.5206
  158MOL   C18331897   3.662   2.797   5.893 -0.6015 -0.0468 -0.2957
  158MOL   C18431898   3.749   2.895   5.855 -1.0268  0.4006 -0.2623
  158MOL   C18531899   3.758   3.035   5.925 -0.3541  1.1093 -0.0205
  158MOL   H18631900   3.599   2.663   5.741  0.7800  0.4196 -0.8950
  158MOL   H18731901   3.578   2.622   5.913  1.4492  0.0435  1.4859
  158MOL   H18831902   3.599   2.814   5.979  1.0203 -2.5926  1.4336
  158MOL   H18931903   3.819   2.875   5.774  0.9042  2.3674  0.8569
  158MOL   H19031904   3.685   3.042   6.006 -0.2238 -1.8335  0.3974
  158MOL   H19131905   3.721   3.111   5.856 -3.4378 -2.9136 -3.0414
  158MOL   C19231906   3.902   3.054   5.964 -0.3314 -0.0561  0.0210
  158MOL   C19331907   3.913   3.198   6.017 -0.6725 -0.3261  0.1923
  158MOL   C19431908   3.942   3.304   5.939  0.2573  0.6890 -0.4972
  158MOL   C19531909   3.961   3.442   5.991 -0.9273 -0.0617 -0.2595
  158MOL   H19631910   3.946   2.973   6.022 -0.9793  0.3375  1.0920
  158MOL   H19731911   3.953   3.053   5.868 -0.9132 -0.8659 -0.2808
  158MOL   H19831912   3.900   3.201   6.124  3.2133 -1.1326  0.7360
  158MOL   H19931913   3.943   3.300   5.831 -0.7751  2.0558 -0.5895
  158MOL   H20031914   4.044   3.489   5.939  0.0065 -0.9126  0.4441
  158MOL   H20131915   3.977   3.447   6.099  0.6561  0.0345 -0.4890
  158MOL   H20231916   3.877   3.509   5.973 -3.0574 -2.9592 -1.4213
  159MOL     C131917   2.487   5.813   0.019 -0.2507 -0.3527  0.2904
  159MOL     C231918   2.601   5.859   0.106  0.4405 -0.6769 -0.0871
  159MOL     C331919   2.691   5.781   0.156 -0.2841 -0.2838  0.1152
  159MOL     C431920   2.818   5.821   0.230  0.7121  0.4607  0.4102
  159MOL     H531921   2.388   5.826   0.064 -0.7272  0.3676 -0.9454
  159MOL     H631922   2.510   5.710   7.969  0.0327 -0.0162 -0.7404
  159MOL     H731923   2.603   5.966   0.124 -0.2789 -0.8926  1.3790
  159MOL     H831924   2.682   5.679   0.122  0.7110 -0.3358 -0.0148
  159MOL     H931925   2.806   5.756   0.317 -1.4614 -2.9964 -2.3259
  159MOL    H1031926   2.814   5.929   0.237 -0.2981  0.3874  1.0046
  159MOL    H1131927   2.494   5.876   7.908 -1.2917 -0.2432  0.2781
  159MOL    C1231928   2.945   5.779   0.152  0.7145 -0.4741  0.7032
  159MOL    C1331929   3.066   5.803   0.229 -0.0539  0.6666 -0.0275
  159MOL    C1431930   3.136   5.915   0.224 -0.2712  0.0917 -0.0794
  159MOL    C1531931   3.261   5.935   0.307  0.2196 -0.4208  0.0850
  159MOL    H1631932   2.935   5.678   0.110 -2.4365  0.9737 -2.2823
  159MOL    H1731933   2.952   5.830   0.057 -3.0604  0.1582  0.6863
  159MOL    H1831934   3.104   5.726   0.295  0.5028 -0.5217 -1.6782
  159MOL    H1931935   3.114   5.986   0.146  1.5561  0.7252 -0.0495
  159MOL    H2031936   3.247   6.020   0.374 -1.7605 -1.8228  1.4966
  159MOL    H2131937   3.342   5.971   0.244  0.5623 -1.1468  0.1070
  159MOL    C2231938   3.316   5.811   0.383  0.0959  0.1183  0.0575
  159MOL    C2331939   3.462   5.835   0.415 -0.0764  0.5451 -0.5291
  159MOL    C2431940   3.504   5.860   0.541 -0.7520 -0.2553 -0.0444
  159MOL    C2531941   3.648   5.875   0.580 -0.3234 -0.1201  0.4514
  159MOL    H2631942   3.265   5.782   0.475  0.9013  1.7162  1.0349
  159MOL    H2731943   3.317   5.720   0.323  1.7185  0.0598  0.1344
  159MOL    H2831944   3.537   5.818   0.339  0.8958 -1.5113  0.8416
  159MOL    H2931945   3.435   5.850   0.623  1.1970 -0.8256  1.5537
  159MOL    H3031946   3.717   5.860   0.497  0.8608 -1.2343  1.6103
  159MOL    H3131947   3.663   5.800   0.658 -0.0487 -0.2209  0.3024
  159MOL    C3231948   3.676   6.015   0.633  0.2131  0.2320 -0.4082
  159MOL    C3331949   3.612   6.042   0.765  0.0675  0.7122 -0.3140
  159MOL    C3431950   3.538   6.148   0.801  0.5007  0.1270  0.1535
  159MOL    C3531951   3.490   6.162   0.945 -1.7271 -0.5879 -0.1234
  159MOL    H3631952   3.784   6.018   0.652  0.4826  0.3476 -1.9290
  159MOL    H3731953   3.659   6.093   0.560 -3.7022 -0.1471  0.0015
  159MOL    H3831954   3.651   5.977   0.842  1.0423  0.8393 -0.6943
  159MOL    H3931955   3.523   6.218   0.721 -0.2159 -0.2859 -0.0791
  159MOL    H4031956   3.530   6.080   1.004  0.2736  1.2438  1.1287
  159MOL    H4131957   3.381   6.156   0.941 -1.7898  0.7474 -0.7063
  159MOL    C4231958   3.531   6.296   0.990  0.5661  0.1254  0.2302
  159MOL    C4331959   3.469   6.334   1.134 -0.8837 -0.2139  0.4332
  159MOL    C4431960   3.428   6.450   1.173  0.8358 -0.2277 -0.6268
  159MOL    C4531961   3.384   6.485   1.312  1.1266 -0.6900 -0.3754
  159MOL    H4631962   3.640   6.295   1.002  0.9300 -1.1104 -2.7476
  159MOL    H4731963   3.516   6.375   0.917  2.6434  0.1481 -0.1965
  159MOL    H4831964   3.467   6.253   1.204  1.1331 -0.8286 -0.1817
  159MOL    H4931965   3.432   6.527   1.097 -0.2563  2.3964  1.8912
  159MOL    H5031966   3.287   6.532   1.325  2.6595  2.0762  1.6428
  159MOL    H5131967   3.457   6.559   1.342  3.6184 -3.2750  0.1621
  159MOL    C5231968   3.396   6.361   1.404  0.3078 -0.2621  0.1392
  159MOL    C5331969   3.352   6.415   1.543  0.0709  0.3452 -0.7489
  159MOL    C5431970   3.243   6.392   1.616  0.2252 -0.6050 -0.3390
  159MOL    C5531971   3.221   6.473   1.741 -0.2255 -0.3862 -0.0667
  159MOL    H5631972   3.332   6.276   1.381  1.0266 -0.6130 -0.5560
  159MOL    H5731973   3.500   6.332   1.415 -0.3419 -2.0332  2.0971
  159MOL    H5831974   3.422   6.483   1.588 -2.3229  1.5187  1.3356
  159MOL    H5931975   3.171   6.315   1.594 -0.2824 -0.0308 -0.6994
  159MOL    H6031976   3.315   6.508   1.784 -1.4758  0.6234  1.9700
  159MOL    H6131977   3.170   6.401   1.806 -0.9808 -2.0726 -2.4555
  159MOL    C6231978   3.111   6.587   1.723  0.1804 -0.7740  0.4403
  159MOL    C6331979   3.173   6.721   1.673  0.3514 -0.0224 -1.0072
  159MOL    C6431980   3.135   6.783   1.559 -0.4833  0.0180  0.1806
  159MOL    C6531981   3.210   6.903   1.500  0.6438  0.4437  0.3616
  159MOL    H6631982   3.030   6.552   1.658 -0.4876  1.8413 -0.2224
  159MOL    H6731983   3.061   6.603   1.818  0.0889 -0.1253  0.2901
  159MOL    H6831984   3.256   6.768   1.724  0.9061  0.8040 -2.6135
  159MOL    H6931985   3.054   6.745   1.498  0.8212  0.4341 -1.8687
  159MOL    H7031986   3.271   6.948   1.578  0.9225  1.1133 -0.2400
  159MOL    H7131987   3.139   6.980   1.471  0.3146 -0.3876 -1.1318
  159MOL    C7231988   3.291   6.862   1.374  0.1710 -0.0455  0.2493
  159MOL    C7331989   3.369   6.967   1.290  0.6213  0.5530 -0.3181
  159MOL    C7431990   3.388   7.096   1.315 -0.2576  0.4444 -0.3960
  159MOL    C7531991   3.467   7.202   1.231 -0.6746 -0.6223  0.7736
  159MOL    H7631992   3.374   6.797   1.399  0.8616  1.0261  0.8124
  159MOL    H7731993   3.237   6.807   1.298 -1.5161  1.6461  0.1889
  159MOL    H7831994   3.406   6.922   1.199 -0.1388  0.1186 -0.4175
  159MOL    H7931995   3.353   7.151   1.402  1.0024  0.3396  0.1851
  159MOL    H8031996   3.471   7.156   1.133 -0.7150  0.1048  0.4336
  159MOL    H8131997   3.568   7.199   1.273  0.4512 -1.5881 -1.9217
  159MOL    C8231998   3.413   7.346   1.239  0.0102 -0.3982  0.4804
  159MOL    C8331999   3.484   7.439   1.141  0.7288  0.0363 -0.3574
  159MOL    C8432000   3.447   7.472   1.015  0.3816  0.3126  0.2801
  159MOL    C8532001   3.527   7.573   0.930 -1.0238  0.0742 -0.4030
  159MOL    H8632002   3.309   7.337   1.210  0.5868 -1.4819 -1.2695
  159MOL    H8732003   3.425   7.396   1.336  2.5741  1.4367 -0.7161
  159MOL    H8832004   3.572   7.487   1.182  0.6930 -1.0315  0.9961
  159MOL    H8932005   3.354   7.432   0.979 -0.0439  0.9493  0.6648
  159MOL    H9032006   3.611   7.617   0.983  1.1901 -3.7548 -0.5703
  159MOL    H9132007   3.452   7.651   0.912 -0.0050  1.3158  0.6697
  159MOL    C9232008   3.574   7.524   0.794 -0.1433 -0.1504 -0.1510
  159MOL    C9332009   3.648   7.631   0.714 -0.2364  0.3780 -0.0177
  159MOL    C9432010   3.628   7.656   0.580 -0.1738  0.7646 -0.1706
  159MOL    C9532011   3.707   7.743   0.491 -0.1166  0.1292  0.1082
  159MOL    H9632012   3.641   7.439   0.799  0.0528  0.1126  2.2116
  159MOL    H9732013   3.494   7.481   0.734  0.1150  1.8916 -2.0456
  159MOL    H9832014   3.708   7.700   0.770 -1.0301 -0.1218  1.4880
  159MOL    H9932015   3.565   7.584   0.531 -0.5261  0.0571  1.2841
  159MOL   H10032016   3.802   7.765   0.539  0.8283 -1.3014 -1.0556
  159MOL   H10132017   3.659   7.840   0.481  0.1463  0.0512 -2.4027
  159MOL   C10232018   3.720   7.691   0.344  0.9343 -0.1923 -0.3253
  159MOL   C10332019   3.789   7.789   0.248 -0.5619 -0.1658 -0.2826
  159MOL   C10432020   3.920   7.781   0.220  0.0247  0.1116 -0.1916
  159MOL   C10532021   3.985   7.880   0.126 -0.8843 -0.4856 -0.5675
  159MOL   H10632022   3.777   7.598   0.344  0.9602 -0.1750  0.7448
  159MOL   H10732023   3.622   7.668   0.304  0.1606 -0.1585  1.5290
  159MOL   H10832024   3.722   7.863   0.207  0.7967  2.1339  1.5182
  159MOL   H10932025   3.981   7.711   0.275 -0.1672 -0.3309 -0.5388
  159MOL   H11032026   4.047   7.948   0.185  0.5807 -2.2217 -0.0767
  159MOL   H11132027   3.904   7.943   0.088 -0.7700  1.2827  1.9995
  159MOL   C11232028   4.055   7.803   0.010 -0.4378 -0.6626  0.0305
  159MOL   C11332029   4.101   7.903   7.880 -0.9279  0.6447  0.0532
  159MOL   C11432030   4.084   7.883   7.750 -0.1803 -0.0625 -0.1853
  159MOL   C11532031   4.113   0.009   7.645  0.3547 -0.1766 -0.1162
  159MOL   H11632032   4.139   7.744   0.045 -0.1621  0.7348  1.8164
  159MOL   H11732033   3.980   7.739   7.942  0.2472  0.0477 -2.2189
  159MOL   H11832034   4.150   0.016   7.915  1.0967 -0.0641 -0.9183
  159MOL   H11932035   4.047   7.789   7.710 -0.0675 -1.3631  2.6501
  159MOL   H12032036   4.181   7.928   7.582  0.1074 -1.6946  0.9744
  159MOL   H12132037   4.165   0.097   7.681 -0.0575  0.6901 -1.5779
  159MOL   C12232038   3.996   0.062   7.574  0.2977  0.4021 -0.2311
  159MOL   C12332039   4.032   0.149   7.461  0.0448 -0.6188  0.0463
  159MOL   C12432040   3.991   0.136   7.332 -0.2925  0.3814  0.3702
  159MOL   C12532041   4.012   0.241   7.218 -0.1876 -0.3599 -0.5975
  159MOL   H12632042   3.941   7.956   7.529 -0.7217  1.8668 -1.7813
  159MOL   H12732043   3.928   0.120   7.637 -1.1956 -0.6053 -0.8799
  159MOL   H12832044   4.090   0.238   7.481 -0.4693 -0.5215  1.1504
  159MOL   H12932045   3.933   0.048   7.309  0.8716 -0.5619  0.9743
  159MOL   H13032046   3.914   0.258   7.174 -0.1187  1.2867 -0.1671
  159MOL   H13132047   4.065   0.204   7.130 -0.2350 -0.7073 -0.4805
  159MOL   C13232048   4.078   0.372   7.253 -0.8118 -0.4355  0.1782
  159MOL   C13332049   4.056   0.469   7.142 -0.1638 -0.1069 -0.3496
  159MOL   C13432050   4.157   0.505   7.060 -0.6484 -0.8648  0.4281
  159MOL   C13532051   4.134   0.600   6.940  0.4759  0.1287  0.0722
  159MOL   H13632052   4.035   0.416   7.342 -1.6309  1.3989 -1.0957
  159MOL   H13732053   4.181   0.349   7.280 -0.0945  2.1004 -0.2988
  159MOL   H13832054   3.959   0.515   7.136 -0.6481 -1.1178 -0.3688
  159MOL   H13932055   4.252   0.457   7.082  1.2652  3.7391  2.9186
  159MOL   H14032056   4.212   0.675   6.953  0.8208 -0.4919  1.6757
  159MOL   H14132057   4.037   0.649   6.949  0.7114  1.1901 -2.5582
  159MOL   C14232058   4.140   0.525   6.814 -0.2334 -0.0910  0.1317
  159MOL   C14332059   4.172   0.608   6.685 -0.3527  0.5227 -0.5556
  159MOL   C14432060   4.203   0.744   6.682  0.0784  0.2348  0.0646
  159MOL   C14532061   4.227   0.817   6.549 -0.4595  0.0243 -0.0453
  159MOL   H14632062   4.228   0.461   6.824  2.1721  3.1548  0.6052
  159MOL   H14732063   4.054   0.458   6.811  1.5093 -2.4564  0.9445
  159MOL   H14832064   4.161   0.555   6.592  1.6323 -0.0779 -0.4826
  159MOL   H14932065   4.211   0.799   6.775  2.6751 -0.3939  0.2629
  159MOL   H15032066   4.149   0.892   6.544  0.7485  1.6161  3.2586
  159MOL   H15132067   4.212   0.748   6.465  1.4542  2.1191 -2.1538
  159MOL   C15232068   4.362   0.888   6.558 -0.2127 -0.2799 -0.2597
  159MOL   C15332069   4.364   1.001   6.658  0.4062 -0.8056 -0.0208
  159MOL   C15432070   4.358   1.128   6.626  0.3510 -0.3887 -0.1361
  159MOL   C15532071   4.351   1.246   6.723  0.0351 -0.7242  0.1705
  159MOL   H15632072   4.440   0.814   6.572  1.1133  0.8710 -1.3771
  159MOL   H15732073   4.381   0.931   6.460  0.5573 -1.0857 -0.4568
  159MOL   H15832074   4.352   0.964   6.759  1.2193 -1.0645 -0.0170
  159MOL   H15932075   4.346   1.158   6.523  1.0579  2.8224  0.6702
  159MOL   H16032076   4.270   1.307   6.683 -0.1248 -1.5982 -0.8733
  159MOL   H16132077   4.448   1.296   6.727  0.4598 -1.6231  1.8780
  159MOL   C16232078   4.313   1.206   6.864  0.0031 -0.8724  0.6331
  159MOL   C16332079   4.281   1.320   6.954 -0.1092  0.0067  0.4551
  159MOL   C16432080   4.337   1.344   7.070  0.2359  0.2596 -0.2955
  159MOL   C16532081   4.301   1.455   7.167 -0.2491  0.1126 -0.4974
  159MOL   H16632082   4.239   1.126   6.869  0.3072 -1.2535 -0.8771
  159MOL   H16732083   4.407   1.160   6.894  0.8380 -0.7790 -1.7629
  159MOL   H16832084   4.221   1.400   6.913 -1.0239 -0.5046  0.7834
  159MOL   H16932085   4.406   1.266   7.099 -1.1699 -0.6761  0.5749
  159MOL   H17032086   4.222   1.510   7.116  0.4555 -0.0869 -1.8464
  159MOL   H17132087   4.383   1.526   7.178  0.3683 -0.6812  0.0997
  159MOL   C17232088   4.260   1.400   7.309  1.1867 -0.6351 -0.4801
  159MOL   C17332089   4.366   1.326   7.393 -0.1741  0.5941 -0.7775
  159MOL   C17432090   4.375   1.334   7.525  0.4858  0.4947  0.3628
  159MOL   C17532091   4.468   1.255   7.604  0.7915 -0.8583 -0.1310
  159MOL   H17632092   4.230   1.483   7.373 -1.8676 -1.5122 -0.7048
  159MOL   H17732093   4.174   1.334   7.303  0.2906  0.5726 -1.2339
  159MOL   H17832094   4.437   1.266   7.338  1.6730  1.9311  0.1276
  159MOL   H17932095   4.313   1.399   7.585  0.1118  0.4651  0.0068
  159MOL   H18032096   4.540   1.194   7.550 -1.7873 -3.0127 -1.2919
  159MOL   H18132097   4.402   1.187   7.659 -1.5435  0.3432 -1.3929
  159MOL   C18232098   4.552   1.343   7.696 -0.1197  0.5479  0.3471
  159MOL   C18332099   4.645   1.420   7.610 -0.6036  0.6365  0.0934
  159MOL   C18432100   4.629   1.550   7.576  0.8494 -0.3668  0.0507
  159MOL   C18532101   4.721   1.622   7.481 -0.0136  0.5725 -0.0903
  159MOL   H18632102   4.489   1.416   7.746 -0.3454  1.0785 -0.6945
  159MOL   H18732103   4.611   1.289   7.770  2.3542  3.5619  0.6235
  159MOL   H18832104   4.727   1.364   7.567 -2.1815  0.2944 -2.6233
  159MOL   H18932105   4.541   1.600   7.615  1.1625  0.9129 -0.8414
  159MOL   H19032106   4.815   1.569   7.470 -1.2256 -1.4996 -0.6065
  159MOL   H19132107   4.749   1.718   7.525  0.4548  0.8715 -1.0306
  159MOL   C19232108   4.668   1.634   7.340  0.4620  0.1312 -0.6804
  159MOL   C19332109   4.679   1.509   7.265  0.0524  0.8609  0.3730
  159MOL   C19432110   4.746   1.503   7.147 -0.5212 -0.0488 -0.7901
  159MOL   C19532111   4.760   1.364   7.075  0.6514  0.2853  0.1680
  159MOL   H19632112   4.561   1.649   7.344  0.2984 -1.3278  1.4189
  159MOL   H19732113   4.708   1.723   7.291 -1.3490  2.7554  2.3943
  159MOL   H19832114   4.635   1.417   7.301  3.6131 -1.0489  0.1011
  159MOL   H19932115   4.797   1.589   7.105  0.4772 -1.2835 -2.1627
  159MOL   H20032116   4.778   1.390   6.971  1.7100  0.0446  0.2851
  159MOL   H20132117   4.670   1.303   7.084  0.5820  0.3479 -0.0984
  159MOL   H20232118   4.844   1.314   7.125  0.3097  1.0053  1.4936
  160MOL     C132119   7.891   2.451   7.798  0.2477  0.1750  0.2949
  160MOL     C232120   7.845   2.569   7.882  0.2552  0.0495  0.5792
  160MOL     C332121   7.801   2.548   0.027 -0.0231  0.1230 -1.1289
  160MOL     C432122   7.742   2.662   0.113  0.0152 -0.2262  0.1399
  160MOL     H532123   0.005   2.478   7.744 -0.0410 -0.9375 -0.7761
  160MOL     H632124   7.807   2.428   7.732 -0.4016 -1.9551  1.8207
  160MOL     H732125   7.843   2.664   7.829 -0.2295 -0.7078 -0.7742
  160MOL     H832126   7.774   2.449   0.058 -0.4458  0.8811  1.0230
  160MOL     H932127   7.642   2.636   0.148 -0.0387  0.4231  0.4930
  160MOL    H1032128   7.740   2.748   0.047  2.0506 -0.3649 -0.1387
  160MOL    H1132129   7.913   2.358   7.851 -1.6607 -1.4211 -1.6182
  160MOL    C1232130   7.825   2.694   0.234 -0.1742 -0.0226  0.2806
  160MOL    C1332131   7.791   2.824   0.308  0.7990 -0.7396  0.0585
  160MOL    C1432132   7.669   2.892   0.309  0.4321 -0.4044 -0.6080
  160MOL    C1532133   7.665   3.021   0.391 -0.3884  0.2504 -0.1753
  160MOL    H1632134   7.815   2.616   0.309 -0.6829  1.0318  1.3349
  160MOL    H1732135   7.933   2.698   0.216 -0.5339 -1.4043 -2.4638
  160MOL    H1832136   7.877   2.863   0.361  1.5578  0.4435 -1.9768
  160MOL    H1932137   7.582   2.848   0.261  0.1863 -1.7326  1.0045
  160MOL    H2032138   7.767   3.051   0.414 -0.5657  0.0548  0.9271
  160MOL    H2132139   7.615   2.984   0.481 -0.8318  0.6389 -0.2625
  160MOL    C2232140   7.608   3.135   0.316 -0.5649  0.1998 -0.1397
  160MOL    C2332141   7.640   3.263   0.384  0.2337  0.2613 -0.4302
  160MOL    C2432142   7.712   3.354   0.322  0.9606  0.0424  0.4089
  160MOL    C2532143   7.753   3.489   0.382  0.2205  0.5303 -0.2010
  160MOL    H2632144   7.660   3.139   0.220 -0.3971  1.3020 -0.0033
  160MOL    H2732145   7.503   3.128   0.290 -0.7673 -1.3094  0.9772
  160MOL    H2832146   7.591   3.284   0.478  0.5297 -1.5509  0.1505
  160MOL    H2932147   7.750   3.325   0.226 -1.5120 -1.3697 -0.1682
  160MOL    H3032148   7.686   3.536   0.455  1.4622  3.4873 -0.8879
  160MOL    H3132149   7.743   3.567   0.307 -1.7280 -0.6877 -1.2436
  160MOL    C3232150   7.900   3.489   0.432 -0.1069  0.1247  0.0108
  160MOL    C3332151   7.951   3.619   0.486 -0.2397 -0.5630  0.2216
  160MOL    C3432152   7.950   3.645   0.616  0.0603 -0.7723 -0.6033
  160MOL    C3532153   0.031   3.773   0.678 -0.2225 -0.0169  0.3260
  160MOL    H3632154   7.915   3.402   0.496  1.9229  0.5746  0.1739
  160MOL    H3732155   7.961   3.482   0.343 -0.9132  1.5409 -0.6731
  160MOL    H3832156   0.014   3.695   0.420 -2.3818 -0.9694 -1.6003
  160MOL    H3932157   7.909   3.577   0.689  0.4210  0.5034  0.8236
  160MOL    H4032158   0.045   3.752   0.784  1.4838  0.3493  0.1910
  160MOL    H4132159   7.938   3.853   0.657 -3.0063 -2.9402 -1.9433
  160MOL    C4232160   0.160   3.822   0.623 -0.3830 -0.6872 -0.4798
  160MOL    C4332161   0.172   3.971   0.654  0.3149  0.2584  0.1522
  160MOL    C4432162   0.284   4.033   0.683 -0.4936 -0.6472  0.1478
  160MOL    C4532163   0.299   4.179   0.715 -0.4770  0.2522  0.1805
  160MOL    H4632164   0.248   3.767   0.658  0.8400  1.5210 -0.0069
  160MOL    H4732165   0.166   3.821   0.514  0.9559  1.0010 -0.4446
  160MOL    H4832166   0.082   4.031   0.642 -0.3246 -1.1326 -2.3820
  160MOL    H4932167   0.377   3.979   0.682  0.8302  1.5878 -2.4222
  160MOL    H5032168   0.215   4.215   0.774 -0.5419  1.9794 -0.9341
  160MOL    H5132169   0.296   4.230   0.619 -3.0333 -1.2506 -0.5771
  160MOL    C5232170   0.435   4.207   0.790 -0.0189  0.0495 -0.0739
  160MOL    C5332171   0.539   4.195   0.688 -0.6692 -0.2647  0.4956
  160MOL    C5432172   0.595   4.298   0.633 -0.4639 -0.3768  0.4099
  160MOL    C5532173   0.703   4.296   0.529 -0.1681 -0.3911 -0.1414
  160MOL    H5632174   0.433   4.305   0.838 -2.0514  0.6588 -1.3632
  160MOL    H5732175   0.433   4.133   0.869  0.1346  2.2725  2.0840
  160MOL    H5832176   0.574   4.096   0.661 -3.7424 -1.2305 -0.0787
  160MOL    H5932177   0.569   4.399   0.663 -0.3220 -0.0268 -0.6140
  160MOL    H6032178   0.723   4.191   0.504  2.6970  0.0057  0.2397
  160MOL    H6132179   0.800   4.330   0.568 -0.9814  1.3059  0.4545
  160MOL    C6232180   0.659   4.374   0.399 -1.0166  0.3550  0.1889
  160MOL    C6332181   0.565   4.287   0.318  0.1076 -0.4613  0.3162
  160MOL    C6432182   0.581   4.236   0.195  0.2143  0.4482  0.6650
  160MOL    C6532183   0.477   4.150   0.118 -0.6555 -0.1582 -1.3979
  160MOL    H6632184   0.608   4.467   0.419 -1.0195  0.2478  0.6700
  160MOL    H6732185   0.748   4.390   0.337 -1.4008  0.0915 -0.4414
  160MOL    H6832186   0.468   4.281   0.365 -0.8097 -0.8890 -1.5758
  160MOL    H6932187   0.682   4.253   0.159  0.1242 -4.4405 -2.3836
  160MOL    H7032188   0.538   4.067   0.080 -1.2712  0.3428 -3.5617
  160MOL    H7132189   0.446   4.209   0.032  0.1003  1.1163 -0.8091
  160MOL    C7232190   0.356   4.088   0.193  0.1633 -0.4414 -0.1278
  160MOL    C7332191   0.273   4.012   0.100  0.5817  0.3664  0.2118
  160MOL    C7432192   0.244   3.884   0.117 -0.3713  0.3446  0.5584
  160MOL    C7532193   0.151   3.805   0.019 -0.5938 -0.4905  0.2600
  160MOL    H7632194   0.370   4.028   0.283 -2.3666  0.4956  0.9374
  160MOL    H7732195   0.301   4.172   0.235  0.5826  0.4356 -1.3189
  160MOL    H7832196   0.224   4.067   0.021 -2.4130  1.7611  2.9402
  160MOL    H7932197   0.291   3.826   0.196 -2.1502 -1.0121  0.6551
  160MOL    H8032198   0.200   3.711   7.973 -3.6017 -1.1639 -4.0683
  160MOL    H8132199   0.143   3.862   7.903 -2.0906  0.5253  0.9872
  160MOL    C8232200   0.015   3.773   0.086  0.1358 -0.4998  0.5283
  160MOL    C8332201   7.894   3.704   7.969  0.2659  0.7102 -0.4083
  160MOL    C8432202   7.842   3.585   0.022  0.2997  0.6668  0.2637
  160MOL    C8532203   7.743   3.503   7.915 -0.1071 -0.5468 -0.1552
  160MOL    H8632204   0.031   3.704   0.168 -1.0728  0.2617  1.4191
  160MOL    H8732205   7.941   3.865   0.115 -0.4622 -0.7746  0.3523
  160MOL    H8832206   7.869   3.757   7.878  0.1075  0.2609 -0.6284
  160MOL    H8932207   7.876   3.545   0.116 -1.1526  0.0795  0.5412
  160MOL    H9032208   7.701   3.566   7.837 -1.9238 -0.3139  0.9739
  160MOL    H9132209   7.667   3.468   0.008  0.5007 -2.0103 -0.1902
  160MOL    C9232210   7.812   3.380   7.848  0.2273  0.7192  0.1091
  160MOL    C9332211   7.915   3.418   7.749 -0.1615 -0.2956  0.6571
  160MOL    C9432212   0.060   3.359   7.740  1.6027 -0.4872 -0.3715
  160MOL    C9532213   0.164   3.397   7.632  0.4153  0.7329  0.7835
  160MOL    H9632214   7.845   3.305   7.920  0.6762  0.4448 -0.3841
  160MOL    H9732215   7.739   3.331   7.784  1.8117 -0.5658 -0.7575
  160MOL    H9832216   7.886   3.493   7.677 -0.9364  0.0260  1.3062
  160MOL    H9932217   0.082   3.277   7.807  0.7184 -0.1582  0.3405
  160MOL   H10032218   0.109   3.460   7.563  0.9552  2.8667  2.2550
  160MOL   H10132219   0.192   3.305   7.580  2.2952  1.9058 -0.3363
  160MOL   C10232220   0.289   3.458   7.689 -0.2919  0.0626  0.3406
  160MOL   C10332221   0.379   3.532   7.590  0.8136  0.4075 -0.3064
  160MOL   C10432222   0.424   3.658   7.597 -0.2662  0.2993 -0.0727
  160MOL   C10532223   0.511   3.723   7.493  0.0511 -0.4241  0.1512
  160MOL   H10632224   0.268   3.523   7.774  0.3338  1.9271 -0.9185
  160MOL   H10732225   0.342   3.376   7.738  1.4487  1.1887  0.3640
  160MOL   H10832226   0.401   3.464   7.509  0.8515  1.3162 -1.0673
  160MOL   H10932227   0.413   3.719   7.685  4.0104 -0.6401  1.2219
  160MOL   H11032228   0.530   3.653   7.411  0.2692 -1.2813  0.9227
  160MOL   H11132229   0.610   3.733   7.536 -0.5724 -3.1991  2.4154
  160MOL   C11232230   0.460   3.860   7.447  1.0734 -0.3322  0.5062
  160MOL   C11332231   0.564   3.950   7.379 -0.2120 -0.2864 -0.0883
  160MOL   C11432232   0.551   4.006   7.254  0.3439  0.1948  0.1843
  160MOL   C11532233   0.651   4.102   7.199 -0.4322 -0.2359 -0.1487
  160MOL   H11632234   0.383   3.848   7.371 -0.1524 -0.0919  1.6861
  160MOL   H11732235   0.407   3.920   7.521 -0.9963 -1.2566 -0.1651
  160MOL   H11832236   0.640   3.985   7.447 -1.4178  0.6012  0.8089
  160MOL   H11932237   0.468   3.974   7.193  1.8915  1.0610 -2.4165
  160MOL   H12032238   0.713   4.143   7.279 -0.1426 -2.0371  0.5719
  160MOL   H12132239   0.610   4.193   7.156  3.0715  1.1753 -0.6342
  160MOL   C12232240   0.734   4.036   7.090  0.5342  0.5204 -0.3126
  160MOL   C12332241   0.834   4.120   7.022  0.2138  0.3696  0.6204
  160MOL   C12432242   0.961   4.085   7.022  0.3892  0.6362  0.6359
  160MOL   C12532243   1.079   4.157   6.960 -0.7570  0.5154  0.2308
  160MOL   H12632244   0.771   3.949   7.144 -0.5569 -1.2398 -2.3031
  160MOL   H12732245   0.662   4.007   7.013 -0.1417  2.6831 -0.5420
  160MOL   H12832246   0.793   4.206   6.970 -0.3546 -0.9749 -1.1883
  160MOL   H12932247   0.995   3.998   7.074  0.6611  0.3961  0.0646
  160MOL   H13032248   1.161   4.165   7.031 -0.1347 -0.1370 -0.4216
  160MOL   H13132249   1.056   4.263   6.945 -2.4107  0.0814 -0.4463
  160MOL   C13232250   1.121   4.077   6.835  0.3395 -0.3555 -0.0458
  160MOL   C13332251   1.049   4.119   6.711  0.1312 -0.1315 -0.3334
  160MOL   C13432252   1.112   4.180   6.605 -0.6010  1.5652  0.3209
  160MOL   C13532253   1.046   4.215   6.473  0.0008  0.0725  0.6363
  160MOL   H13632254   1.227   4.090   6.810 -0.3023  1.2448 -2.0300
  160MOL   H13732255   1.099   3.972   6.854  0.5067 -0.4429 -0.3366
  160MOL   H13832256   0.947   4.088   6.699  0.0673 -0.2701  0.5588
  160MOL   H13932257   1.214   4.214   6.606 -0.3100  0.7877 -1.5818
  160MOL   H14032258   0.959   4.154   6.450  0.6806  0.1810 -2.4184
  160MOL   H14132259   1.112   4.180   6.395 -2.9190 -0.2150 -1.7950
  160MOL   C14232260   0.998   4.368   6.470 -0.2436  0.0472  0.3922
  160MOL   C14332261   1.114   4.470   6.456 -0.2544 -0.6893  0.1379
  160MOL   C14432262   1.143   4.557   6.552 -0.1205  0.5538 -0.0576
  160MOL   C14532263   1.259   4.648   6.540 -0.2183  0.0582 -0.1709
  160MOL   H14632264   0.920   4.381   6.395  0.9005  0.1033 -0.8014
  160MOL   H14732265   0.963   4.383   6.572 -1.0882  0.1992  0.0895
  160MOL   H14832266   1.171   4.453   6.365 -1.6111 -0.9501 -0.6797
  160MOL   H14932267   1.088   4.560   6.645 -0.9037 -2.5377 -0.3576
  160MOL   H15032268   1.231   4.735   6.600  0.9202  0.2182  0.1439
  160MOL   H15132269   1.274   4.683   6.437  1.3887 -2.7776 -0.9463
  160MOL   C15232270   1.398   4.591   6.586  0.1523  0.3832  0.5076
  160MOL   C15332271   1.447   4.491   6.482 -0.0878  0.7718  0.0465
  160MOL   C15432272   1.471   4.359   6.505  0.0393  0.0027 -0.1060
  160MOL   C15532273   1.513   4.260   6.396 -0.0010 -0.8588  0.4141
  160MOL   H15632274   1.475   4.666   6.605 -1.1454  1.8603 -0.0112
  160MOL   H15732275   1.385   4.548   6.685 -2.5366  0.1378  0.0809
  160MOL   H15832276   1.441   4.515   6.377  0.6566  0.9042  0.0341
  160MOL   H15932277   1.462   4.326   6.607  0.8774 -1.8327 -0.6128
  160MOL   H16032278   1.602   4.214   6.439 -0.9173 -2.3211  0.7528
  160MOL   H16132279   1.536   4.311   6.303 -1.5909  2.3533  1.6782
  160MOL   C16232280   1.412   4.151   6.361  0.1590 -0.1991  0.6024
  160MOL   C16332281   1.440   4.072   6.235  0.4062 -0.0934 -0.0262
  160MOL   C16432282   1.342   4.053   6.142  0.2410 -0.7695 -0.0836
  160MOL   C16532283   1.363   3.970   6.015  1.1627  0.0140 -0.4158
  160MOL   H16632284   1.394   4.083   6.445 -0.5276  0.3684  0.9202
  160MOL   H16732285   1.322   4.210   6.345  0.2162 -0.9733 -2.9470
  160MOL   H16832286   1.537   4.025   6.226  1.4245  1.1863  3.6671
  160MOL   H16932287   1.248   4.103   6.160  0.4400 -0.4797  0.1549
  160MOL   H17032288   1.269   3.914   6.014  0.6460  0.8791 -1.1797
  160MOL   H17132289   1.450   3.905   6.023  1.1309 -0.1153 -1.1315
  160MOL   C17232290   1.382   4.059   5.890 -0.1075  0.2692 -0.1404
  160MOL   C17332291   1.435   3.970   5.782  0.0781  0.4206  0.0823
  160MOL   C17432292   1.558   3.975   5.733  0.1831 -0.0634  0.4250
  160MOL   C17532293   1.601   3.902   5.609 -0.1921 -0.4554 -0.5693
  160MOL   H17632294   1.300   4.125   5.860  0.7555  1.1886 -0.5263
  160MOL   H17732295   1.459   4.136   5.896  1.0306 -0.7817 -0.9817
  160MOL   H17832296   1.360   3.904   5.741  0.8348 -0.8376  0.7100
  160MOL   H17932297   1.640   4.027   5.780  0.8981  0.0046 -0.8931
  160MOL   H18032298   1.554   3.804   5.611 -1.7300  0.1658 -3.7227
  160MOL   H18132299   1.708   3.885   5.612 -0.3142 -1.1591 -0.1090
  160MOL   C18232300   1.573   3.974   5.482  0.4091  0.2833  0.1342
  160MOL   C18332301   1.652   3.908   5.370 -0.1612  0.5101  0.4771
  160MOL   C18432302   1.610   3.836   5.264 -0.0375  0.1245  0.3005
  160MOL   C18532303   1.704   3.778   5.161  0.1875 -0.0540 -0.7195
  160MOL   H18632304   1.468   3.973   5.452  0.3264  1.7429  0.3295
  160MOL   H18732305   1.609   4.077   5.488  1.5822 -0.2296  2.5104
  160MOL   H18832306   1.759   3.923   5.377  0.0316 -0.9713  0.9695
  160MOL   H18932307   1.506   3.818   5.243  0.3269 -2.3954  0.4894
  160MOL   H19032308   1.696   3.670   5.174 -1.4948  0.0980 -0.4115
  160MOL   H19132309   1.804   3.817   5.174  0.5650 -1.1923 -0.1446
  160MOL   C19232310   1.657   3.823   5.023  0.4536 -0.0879  0.2747
  160MOL   C19332311   1.758   3.814   4.914 -0.3555  0.4178  0.4267
  160MOL   C19432312   1.820   3.917   4.847  0.4325 -0.0599 -0.2824
  160MOL   C19532313   1.925   3.917   4.734  0.5395 -0.0719 -0.0005
  160MOL   H19632314   1.561   3.778   4.999  0.1397  1.2571 -1.0924
  160MOL   H19732315   1.623   3.927   5.021 -0.3674 -0.3819 -1.8462
  160MOL   H19832316   1.784   3.722   4.865  0.5509  0.9997 -0.2022
  160MOL   H19932317   1.822   4.013   4.895  0.3815 -0.9789  1.6007
  160MOL   H20032318   1.898   3.849   4.653  1.1998  1.8509 -1.9120
  160MOL   H20132319   2.019   3.887   4.782  0.1001 -0.6628  0.4886
  160MOL   H20232320   1.930   4.016   4.688 -0.3136 -0.1841 -0.3345
  161MOL     C132321   3.198   4.549   6.542  0.2785  0.3761 -0.5871
  161MOL     C232322   3.123   4.637   6.638  0.2454 -0.4228  0.2419
  161MOL     C332323   3.081   4.765   6.599 -0.1071  0.3475 -0.3614
  161MOL     C432324   3.004   4.851   6.696  0.0441  0.2552 -0.7102
  161MOL     H532325   3.295   4.518   6.580 -0.1366 -0.2001  0.0191
  161MOL     H632326   3.218   4.608   6.453 -0.3947  0.2275 -0.8466
  161MOL     H732327   3.100   4.594   6.734 -1.4468 -0.1306 -0.0133
  161MOL     H832328   3.109   4.811   6.506  1.3260  0.0406 -0.0978
  161MOL     H932329   2.993   4.802   6.793  0.9134 -0.7039 -1.0876
  161MOL    H1032330   2.907   4.872   6.652  0.3006  0.8007 -1.0080
  161MOL    H1132331   3.132   4.464   6.523 -1.8087  1.6226  0.8593
  161MOL    C1232332   3.077   4.985   6.696 -0.1406 -0.5246  0.7449
  161MOL    C1332333   3.047   5.097   6.798 -0.0002  0.4221  0.5897
  161MOL    C1432334   2.949   5.088   6.890  0.7038 -0.3087 -0.3070
  161MOL    C1532335   2.910   5.186   6.999 -0.4875 -0.3743 -0.4843
  161MOL    H1632336   3.185   4.970   6.699 -0.0788 -0.8643 -1.6946
  161MOL    H1732337   3.065   5.042   6.604 -1.1707  2.2794  2.5550
  161MOL    H1832338   3.111   5.184   6.804 -0.5607  0.8952 -0.2416
  161MOL    H1932339   2.885   5.002   6.903 -0.7302  0.7219 -0.5683
  161MOL    H2032340   2.968   5.278   6.990 -0.4553 -0.4189 -0.7599
  161MOL    H2132341   2.952   5.169   7.098  0.0236 -2.1591 -0.9993
  161MOL    C2232342   2.763   5.228   6.983  0.7471 -0.0244  0.5529
  161MOL    C2332343   2.722   5.328   7.089 -0.3519  0.1323 -0.3310
  161MOL    C2432344   2.640   5.305   7.194  0.3336  0.0402  0.3953
  161MOL    C2532345   2.601   5.411   7.306  0.5691  0.3987  0.6298
  161MOL    H2632346   2.748   5.274   6.885  1.2626 -1.0304 -0.0128
  161MOL    H2732347   2.696   5.141   6.983 -0.4584  0.8593 -1.0769
  161MOL    H2832348   2.760   5.428   7.072  0.0007 -0.2510 -1.9141
  161MOL    H2932349   2.604   5.206   7.215 -1.3518  0.4439 -0.5269
  161MOL    H3032350   2.494   5.429   7.298  0.4840 -0.6357 -0.7699
  161MOL    H3132351   2.648   5.506   7.280  2.6896 -0.3268  1.7293
  161MOL    C3232352   2.644   5.376   7.445 -0.0200 -0.3929 -0.1011
  161MOL    C3332353   2.610   5.488   7.543  0.0277  0.5715  0.7713
  161MOL    C3432354   2.697   5.564   7.605  0.1378  1.6285  0.1950
  161MOL    C3532355   2.663   5.680   7.698 -0.0912 -0.6500 -0.2090
  161MOL    H3632356   2.590   5.285   7.473  0.0912 -0.2621  0.5423
  161MOL    H3732357   2.752   5.359   7.450  0.5567  3.1236  0.9610
  161MOL    H3832358   2.502   5.497   7.551  0.1244  3.4232 -0.5225
  161MOL    H3932359   2.802   5.547   7.588  0.5552  0.9708  3.1543
  161MOL    H4032360   2.694   5.651   7.798  0.4763  0.1588 -0.1502
  161MOL    H4132361   2.559   5.708   7.709  0.4388  1.3165 -0.0787
  161MOL    C4232362   2.756   5.788   7.662  0.1038  0.6845  0.0018
  161MOL    C4332363   2.747   5.922   7.733  0.5222 -0.3406  0.5920
  161MOL    C4432364   2.853   5.972   7.793 -0.6049 -0.3225 -0.0615
  161MOL    C4532365   2.856   6.103   7.867  0.1881  0.3943  0.7615
  161MOL    H4632366   2.861   5.758   7.651  0.1842  0.8087  0.4480
  161MOL    H4732367   2.724   5.816   7.561 -0.7148  0.5478  0.2239
  161MOL    H4832368   2.649   5.968   7.735  0.6901 -0.0019  1.8228
  161MOL    H4932369   2.946   5.920   7.778  0.6716  1.2687  2.0663
  161MOL    H5032370   2.901   6.079   7.963  0.8157 -2.0016 -0.0938
  161MOL    H5132371   2.760   6.150   7.891 -1.3902 -2.0441 -0.4942
  161MOL    C5232372   2.932   6.210   7.791 -0.8316 -0.2614  0.5937
  161MOL    C5332373   2.932   6.334   7.878  0.2489 -0.3372 -0.0008
  161MOL    C5432374   2.855   6.437   7.846 -0.3069 -0.3678  0.5231
  161MOL    C5532375   2.845   6.564   7.924 -0.0634  0.4041  0.8878
  161MOL    H5632376   3.035   6.173   7.783 -0.4854  0.5224  1.3677
  161MOL    H5732377   2.893   6.218   7.689 -0.4914 -1.1785  0.3859
  161MOL    H5832378   2.976   6.344   7.977 -0.1301  0.0779  0.1316
  161MOL    H5932379   2.802   6.424   7.752 -0.9703 -1.9452  1.1012
  161MOL    H6032380   2.811   6.647   7.863 -3.3589 -2.1598 -0.9305
  161MOL    H6132381   2.940   6.593   7.968 -1.1130  0.9256  2.8386
  161MOL    C6232382   2.750   6.550   0.066  0.3496  0.3652  0.0494
  161MOL    C6332383   2.604   6.519   0.030 -0.7654 -0.1838 -0.9671
  161MOL    C6432384   2.543   6.403   0.059  0.2173 -0.3242 -0.1620
  161MOL    C6532385   2.390   6.389   0.042 -0.5808 -0.8250 -0.7181
  161MOL    H6632386   2.799   6.469   0.121 -0.2460 -0.6522 -0.8919
  161MOL    H6732387   2.748   6.637   0.131  1.0432  1.9569 -1.9861
  161MOL    H6832388   2.554   6.601   7.957 -1.0633  0.3466  0.1987
  161MOL    H6932389   2.598   6.319   0.097 -1.1518 -1.5579 -0.8654
  161MOL    H7032390   2.358   6.479   7.966  0.4733 -1.5585 -2.6792
  161MOL    H7132391   2.348   6.390   0.142  1.3204  0.2540  0.1046
  161MOL    C7232392   2.352   6.259   7.959 -0.0773  0.4171  0.3870
  161MOL    C7332393   2.217   6.245   7.902  0.2778  0.1440 -0.1684
  161MOL    C7432394   2.123   6.170   7.960 -0.3301 -0.3747  0.2484
  161MOL    C7532395   1.982   6.157   7.913  0.3196  0.2849  0.2143
  161MOL    H7632396   2.408   6.226   7.871 -3.2625  0.6152 -1.7890
  161MOL    H7732397   2.367   6.188   0.064 -1.5096 -0.4906 -0.1292
  161MOL    H7832398   2.201   6.309   7.816  1.2275  3.1903  1.8448
  161MOL    H7932399   2.140   6.131   0.082 -1.0581 -3.1631 -0.6773
  161MOL    H8032400   1.971   6.049   7.921  2.5789 -0.1528 -1.9344
  161MOL    H8132401   1.970   6.196   7.812 -1.5454 -0.9181 -0.0517
  161MOL    C8232402   1.880   6.241   0.023 -0.7805  0.6364 -0.0313
  161MOL    C8332403   1.739   6.207   7.976 -0.4388 -0.0988 -0.2929
  161MOL    C8432404   1.647   6.161   0.093  0.2209 -0.1046  0.6228
  161MOL    C8532405   1.499   6.147   0.068 -0.0082  0.8248  0.3856
  161MOL    H8632406   1.899   6.213   0.126  0.2290  0.1720 -0.3364
  161MOL    H8732407   1.896   6.348   0.019  0.3471  0.4521 -0.5525
  161MOL    H8832408   1.695   6.228   7.880 -1.0337  0.7077  0.1499
  161MOL    H8932409   1.686   6.143   0.193  2.5345 -0.1618 -0.2462
  161MOL    H9032410   1.471   6.179   7.945 -0.8317  1.5062  0.8215
  161MOL    H9132411   1.443   6.217   0.130 -2.5192 -0.1559 -0.7026
  161MOL    C9232412   1.454   6.008   0.092  0.9218 -0.1879 -0.0678
  161MOL    C9332413   1.317   5.970   0.049 -0.0560 -0.4276  0.1264
  161MOL    C9432414   1.295   5.858   7.951  0.4619 -0.0190 -0.6350
  161MOL    C9532415   1.158   5.797   7.902  0.5684 -0.1775 -0.1122
  161MOL    H9632416   1.527   5.943   0.043 -0.3148 -0.2444 -1.8547
  161MOL    H9732417   1.447   5.988   0.199  1.5485  0.0084  0.0117
  161MOL    H9832418   1.233   6.033   0.075  1.3414  0.6732  2.1284
  161MOL    H9932419   1.374   5.786   7.935  0.4127 -1.0230  2.9824
  161MOL   H10032420   1.081   5.854   7.954  0.0241  0.4754 -1.6209
  161MOL   H10132421   1.147   5.693   7.933  0.2377  0.2252  1.1930
  161MOL   C10232422   1.130   5.823   7.746  0.2831  0.2723 -0.5563
  161MOL   C10332423   1.212   5.721   7.659  0.2476 -0.5514 -0.2494
  161MOL   C10432424   1.153   5.606   7.625 -0.0026  0.1584  0.6536
  161MOL   C10532425   1.227   5.500   7.536 -0.4215  0.2037  0.0928
  161MOL   H10632426   1.030   5.794   7.713  0.4721 -1.0331 -0.0302
  161MOL   H10732427   1.148   5.927   7.719 -3.3266  1.0281 -0.3204
  161MOL   H10832428   1.313   5.745   7.629 -0.0842  1.3504  0.0852
  161MOL   H10932429   1.049   5.583   7.639  0.1745 -0.7385  0.5670
  161MOL   H11032430   1.332   5.528   7.531 -0.7949  1.3450 -1.5973
  161MOL   H11132431   1.176   5.494   7.440 -2.5543  1.2104  1.1282
  161MOL   C11232432   1.229   5.363   7.604 -0.3101  0.1103  0.6142
  161MOL   C11332433   1.311   5.265   7.523 -0.2215 -0.0866 -0.0933
  161MOL   C11432434   1.279   5.139   7.494  0.6149 -0.7085 -0.1907
  161MOL   C11532435   1.377   5.047   7.427 -0.7274  0.2167  0.6966
  161MOL   H11632436   1.281   5.359   7.700  0.7033 -0.6864  0.0445
  161MOL   H11732437   1.132   5.314   7.618 -0.1955 -0.0729  0.7707
  161MOL   H11832438   1.406   5.303   7.489 -0.0593  0.5798  1.0876
  161MOL   H11932439   1.183   5.102   7.528 -0.6624  1.9344 -0.7886
  161MOL   H12032440   1.376   4.952   7.479  1.1105  0.6742  1.6111
  161MOL   H12132441   1.471   5.098   7.445 -0.4552 -0.2849  0.6990
  161MOL   C12232442   1.336   5.025   7.275  0.1723 -0.7033  0.9281
  161MOL   C12332443   1.319   5.154   7.206  0.1224 -0.8262 -0.0550
  161MOL   C12432444   1.229   5.191   7.109  0.7389  0.4276 -0.0379
  161MOL   C12532445   1.252   5.314   7.024 -0.2739 -0.8806  0.8777
  161MOL   H12632446   1.414   4.973   7.219 -1.2992 -0.7883 -1.1175
  161MOL   H12732447   1.239   4.976   7.260 -0.6788  1.5976 -1.5466
  161MOL   H12832448   1.397   5.228   7.218 -0.6760  0.4003 -2.1469
  161MOL   H12932449   1.150   5.121   7.084  0.2192  0.5281  1.2478
  161MOL   H13032450   1.258   5.268   6.925 -1.1028  0.3871  0.2253
  161MOL   H13132451   1.346   5.361   7.054  0.5585 -2.2291  0.4329
  161MOL   C13232452   1.138   5.420   7.028  0.3717 -0.0960 -0.3193
  161MOL   C13332453   1.113   5.480   6.893 -0.0101 -0.4101 -0.5657
  161MOL   C13432454   1.084   5.609   6.879 -0.3071  0.3140 -0.4360
  161MOL   C13532455   1.056   5.682   6.749  0.0585 -1.0659  0.2127
  161MOL   H13632456   1.047   5.366   7.051  0.8808 -1.0648 -0.5369
  161MOL   H13732457   1.167   5.490   7.107  1.0354 -0.0291 -0.6177
  161MOL   H13832458   1.119   5.414   6.808 -0.7579  0.8119 -1.5959
  161MOL   H13932459   1.062   5.665   6.968  0.3317 -1.3922  0.8111
  161MOL   H14032460   1.090   5.611   6.674  2.8385 -0.2837  0.6706
  161MOL   H14132461   1.131   5.761   6.745  0.4801 -1.4871 -0.2979
  161MOL   C14232462   0.907   5.712   6.733 -0.1400  0.2348  0.7394
  161MOL   C14332463   0.876   5.790   6.610 -0.1888 -0.1894  0.1372
  161MOL   C14432464   0.775   5.760   6.528  0.0572  0.2985 -0.8524
  161MOL   C14532465   0.722   5.831   6.404 -0.1345 -0.1940 -0.2350
  161MOL   H14632466   0.842   5.624   6.733 -1.7911  1.4184  1.5408
  161MOL   H14732467   0.889   5.765   6.826 -0.0622  1.2644  0.1814
  161MOL   H14832468   0.946   5.870   6.592 -2.1505  1.3922 -0.5841
  161MOL   H14932469   0.717   5.676   6.564 -0.5075  0.9118 -0.3219
  161MOL   H15032470   0.691   5.745   6.345  1.2369 -0.9108  0.0634
  161MOL   H15132471   0.807   5.872   6.350  2.0657 -2.6297  1.2636
  161MOL   C15232472   0.603   5.921   6.440 -0.5288 -0.2951 -0.7360
  161MOL   C15332473   0.513   5.940   6.318  0.4028  0.5845 -0.0826
  161MOL   C15432474   0.489   6.052   6.262  0.4349  0.3110  0.1127
  161MOL   C15532475   0.405   6.051   6.136 -0.2764 -0.6663 -0.5588
  161MOL   H15632476   0.548   5.875   6.522  1.7354 -1.2158  0.3144
  161MOL   H15732477   0.641   6.014   6.482 -1.6282  0.0585 -0.5135
  161MOL   H15832478   0.474   5.849   6.274  0.3707  0.1984  0.7307
  161MOL   H15932479   0.531   6.141   6.306  1.9705 -0.3008 -0.0744
  161MOL   H16032480   0.363   5.953   6.116  0.1996 -1.0583  0.3345
  161MOL   H16132481   0.468   6.066   6.048 -0.3321  1.3193 -0.2857
  161MOL   C16232482   0.295   6.163   6.157  0.6107 -0.2423 -1.1329
  161MOL   C16332483   0.228   6.194   6.028 -0.0246  0.1271  1.1585
  161MOL   C16432484   0.190   6.316   5.987 -0.6092 -0.1487  0.6778
  161MOL   C16532485   0.122   6.346   5.857  0.2386 -0.1115  0.3365
  161MOL   H16632486   0.223   6.119   6.226  0.3474 -0.1014 -1.3189
  161MOL   H16732487   0.325   6.259   6.200 -2.6707  0.3446  0.0357
  161MOL   H16832488   0.200   6.118   5.956  1.5219 -0.7541  1.4685
  161MOL   H16932489   0.211   6.404   6.045 -1.8274  1.6016 -1.4916
  161MOL   H17032490   0.147   6.267   5.786  1.7312  0.1580  0.5301
  161MOL   H17132491   0.158   6.435   5.805 -0.1647 -0.7165 -0.9926
  161MOL   C17232492   7.950   6.337   5.869 -0.8276  0.6644 -0.3082
  161MOL   C17332493   7.882   6.381   5.739 -0.1463  0.8155 -0.2434
  161MOL   C17432494   7.798   6.482   5.726 -0.5641 -0.7566 -0.2336
  161MOL   C17532495   7.734   6.530   5.595  0.4567  0.1063  0.3291
  161MOL   H17632496   7.918   6.239   5.904 -2.2466  1.7805  1.5845
  161MOL   H17732497   7.926   6.404   5.951  0.6489  0.3894  0.3656
  161MOL   H17832498   7.899   6.317   5.654 -0.5825 -0.3479  0.5394
  161MOL   H17932499   7.788   6.554   5.806  1.7514  0.6742 -1.1733
  161MOL   H18032500   7.630   6.560   5.614  0.4509  0.7994 -0.7476
  161MOL   H18132501   7.729   6.460   5.512  0.1700  0.3781  0.1131
  161MOL   C18232502   7.805   6.656   5.541  0.6543 -0.9671 -0.8554
  161MOL   C18332503   7.948   6.631   5.504 -0.8680 -0.1074  0.1447
  161MOL   C18432504   0.079   6.691   5.554  0.0997  0.6353  0.1376
  161MOL   C18532505   0.222   6.646   5.519 -0.2563  0.2779  0.3308
  161MOL   H18632506   7.747   6.693   5.456 -0.1178 -0.3269 -0.0482
  161MOL   H18732507   7.801   6.734   5.617  2.1398 -1.3322 -0.3912
  161MOL   H18832508   7.964   6.553   5.430 -0.6275 -1.8639  2.0119
  161MOL   H18932509   0.072   6.765   5.632  1.7937  1.6537 -0.6417
  161MOL   H19032510   0.224   6.583   5.430 -1.8636 -0.6295  0.9197
  161MOL   H19132511   0.267   6.594   5.603  1.0028 -0.5379 -0.8176
  161MOL   C19232512   0.306   6.762   5.482 -0.2612  0.2586 -0.2852
  161MOL   C19332513   0.344   6.854   5.601 -0.1356 -0.0742 -0.0596
  161MOL   C19432514   0.304   6.979   5.619 -0.1909 -0.0996  0.7189
  161MOL   C19532515   0.333   7.065   5.739 -0.7082  0.0461  0.3107
  161MOL   H19632516   0.394   6.734   5.424  0.9507 -0.8327  2.0287
  161MOL   H19732517   0.248   6.820   5.410 -0.7001  1.5062  1.0370
  161MOL   H19832518   0.411   6.808   5.672  1.8992 -0.5270 -2.2097
  161MOL   H19932519   0.239   7.022   5.544  0.9667 -2.5801 -1.7883
  161MOL   H20032520   0.378   7.159   5.707 -0.5776  0.1055  0.6685
  161MOL   H20132521   0.418   7.019   5.789  1.1004 -0.6545 -3.2218
  161MOL   H20232522   0.244   7.074   5.801 -1.6181  3.7043 -1.3723
  162MOL     C132523   6.032   4.669   7.153 -0.0389 -0.3880  0.5614
  162MOL     C232524   5.955   4.715   7.029 -0.0497 -0.7150  0.3665
  162MOL     C332525   5.826   4.674   7.006  0.3396 -0.4788 -0.4202
  162MOL     C432526   5.726   4.717   6.898 -0.1532 -0.4175  1.1343
  162MOL     H532527   5.963   4.622   7.223  0.6414 -1.4268  0.5554
  162MOL     H632528   6.084   4.744   7.212  0.1725 -0.7174  0.7984
  162MOL     H732529   6.009   4.783   6.965 -1.2090  0.0973  0.2294
  162MOL     H832530   5.785   4.605   7.079  1.7651  0.1488  1.0179
  162MOL     H932531   5.711   4.633   6.830  1.0092  2.8606 -3.4260
  162MOL    H1032532   5.785   4.794   6.847 -1.6394  0.2357  0.3763
  162MOL    H1132533   6.104   4.590   7.131  0.7335  0.0276  1.5361
  162MOL    C1232534   5.590   4.778   6.952 -0.5109  0.1335  0.6184
  162MOL    C1332535   5.505   4.799   6.825 -0.1165 -0.3762 -0.2563
  162MOL    C1432536   5.519   4.919   6.764  0.4836 -0.4774 -0.0064
  162MOL    C1532537   5.455   4.959   6.637 -0.1157 -0.1485  0.0449
  162MOL    H1632538   5.534   4.712   7.019 -0.7676  0.0620  0.3397
  162MOL    H1732539   5.610   4.870   7.006 -0.2269  0.9464 -0.8617
  162MOL    H1832540   5.457   4.726   6.762  1.5062  0.4987 -2.5797
  162MOL    H1932541   5.594   4.984   6.806 -0.9124 -0.0193  1.8763
  162MOL    H2032542   5.403   5.053   6.656  2.1048  1.1031  0.0943
  162MOL    H2132543   5.386   4.876   6.624  1.4920 -1.6683  0.9824
  162MOL    C2232544   5.554   4.970   6.516  0.7479 -0.2276  0.0457
  162MOL    C2332545   5.484   4.962   6.382  0.5422 -0.7537 -0.1876
  162MOL    C2432546   5.503   5.050   6.284 -0.7013  0.1201 -0.2010
  162MOL    C2532547   5.451   5.027   6.151  0.1538  0.8068  0.7266
  162MOL    H2632548   5.616   5.058   6.531 -1.4444  1.5925 -1.3147
  162MOL    H2732549   5.627   4.889   6.522  0.7118 -0.1898  1.0339
  162MOL    H2832550   5.432   4.869   6.365 -0.1986 -0.1999 -1.0298
  162MOL    H2932551   5.563   5.138   6.305 -1.2090  1.3290 -3.4874
  162MOL    H3032552   5.344   5.004   6.150  0.7567 -2.2375  0.0196
  162MOL    H3132553   5.490   4.930   6.121 -1.9002  0.6138 -1.5292
  162MOL    C3232554   5.478   5.127   6.040 -0.3330  0.1126  0.0808
  162MOL    C3332555   5.431   5.078   5.904  0.2054  0.2109 -0.3938
  162MOL    C3432556   5.513   5.018   5.818  0.1367  0.0224 -0.2130
  162MOL    C3532557   5.479   4.967   5.684  0.2846  0.6849  0.1935
  162MOL    H3632558   5.431   5.219   6.075  0.5226 -0.0719  1.7827
  162MOL    H3732559   5.584   5.152   6.042 -0.1519 -0.5638 -0.7370
  162MOL    H3832560   5.328   5.103   5.885  0.1638 -1.0327 -1.9557
  162MOL    H3932561   5.614   5.008   5.854 -0.5997  0.8273  2.1531
  162MOL    H4032562   5.370   4.964   5.674  0.1639 -0.4573  1.6997
  162MOL    H4132563   5.513   4.864   5.670  1.1523  1.2300 -1.8283
  162MOL    C4232564   5.534   5.060   5.573 -0.2952 -0.6338  0.0820
  162MOL    C4332565   5.677   5.068   5.581 -0.5024 -0.4052  0.5099
  162MOL    C4432566   5.761   4.998   5.494  0.4860  0.3502  0.0550
  162MOL    C4532567   5.907   4.980   5.524 -0.3858  0.7102  0.3305
  162MOL    H4632568   5.502   5.028   5.474 -3.0517 -0.4545  0.8722
  162MOL    H4732569   5.481   5.155   5.583 -1.7361 -1.5964  2.0111
  162MOL    H4832570   5.716   5.112   5.672 -0.6704  0.0983  0.3393
  162MOL    H4932571   5.715   4.943   5.413 -0.6921  0.2229  0.8041
  162MOL    H5032572   5.919   4.887   5.580  1.0510 -0.1760 -1.3960
  162MOL    H5132573   5.940   5.056   5.594  0.2458 -1.8573  2.9358
  162MOL    C5232574   6.005   4.968   5.395 -0.4864  0.7237 -0.1684
  162MOL    C5332575   5.971   4.857   5.299  0.0154  0.0437 -0.3517
  162MOL    C5432576   6.038   4.741   5.300 -0.6097  0.0889 -0.8734
  162MOL    C5532577   6.012   4.628   5.207 -0.1834 -0.5130 -0.0929
  162MOL    H5632578   6.001   5.066   5.348  1.4780 -0.1001 -2.1618
  162MOL    H5732579   6.113   4.960   5.412 -0.1279  4.0820 -0.3860
  162MOL    H5832580   5.891   4.872   5.228 -1.5652 -2.4929  0.8207
  162MOL    H5932581   6.110   4.719   5.377  0.3325  1.6353 -1.2858
  162MOL    H6032582   6.112   4.594   5.178  0.1438  1.4654 -1.3984
  162MOL    H6132583   5.972   4.652   5.109  2.0771 -1.4101 -1.2797
  162MOL    C6232584   5.921   4.522   5.265 -0.1052 -0.8337  0.3173
  162MOL    C6332585   5.774   4.564   5.256 -0.1626  0.3537 -0.4469
  162MOL    C6432586   5.683   4.577   5.350  0.0904  0.5372  0.1335
  162MOL    C6532587   5.539   4.605   5.322 -0.4028 -0.2687 -0.6633
  162MOL    H6632588   5.925   4.437   5.197  1.3430 -1.1861  0.8275
  162MOL    H6732589   5.947   4.500   5.368  1.8798  0.9420  0.2276
  162MOL    H6832590   5.748   4.581   5.153  1.7944 -0.2652 -1.0643
  162MOL    H6932591   5.711   4.556   5.452 -1.3109 -0.1036  0.4015
  162MOL    H7032592   5.495   4.511   5.355  4.1257 -1.7490  1.5425
  162MOL    H7132593   5.526   4.617   5.215 -0.7953 -2.5868 -0.8959
  162MOL    C7232594   5.485   4.729   5.395 -0.4980  0.2274 -0.1980
  162MOL    C7332595   5.340   4.715   5.412  0.0713  0.5606  0.3800
  162MOL    C7432596   5.281   4.701   5.532 -0.2381  0.0349 -0.1684
  162MOL    C7532597   5.135   4.672   5.551 -0.4638  0.7871  0.1722
  162MOL    H7632598   5.545   4.749   5.484  0.1345  0.0267 -0.5802
  162MOL    H7732599   5.490   4.822   5.339  3.6607  0.4064  0.3512
  162MOL    H7832600   5.291   4.705   5.316 -1.8987 -2.5571  1.6084
  162MOL    H7932601   5.335   4.704   5.625 -3.5356 -5.1125  2.0924
  162MOL    H8032602   5.144   4.572   5.592  2.1698  0.8829 -0.0950
  162MOL    H8132603   5.077   4.659   5.459  0.8243 -0.1721 -0.5246
  162MOL    C8232604   5.080   4.775   5.648 -0.0805  0.0976 -0.1269
  162MOL    C8332605   4.932   4.760   5.680  0.0163 -0.0999 -0.7264
  162MOL    C8432606   4.878   4.716   5.799  0.5980 -0.1699 -0.0378
  162MOL    C8532607   4.734   4.751   5.824 -0.3181 -0.4820 -0.0114
  162MOL    H8632608   5.132   4.786   5.743 -0.0063  0.5718 -0.2196
  162MOL    H8732609   5.079   4.871   5.596  0.6845  0.4957  0.5941
  162MOL    H8832610   4.868   4.812   5.611 -0.8059  1.0042  0.8353
  162MOL    H8932611   4.940   4.676   5.878  0.8962 -2.6095 -1.4463
  162MOL    H9032612   4.671   4.662   5.821 -0.2704 -0.4645 -2.2248
  162MOL    H9132613   4.685   4.813   5.750 -3.3012  1.3410  3.2989
  162MOL    C9232614   4.722   4.828   5.958  0.2002  0.0988 -0.4849
  162MOL    C9332615   4.783   4.964   5.957 -0.0038 -0.4827 -0.1616
  162MOL    C9432616   4.880   5.008   6.043 -0.0172  0.2759 -0.1671
  162MOL    C9532617   4.945   5.143   6.037 -0.9787  0.2497 -0.3859
  162MOL    H9632618   4.613   4.834   5.967  0.2625 -0.2132  0.4308
  162MOL    H9732619   4.756   4.762   6.037 -1.3336 -1.1702 -0.8637
  162MOL    H9832620   4.762   5.029   5.873 -1.0869 -2.1900 -1.2339
  162MOL    H9932621   4.911   4.942   6.123  0.4320 -0.0961 -0.6357
  162MOL   H10032622   4.889   5.201   5.964  1.1676  0.6307 -1.7940
  162MOL   H10132623   5.034   5.133   5.974 -1.8979  0.1415 -1.6856
  162MOL   C10232624   4.958   5.215   6.170 -0.3072  0.7453  0.2934
  162MOL   C10332625   5.018   5.354   6.164 -0.4634 -0.1598  0.1784
  162MOL   C10432626   4.963   5.469   6.186  0.4852 -0.6116  0.1533
  162MOL   C10532627   5.023   5.604   6.160  0.2914  0.7528 -0.0959
  162MOL   H10632628   4.871   5.210   6.235  0.1216 -0.8194  0.7699
  162MOL   H10732629   5.033   5.160   6.227 -0.1124  1.5969  0.8782
  162MOL   H10832630   5.123   5.353   6.140 -0.4286 -1.7127  0.3401
  162MOL   H10932631   4.859   5.479   6.216 -0.1676  0.0081 -2.2501
  162MOL   H11032632   5.131   5.602   6.147  0.2352 -1.2634 -0.3720
  162MOL   H11132633   5.004   5.665   6.249 -0.7919 -0.5511  0.5875
  162MOL   C11232634   4.967   5.661   6.033  0.0638 -0.0035  0.7172
  162MOL   C11332635   5.027   5.785   5.987  0.6604  0.4477 -0.1282
  162MOL   C11432636   4.966   5.903   5.995  0.2524 -0.3082  0.2753
  162MOL   C11532637   5.022   6.040   5.949  1.2565  0.1664  0.1840
  162MOL   H11632638   4.983   5.584   5.957  0.5014  3.5887 -3.0354
  162MOL   H11732639   4.859   5.674   6.037  0.1788  1.5538 -0.6088
  162MOL   H11832640   5.117   5.781   5.928 -0.6030  0.2337 -2.0517
  162MOL   H11932641   4.872   5.899   6.050  0.3855 -1.1678  0.4612
  162MOL   H12032642   4.970   6.083   5.863  0.8381 -1.8319 -0.5989
  162MOL   H12132643   5.123   6.019   5.915  1.4966 -0.2456  1.1335
  162MOL   C12232644   5.029   6.142   6.056  0.0333 -0.5278 -0.0376
  162MOL   C12332645   4.893   6.168   6.131 -0.1343  0.0784  0.0856
  162MOL   C12432646   4.867   6.122   6.256  0.0615 -0.6902 -0.6654
  162MOL   C12532647   4.738   6.142   6.331  1.0726 -0.4306 -0.4163
  162MOL   H12632648   5.096   6.104   6.133 -3.1235  0.9246  3.5906
  162MOL   H12732649   5.056   6.242   6.022 -2.3271  0.5109  1.0775
  162MOL   H12832650   4.816   6.223   6.079 -0.3807 -0.3182  0.0249
  162MOL   H12932651   4.938   6.058   6.305  1.5051  0.6363 -0.9828
  162MOL   H13032652   4.678   6.052   6.313 -0.7183  0.9674 -1.6913
  162MOL   H13132653   4.681   6.233   6.313  0.0976 -0.6035  1.6372
  162MOL   C13232654   4.760   6.164   6.476 -0.5510  0.3164  0.0137
  162MOL   C13332655   4.634   6.148   6.552 -0.0005  0.3848  0.3301
  162MOL   C13432656   4.626   6.095   6.676 -0.4205  0.1514 -0.4319
  162MOL   C13532657   4.494   6.085   6.745 -0.1425 -0.7363 -0.6056
  162MOL   H13632658   4.829   6.090   6.515 -0.4490  1.0115  1.1576
  162MOL   H13732659   4.811   6.259   6.493 -0.2923  0.3443 -0.8602
  162MOL   H13832660   4.541   6.180   6.507  0.9718 -0.8691 -2.7072
  162MOL   H13932661   4.706   6.051   6.733 -1.1055  0.7182  0.9696
  162MOL   H14032662   4.420   6.145   6.692  0.6287 -0.0200 -0.8850
  162MOL   H14132663   4.499   6.132   6.844 -1.1847 -0.0323 -0.8748
  162MOL   C14232664   4.452   5.940   6.773 -0.0682 -0.1118  0.2330
  162MOL   C14332665   4.333   5.927   6.868 -0.4048  0.3536  0.2830
  162MOL   C14432666   4.216   5.878   6.826  0.1317 -0.0890 -0.2162
  162MOL   C14532667   4.091   5.862   6.907 -0.3523  0.1224  0.2300
  162MOL   H14632668   4.421   5.897   6.678  0.0597  0.4442 -0.0569
  162MOL   H14732669   4.533   5.875   6.806 -0.2086 -1.0348 -1.2200
  162MOL   H14832670   4.343   5.946   6.974 -3.2388  3.8913  0.0196
  162MOL   H14932671   4.210   5.855   6.721 -2.7447 -1.0625  0.1205
  162MOL   H15032672   4.014   5.934   6.879  2.5779  2.5113 -1.9453
  162MOL   H15132673   4.113   5.879   7.012 -0.5839  2.1524 -0.0292
  162MOL   C15232674   4.032   5.718   6.889  0.4326  0.0593  0.5295
  162MOL   C15332675   3.936   5.669   6.991  0.2350 -0.2310  0.2542
  162MOL   C15432676   3.825   5.596   6.953  0.6757 -0.0547 -0.3372
  162MOL   C15532677   3.723   5.531   7.042 -1.0712 -0.0085  0.0284
  162MOL   H15632678   3.998   5.701   6.787 -1.0184  1.7793  0.7107
  162MOL   H15732679   4.105   5.641   6.915 -0.7670 -1.1082  0.4646
  162MOL   H15832680   3.948   5.698   7.094  1.2677  0.2975 -0.0092
  162MOL   H15932681   3.824   5.567   6.849  1.3170 -0.6105 -0.1859
  162MOL   H16032682   3.622   5.543   7.004 -1.0796 -1.0840 -0.2995
  162MOL   H16132683   3.738   5.578   7.139 -1.8922 -0.0255  0.1701
  162MOL   C16232684   3.744   5.381   7.048  0.1636  0.6386  0.0463
  162MOL   C16332685   3.631   5.324   7.132  0.1680 -0.6985 -0.1564
  162MOL   C16432686   3.537   5.242   7.082 -0.5614  0.1022  0.4718
  162MOL   C16532687   3.419   5.186   7.154  0.4483 -0.4225 -0.5811
  162MOL   H16632688   3.721   5.351   6.945  2.8548 -1.8093  0.0928
  162MOL   H16732689   3.843   5.351   7.080 -0.4044 -1.4723 -0.0371
  162MOL   H16832690   3.626   5.355   7.235 -1.9820  0.5638 -0.6270
  162MOL   H16932691   3.531   5.218   6.976 -0.0655 -0.1967  0.5134
  162MOL   H17032692   3.422   5.189   7.263 -2.6320  0.8423 -0.4934
  162MOL   H17132693   3.432   5.082   7.123  0.2784 -0.4265 -0.6424
  162MOL   C17232694   3.281   5.239   7.113 -0.2588 -0.3887  0.2111
  162MOL   C17332695   3.264   5.385   7.159 -0.2214  0.4278  0.2776
  162MOL   C17432696   3.150   5.454   7.170  0.2118 -0.7942  0.6045
  162MOL   C17532697   3.143   5.595   7.224 -0.0284 -0.9890 -0.4539
  162MOL   H17632698   3.269   5.224   7.006  1.4164 -0.0075 -0.0419
  162MOL   H17732699   3.206   5.173   7.159 -0.0707 -2.0659 -1.7976
  162MOL   H17832700   3.352   5.439   7.190  0.6957 -0.1805 -1.2656
  162MOL   H17932701   3.060   5.400   7.143  0.1041  0.1515 -0.9843
  162MOL   H18032702   3.075   5.657   7.166  0.0331 -1.4846 -1.0708
  162MOL   H18132703   3.235   5.649   7.203 -0.7670  0.2314 -0.6316
  162MOL   C18232704   3.115   5.588   7.373  0.6698  0.1308  0.5224
  162MOL   C18332705   3.119   5.719   7.439 -0.0752  0.3743 -0.7186
  162MOL   C18432706   3.206   5.752   7.540  0.1940 -0.3006  0.5032
  162MOL   C18532707   3.195   5.874   7.633  0.4898  0.4598  0.0971
  162MOL   H18632708   3.009   5.560   7.376  0.2028  1.2576 -2.9192
  162MOL   H18732709   3.176   5.517   7.428 -0.6604  2.2079  4.8506
  162MOL   H18832710   3.051   5.795   7.402 -0.6383  1.3523  2.1765
  162MOL   H18932711   3.272   5.674   7.573  0.1489 -0.4875  0.1484
  162MOL   H19032712   3.176   5.837   7.734  0.0449  1.0003  0.2174
  162MOL   H19132713   3.115   5.942   7.604 -1.7417 -0.8656  2.9276
  162MOL   C19232714   3.329   5.941   7.622  1.0958  0.0167  0.1085
  162MOL   C19332715   3.334   6.073   7.703 -0.1334  1.1199  0.0599
  162MOL   C19432716   3.406   6.183   7.669  0.1949  0.2770  0.2953
  162MOL   C19532717   3.403   6.307   7.749 -0.1595 -0.2448 -0.2490
  162MOL   H19632718   3.407   5.887   7.676  0.3270  1.0739  2.3206
  162MOL   H19732719   3.358   5.967   7.520 -2.8406  2.9784 -0.3500
  162MOL   H19832720   3.272   6.062   7.791 -0.4759 -1.0017 -0.4051
  162MOL   H19932721   3.457   6.189   7.574 -3.3430  2.3684 -1.5892
  162MOL   H20032722   3.369   6.396   7.696 -0.1512  1.0275  1.7960
  162MOL   H20132723   3.502   6.331   7.789 -1.2188 -1.2003  3.0694
  162MOL   H20232724   3.331   6.311   7.830 -1.0119  0.1970 -1.0192
  163MOL     C132725   2.350   5.372   3.041 -0.1707 -0.4391  0.6000
  163MOL     C232726   2.308   5.481   2.940  0.2136  0.1450 -0.4108
  163MOL     C332727   2.269   5.603   2.982  0.1802  0.3772  0.8188
  163MOL     C432728   2.209   5.706   2.883 -0.0117 -0.4575 -0.0984
  163MOL     H532729   2.345   5.394   3.147 -1.0875 -0.8393  0.6465
  163MOL     H632730   2.455   5.355   3.016  0.3627 -1.0334  3.1326
  163MOL     H732731   2.299   5.461   2.835 -2.4117  2.4202 -0.6663
  163MOL     H832732   2.267   5.623   3.088  4.8885  0.1454  1.0891
  163MOL     H932733   2.101   5.706   2.887 -0.0096  0.3645  0.1912
  163MOL    H1032734   2.238   5.679   2.782 -0.5477 -0.6879 -0.1898
  163MOL    H1132735   2.294   5.281   3.016 -0.4124  0.3257 -1.8221
  163MOL    C1232736   2.253   5.845   2.919  0.4870 -0.2589  0.5376
  163MOL    C1332737   2.232   5.941   2.800  0.7544  0.0180 -0.2046
  163MOL    C1432738   2.171   6.063   2.812 -0.2396  0.0646 -0.7005
  163MOL    C1532739   2.138   6.157   2.695  0.4055  0.1256 -0.0697
  163MOL    H1632740   2.198   5.869   3.009  0.1980  2.8315 -0.4194
  163MOL    H1732741   2.360   5.856   2.931  0.7005 -2.6360  1.1947
  163MOL    H1832742   2.262   5.919   2.699  0.7083 -1.8945  0.1791
  163MOL    H1932743   2.147   6.097   2.911 -1.4422  0.3154 -1.0616
  163MOL    H2032744   2.037   6.142   2.658  0.4740 -0.5423  0.0064
  163MOL    H2132745   2.208   6.138   2.613  1.2060 -2.0642  1.0986
  163MOL    C2232746   2.166   6.307   2.737  0.7476  0.3617  0.1391
  163MOL    C2332747   2.050   6.364   2.815  0.7562  0.1870  0.1971
  163MOL    C2432748   2.054   6.400   2.946 -0.4324 -0.0611  0.4475
  163MOL    C2532749   1.931   6.440   3.028  0.3199 -0.0058  0.0186
  163MOL    H2632750   2.258   6.311   2.796 -0.0275 -1.3290  1.5042
  163MOL    H2732751   2.174   6.367   2.647  1.2374  1.3846  0.8539
  163MOL    H2832752   1.951   6.372   2.772  0.4232 -0.1730  0.8742
  163MOL    H2932753   2.145   6.381   3.000  0.1252 -0.0032 -0.4773
  163MOL    H3032754   1.893   6.534   2.989  0.5427  0.5947  1.2206
  163MOL    H3132755   1.976   6.469   3.123  1.5586  2.5061 -1.2825
  163MOL    C3232756   1.836   6.325   3.043 -0.1435  0.5589  0.2195
  163MOL    C3332757   1.710   6.354   3.124 -0.0504  0.1687  0.5302
  163MOL    C3432758   1.585   6.350   3.076  0.1615  0.6362  0.4025
  163MOL    C3532759   1.461   6.391   3.150 -0.2081  0.2550  0.2085
  163MOL    H3632760   1.806   6.286   2.946 -0.8124  1.0823  0.2107
  163MOL    H3732761   1.891   6.246   3.093 -0.0641  0.0810 -0.6026
  163MOL    H3832762   1.729   6.388   3.225  1.9056  1.3249 -0.1933
  163MOL    H3932763   1.565   6.332   2.971  1.3365  0.9043  0.1235
  163MOL    H4032764   1.384   6.314   3.157  0.2691 -0.1638  0.8985
  163MOL    H4132765   1.422   6.480   3.100  1.1103 -0.1370 -1.5961
  163MOL    C4232766   1.481   6.445   3.298  0.3620 -0.2092  0.6241
  163MOL    C4332767   1.358   6.523   3.351 -0.0699  0.2702  0.0183
  163MOL    C4432768   1.288   6.477   3.457  0.4006  0.5877 -0.5461
  163MOL    C4532769   1.180   6.549   3.521 -0.1472 -0.0421  0.3070
  163MOL    H4632770   1.508   6.360   3.362 -1.9188 -2.2580 -1.0172
  163MOL    H4732771   1.567   6.511   3.300 -0.2529  0.6427 -0.9064
  163MOL    H4832772   1.338   6.622   3.312  0.0675 -0.7933 -2.8876
  163MOL    H4932773   1.316   6.385   3.506  1.8884  1.9761  1.2715
  163MOL    H5032774   1.082   6.506   3.499 -0.3610  0.7430 -0.2939
  163MOL    H5132775   1.175   6.648   3.477 -1.4707 -0.4266 -0.4537
  163MOL    C5232776   1.190   6.556   3.674  0.8209 -0.7852 -0.5138
  163MOL    C5332777   1.090   6.652   3.733  0.0141  0.7220 -0.8344
  163MOL    C5432778   0.980   6.703   3.669  0.5791  0.0161  0.2225
  163MOL    C5532779   0.889   6.792   3.748 -0.6222  0.2863 -0.3891
  163MOL    H5632780   1.173   6.459   3.720  0.3356  0.4136  1.9351
  163MOL    H5732781   1.292   6.588   3.697  0.3598  0.3596  0.0268
  163MOL    H5832782   1.110   6.681   3.836 -1.8635  0.1793 -0.2881
  163MOL    H5932783   0.963   6.673   3.567  1.8239  2.6736 -0.8139
  163MOL    H6032784   0.935   6.815   3.844  0.6312 -1.5804 -0.5154
  163MOL    H6132785   0.801   6.733   3.772 -0.9232  0.4667 -1.0397
  163MOL    C6232786   0.867   6.922   3.673  0.0144  0.4179  0.0954
  163MOL    C6332787   0.796   7.019   3.770 -0.4376 -0.0141  0.6175
  163MOL    C6432788   0.859   7.093   3.864  0.2084 -0.5536 -0.3816
  163MOL    C6532789   0.798   7.214   3.938  0.1853 -0.4253  0.5762
  163MOL    H6632790   0.969   6.961   3.663  0.1319 -0.3266 -1.8690
  163MOL    H6732791   0.815   6.917   3.578 -0.0837 -2.5019  0.2416
  163MOL    H6832792   0.689   7.021   3.751 -1.1623  2.0620  4.4960
  163MOL    H6932793   0.965   7.086   3.882  0.5298  0.8898 -1.6272
  163MOL    H7032794   0.719   7.245   3.869  2.1137  3.7108  0.0756
  163MOL    H7132795   0.870   7.288   3.973 -0.1133 -0.0967  0.5016
  163MOL    C7232796   0.731   7.171   4.072 -0.4182 -0.5905 -0.0416
  163MOL    C7332797   0.604   7.094   4.048 -0.7953 -0.2976  0.4503
  163MOL    C7432798   0.530   7.051   4.148  0.6585 -0.2262  0.9127
  163MOL    C7532799   0.409   6.961   4.141 -0.2586 -0.6951 -0.2549
  163MOL    H7632800   0.792   7.112   4.140  0.1798 -0.1686 -0.2045
  163MOL    H7732801   0.706   7.266   4.120  1.0545 -0.2679  0.1032
  163MOL    H7832802   0.567   7.067   3.950 -0.6622  3.4189 -0.6839
  163MOL    H7932803   0.558   7.070   4.250 -1.0966  0.3707  1.3038
  163MOL    H8032804   0.342   7.006   4.213 -0.6881 -0.0733 -1.0331
  163MOL    H8132805   0.433   6.864   4.185 -1.1113 -0.4062  0.8631
  163MOL    C8232806   0.347   6.956   3.999  0.0842  0.5906 -0.6019
  163MOL    C8332807   0.214   6.878   3.998 -1.1810  0.2332  0.2624
  163MOL    C8432808   0.159   6.814   4.099  0.4607  1.0214 -0.1287
  163MOL    C8532809   0.029   6.740   4.095  0.3698  0.4800  0.7482
  163MOL    H8632810   0.332   7.059   3.968  1.5736  1.1682  0.5014
  163MOL    H8732811   0.412   6.914   3.922 -0.6831  1.5246 -1.7635
  163MOL    H8832812   0.166   6.880   3.901 -0.3722 -0.5925 -0.1648
  163MOL    H8932813   0.198   6.835   4.198 -0.8712  1.3251  0.3332
  163MOL    H9032814   0.062   6.641   4.127 -1.0604  0.2361  1.4898
  163MOL    H9132815   7.967   6.731   3.994  0.6231 -0.5761  0.7399
  163MOL    C9232816   7.912   6.807   4.198 -0.5160 -0.1702  0.6722
  163MOL    C9332817   7.783   6.728   4.221  0.1047 -0.0174  0.5299
  163MOL    C9432818   7.663   6.764   4.174 -0.9430  0.1651  0.2700
  163MOL    C9532819   7.539   6.689   4.204 -0.4592  0.3783  0.4906
  163MOL    H9632820   7.965   6.809   4.293 -0.5694 -2.4854  0.7844
  163MOL    H9732821   7.892   6.911   4.173  2.7252  0.7859  1.8321
  163MOL    H9832822   7.786   6.633   4.272 -1.4808 -1.0161 -1.1408
  163MOL    H9932823   7.657   6.861   4.127 -0.3248  1.2824  2.4106
  163MOL   H10032824   7.514   6.712   4.308 -1.6348 -2.8391  0.9673
  163MOL   H10132825   7.562   6.583   4.200 -3.3490 -0.2770  0.3282
  163MOL   C10232826   7.425   6.716   4.109 -0.3811  0.1034  0.5810
  163MOL   C10332827   7.453   6.659   3.976  0.0165 -0.2317 -0.0409
  163MOL   C10432828   7.467   6.729   3.859  0.4281  0.4749  0.1360
  163MOL   C10532829   7.502   6.672   3.721 -0.2191  0.3769  0.0343
  163MOL   H10632830   7.337   6.660   4.141 -0.6012 -1.2141 -2.1502
  163MOL   H10732831   7.405   6.823   4.105  1.9487  0.6261  1.9356
  163MOL   H10832832   7.461   6.552   3.975  1.0642 -0.1749  1.2713
  163MOL   H10932833   7.455   6.836   3.867 -2.4485  0.3688 -2.0042
  163MOL   H11032834   7.540   6.570   3.724 -0.5912  0.1589 -2.0745
  163MOL   H11132835   7.575   6.736   3.670  0.7240 -0.5693  0.1745
  163MOL   C11232836   7.376   6.656   3.642  0.2090  0.3874  0.5413
  163MOL   C11332837   7.266   6.588   3.729  0.1317 -0.4206  0.3492
  163MOL   C11432838   7.242   6.459   3.737  0.1944 -0.1397  0.0473
  163MOL   C11532839   7.147   6.401   3.839  0.1067  0.1423  0.4525
  163MOL   H11632840   7.342   6.747   3.592 -0.8032 -0.4485 -0.3326
  163MOL   H11732841   7.388   6.584   3.561  0.6125 -0.5416  1.4152
  163MOL   H11832842   7.213   6.667   3.780  1.0405  0.1985  0.3321
  163MOL   H11932843   7.310   6.390   3.691 -0.7791 -2.3623  1.8744
  163MOL   H12032844   7.105   6.313   3.791  2.4612 -2.2685  2.6622
  163MOL   H12132845   7.068   6.477   3.840  0.1537  0.2306 -1.3036
  163MOL   C12232846   7.217   6.372   3.978 -0.0596  0.3671  0.5961
  163MOL   C12332847   7.129   6.302   4.076 -0.3189 -0.1069 -0.2748
  163MOL   C12432848   7.090   6.358   4.188  0.1329 -0.3734 -0.1560
  163MOL   C12532849   6.998   6.287   4.283  0.5975  0.2087 -0.6613
  163MOL   H12632850   7.301   6.305   3.959 -0.1618  1.3171 -3.6818
  163MOL   H12732851   7.256   6.461   4.028  1.5191 -0.3092  0.5939
  163MOL   H12832852   7.097   6.203   4.047  0.7725 -0.7747  0.7594
  163MOL   H12932853   7.132   6.456   4.207 -0.4448 -0.2461  0.4787
  163MOL   H13032854   6.997   6.182   4.252 -0.8446 -0.6756  2.1224
  163MOL   H13132855   6.896   6.325   4.273  1.0513  1.8701  0.8336
  163MOL   C13232856   7.050   6.294   4.431  0.2713 -0.8429  0.5538
  163MOL   C13332857   6.939   6.266   4.528 -0.2449 -0.3657  0.6671
  163MOL   C13432858   6.873   6.350   4.602  0.2621 -0.0770 -0.3051
  163MOL   C13532859   6.748   6.320   4.677 -0.1597 -0.1526  0.0393
  163MOL   H13632860   7.122   6.215   4.453  0.1478 -0.9400  0.6154
  163MOL   H13732861   7.083   6.392   4.464 -0.8779 -0.1944 -0.1742
  163MOL   H13832862   6.904   6.165   4.521  0.5844 -0.5268 -1.5190
  163MOL   H13932863   6.896   6.455   4.605 -1.2415  0.2154  2.6456
  163MOL   H14032864   6.762   6.323   4.785  1.5470  0.8428 -0.1803
  163MOL   H14132865   6.717   6.218   4.654 -0.6141 -0.3493  1.4844
  163MOL   C14232866   6.624   6.400   4.653 -0.0424 -0.6319 -0.1605
  163MOL   C14332867   6.642   6.551   4.683  0.6127 -0.3352 -0.6858
  163MOL   C14432868   6.602   6.646   4.596 -0.6464 -0.6901  0.2537
  163MOL   C14532869   6.618   6.796   4.614  0.2918  0.6161  1.0773
  163MOL   H14632870   6.596   6.399   4.548  0.7338 -2.1506 -0.3758
  163MOL   H14732871   6.539   6.358   4.707  0.8799 -0.9377  1.0905
  163MOL   H14832872   6.692   6.571   4.777 -0.3247 -2.5390  0.3066
  163MOL   H14932873   6.555   6.617   4.503 -0.1440 -1.0216  0.1029
  163MOL   H15032874   6.661   6.821   4.517  0.2125  0.4337  0.9939
  163MOL   H15132875   6.686   6.811   4.698  1.1929  1.2991  0.2378
  163MOL   C15232876   6.485   6.864   4.644 -0.0588 -0.8261  0.7522
  163MOL   C15332877   6.471   7.010   4.612  0.1391 -0.8568 -0.2650
  163MOL   C15432878   6.365   7.070   4.548  0.1613  0.2276  0.4101
  163MOL   C15532879   6.356   7.218   4.511  0.7217  0.6932  0.6102
  163MOL   H15632880   6.410   6.803   4.593  0.9148 -0.6425 -0.9482
  163MOL   H15732881   6.471   6.851   4.751 -0.6445 -0.7850  0.6871
  163MOL   H15832882   6.556   7.066   4.648 -1.8045  1.0066  1.6322
  163MOL   H15932883   6.280   7.012   4.517 -1.3181  2.7339 -0.3991
  163MOL   H16032884   6.370   7.237   4.404 -0.6063  3.6532  0.9090
  163MOL   H16132885   6.438   7.268   4.562  0.1532  0.2896  1.9184
  163MOL   C16232886   6.229   7.274   4.579 -0.1739  0.2832 -0.2658
  163MOL   C16332887   6.237   7.425   4.560  0.2184  0.0463  0.3343
  163MOL   C16432888   6.168   7.496   4.470 -0.3701  0.3566 -0.4558
  163MOL   C16532889   6.187   7.642   4.441  0.2186 -0.2652  0.0362
  163MOL   H16632890   6.141   7.235   4.529 -0.6883  1.6135 -0.4240
  163MOL   H16732891   6.221   7.237   4.682  2.7732 -0.9604 -0.4452
  163MOL   H16832892   6.308   7.474   4.625  0.4948  0.9612 -0.6400
  163MOL   H16932893   6.095   7.447   4.407 -0.6428 -0.9779  0.8902
  163MOL   H17032894   6.213   7.649   4.335 -3.0435  1.3703 -0.7258
  163MOL   H17132895   6.264   7.677   4.510  0.5114  1.1795 -0.9958
  163MOL   C17232896   6.049   7.708   4.467  0.0565 -0.2689  0.8164
  163MOL   C17332897   5.946   7.677   4.363  0.0613 -0.0152 -0.6584
  163MOL   C17432898   5.873   7.774   4.306 -0.1391 -0.1604  0.1717
  163MOL   C17532899   5.754   7.747   4.215 -0.1456  0.3232 -0.0324
  163MOL   H17632900   6.017   7.683   4.568 -0.1265  0.9972  1.0839
  163MOL   H17732901   6.066   7.815   4.480  1.9810 -0.4685  0.1589
  163MOL   H17832902   5.930   7.574   4.339  0.6412 -0.7250  1.8249
  163MOL   H17932903   5.882   7.881   4.320  1.8355 -0.2764 -0.1084
  163MOL   H18032904   5.757   7.642   4.184 -0.5482  0.1302  0.5676
  163MOL   H18132905   5.763   7.800   4.120  2.0605  0.7399  0.3988
  163MOL   C18232906   5.626   7.770   4.288 -0.3329  1.2265 -0.6359
  163MOL   C18332907   5.500   7.769   4.212  0.1884 -0.3535 -0.4728
  163MOL   C18432908   5.395   7.851   4.240 -0.0668  1.0352  0.1667
  163MOL   C18532909   5.273   7.863   4.151  0.2648  0.1600  0.7021
  163MOL   H18632910   5.597   7.680   4.341 -0.4144  1.3572 -0.4577
  163MOL   H18732911   5.632   7.862   4.346  1.2288  2.5264 -2.7766
  163MOL   H18832912   5.491   7.688   4.141  1.1004 -0.6766 -0.2167
  163MOL   H18932913   5.406   7.918   4.324  0.6215 -0.7783  1.5408
  163MOL   H19032914   5.261   7.784   4.076  1.6867  0.3584  0.2480
  163MOL   H19132915   5.280   7.955   4.094 -0.0828 -0.3610 -0.2098
  163MOL   C19232916   5.144   7.856   4.232  0.8791  0.2377  0.3502
  163MOL   C19332917   5.025   7.854   4.137 -0.3813 -0.0350 -0.3216
  163MOL   C19432918   4.914   7.925   4.160  0.0609 -0.0154 -0.3228
  163MOL   C19532919   4.798   7.934   4.059 -0.0118  0.2414 -0.3654
  163MOL   H19632920   5.147   7.768   4.296  2.2737 -1.9036 -2.5561
  163MOL   H19732921   5.128   7.937   4.304  1.5402  0.1088  0.6430
  163MOL   H19832922   5.038   7.788   4.053  2.3428  1.6993 -1.3505
  163MOL   H19932923   4.905   0.018   4.242  1.2667 -0.2930  0.0535
  163MOL   H20032924   4.819   0.052   4.009 -2.4801  2.8655  3.2892
  163MOL   H20132925   4.698   7.942   4.102 -0.1293  1.9952 -0.9084
  163MOL   H20232926   4.808   7.853   3.987  0.9268 -1.5926  1.7666
  164MOL     C132927   0.411   5.499   6.462  0.2617  0.1754 -0.3823
  164MOL     C232928   0.496   5.515   6.332  0.3381 -0.0352  0.0226
  164MOL     C332929   0.442   5.519   6.208  0.4131 -0.1755  0.4532
  164MOL     C432930   0.523   5.528   6.078 -0.3107  0.1241  0.0845
  164MOL     H532931   0.439   5.410   6.518 -2.6156 -0.4689  0.1209
  164MOL     H632932   0.304   5.515   6.447 -0.2876 -1.1298  1.8887
  164MOL     H732933   0.603   5.516   6.341  0.5401  0.2644 -2.1573
  164MOL     H832934   0.336   5.518   6.185  0.2947 -3.8391  0.9264
  164MOL     H932935   0.617   5.574   6.106 -2.1904  3.7154  0.8310
  164MOL    H1032936   0.484   5.614   6.023 -1.2643  0.3300  1.0527
  164MOL    H1132937   0.453   5.580   6.522 -0.0227 -1.2004  1.7179
  164MOL    C1232938   0.544   5.402   6.006 -0.0578 -0.4470  0.2540
  164MOL    C1332939   0.611   5.422   5.870  0.2997  0.3971 -0.1198
  164MOL    C1432940   0.699   5.333   5.822  0.3026  0.5836 -0.2161
  164MOL    C1532941   0.791   5.360   5.707 -0.2082 -0.7475 -0.4389
  164MOL    H1632942   0.595   5.327   6.066  0.9355 -0.4021 -0.5097
  164MOL    H1732943   0.449   5.351   5.990  0.4042 -2.5280  3.6773
  164MOL    H1832944   0.593   5.518   5.825  0.1398  1.0971  1.4273
  164MOL    H1932945   0.718   5.235   5.864  0.2939  0.7451  0.1641
  164MOL    H2032946   0.754   5.440   5.644  3.2986 -0.0578 -1.7040
  164MOL    H2132947   0.790   5.269   5.648 -1.0789 -1.8489  1.2176
  164MOL    C2232948   0.934   5.385   5.750 -0.7725 -0.0748 -0.0767
  164MOL    C2332949   1.007   5.276   5.826 -0.1452  0.4372  0.5838
  164MOL    C2432950   1.047   5.276   5.953  0.8807 -0.8072 -0.1289
  164MOL    C2532951   1.106   5.159   6.036  0.2527  0.1140  0.5062
  164MOL    H2632952   0.988   5.409   5.658 -0.2026  1.8653  0.7301
  164MOL    H2732953   0.943   5.477   5.808 -0.3485 -0.1751  0.0192
  164MOL    H2832954   1.033   5.195   5.760  0.2837 -0.1128  1.4234
  164MOL    H2932955   1.021   5.363   6.012  0.9308 -1.6168  1.1027
  164MOL    H3032956   1.126   5.070   5.977 -1.9120  0.6029 -1.0131
  164MOL    H3132957   1.022   5.132   6.100  0.9699 -0.1256  1.3635
  164MOL    C3232958   1.241   5.199   6.108 -0.1833  0.3146 -0.6573
  164MOL    C3332959   1.290   5.079   6.186 -0.0701 -0.1878  0.0991
  164MOL    C3432960   1.354   5.089   6.310 -0.6713 -0.0696  0.9880
  164MOL    C3532961   1.421   4.972   6.375 -0.4977 -0.0417 -0.0190
  164MOL    H3632962   1.321   5.215   6.036  0.3610 -2.3109 -0.6776
  164MOL    H3732963   1.226   5.289   6.168 -0.1073 -0.1661  0.0854
  164MOL    H3832964   1.292   4.983   6.137  0.6042 -0.6861  1.0776
  164MOL    H3932965   1.353   5.185   6.359  0.6251  0.8088 -0.6931
  164MOL    H4032966   1.391   4.880   6.326  0.2099 -0.5672  0.5203
  164MOL    H4132967   1.383   4.966   6.477  2.2317 -0.3218  1.0419
  164MOL    C4232968   1.572   4.985   6.363  0.0229  0.2469  0.3327
  164MOL    C4332969   1.648   4.866   6.421 -0.1800  0.2479 -0.3118
  164MOL    C4432970   1.735   4.788   6.350 -0.2290  0.0044 -0.1978
  164MOL    C4532971   1.815   4.670   6.389 -0.5891 -0.2941  0.0365
  164MOL    H4632972   1.598   4.986   6.257  0.5693 -0.6132  0.4519
  164MOL    H4732973   1.617   5.071   6.412  1.0220 -1.1088  1.8639
  164MOL    H4832974   1.647   4.854   6.528  3.1081  0.5815 -0.1980
  164MOL    H4932975   1.745   4.819   6.247  0.4732  0.6673  0.0676
  164MOL    H5032976   1.917   4.698   6.365 -1.1750  1.7458 -0.1877
  164MOL    H5132977   1.798   4.589   6.318 -0.1466 -0.8361  0.5487
  164MOL    C5232978   1.805   4.616   6.529  0.1920  0.2134  0.2407
  164MOL    C5332979   1.899   4.498   6.564 -0.2840  0.1010  0.4055
  164MOL    C5432980   1.859   4.376   6.592  0.1947 -0.2766  0.3572
  164MOL    C5532981   1.949   4.265   6.649  0.0813  0.3065  0.1677
  164MOL    H5632982   1.824   4.692   6.605 -0.2147 -1.3835  1.9643
  164MOL    H5732983   1.705   4.582   6.556  0.2729 -1.5756 -1.6081
  164MOL    H5832984   2.003   4.526   6.568 -0.1873 -0.2162  0.0905
  164MOL    H5932985   1.756   4.346   6.589  0.0413  0.2386  0.5078
  164MOL    H6032986   1.918   4.255   6.753 -1.5606  0.0662 -0.3228
  164MOL    H6132987   2.049   4.307   6.660  0.0955 -0.2987  2.4890
  164MOL    C6232988   1.945   4.127   6.564  0.7072 -0.1472 -0.7934
  164MOL    C6332989   1.991   4.017   6.651 -0.4703 -0.3292  0.5208
  164MOL    C6432990   1.914   3.922   6.708  0.0057 -0.0388  0.5715
  164MOL    C6532991   1.948   3.816   6.810 -0.1132  0.1816  0.3973
  164MOL    H6632992   1.842   4.101   6.542  0.1650  1.5688 -0.3874
  164MOL    H6732993   2.002   4.134   6.471  1.3415 -1.1764 -0.4890
  164MOL    H6832994   2.092   4.021   6.689 -0.6356  0.1533  0.9027
  164MOL    H6932995   1.811   3.917   6.676  0.3309  0.4688 -0.5684
  164MOL    H7032996   2.057   3.803   6.811 -0.2918 -1.4787 -0.2509
  164MOL    H7132997   1.905   3.733   6.755 -0.8858  0.3721  0.7094
  164MOL    C7232998   1.886   3.848   6.945  0.5833 -0.3083 -0.2382
  164MOL    C7332999   1.742   3.892   6.930  0.6715  0.9660 -0.2761
  164MOL    C7433000   1.691   4.007   6.978 -0.5159 -0.0049 -0.1731
  164MOL    C7533001   1.552   4.063   6.968 -0.5211  0.3345  0.2216
  164MOL    H7633002   1.898   3.762   7.011 -0.5137  1.6594  2.6196
  164MOL    H7733003   1.946   3.926   6.992  0.3444 -0.3433  0.1183
  164MOL    H7833004   1.683   3.826   6.868 -1.2548  0.0391  2.3979
  164MOL    H7933005   1.758   4.072   7.033  0.0644 -1.2783  0.6388
  164MOL    H8033006   1.506   4.045   7.065  0.1216 -0.5826  0.3624
  164MOL    H8133007   1.492   4.010   6.894 -0.2743  0.4499 -0.0621
  164MOL    C8233008   1.537   4.205   6.912 -0.1448 -0.5946  0.5617
  164MOL    C8333009   1.600   4.307   6.999 -0.1700 -0.2742  0.1931
  164MOL    C8433010   1.573   4.441   6.993 -0.6255  0.5473  0.2413
  164MOL    C8533011   1.644   4.547   7.069 -0.6618 -0.5866 -1.3102
  164MOL    H8633012   1.581   4.217   6.813  0.2887  1.5102  0.9817
  164MOL    H8733013   1.432   4.231   6.896 -0.3888 -2.5476 -1.1933
  164MOL    H8833014   1.677   4.279   7.070  1.0815  0.3001 -0.9054
  164MOL    H8933015   1.500   4.470   6.920  0.3652  2.7184  0.0632
  164MOL    H9033016   1.687   4.513   7.163 -1.7471  2.6767  0.4657
  164MOL    H9133017   1.577   4.627   7.100  0.5599 -0.3170  0.7309
  164MOL    C9233018   1.760   4.607   6.979  0.8913  0.2446 -0.2835
  164MOL    C9333019   1.695   4.696   6.877 -0.7054 -0.7719  0.4730
  164MOL    C9433020   1.718   4.829   6.880  0.1199 -0.2505 -0.4864
  164MOL    C9533021   1.646   4.923   6.798  0.1923  0.1007 -0.2661
  164MOL    H9633022   1.830   4.660   7.044 -1.0439 -0.9701  2.9330
  164MOL    H9733023   1.819   4.528   6.933  0.0150 -0.7144  0.2178
  164MOL    H9833024   1.631   4.652   6.801  0.0692 -0.0728 -0.6057
  164MOL    H9933025   1.793   4.872   6.944 -0.1073  0.3172 -0.6037
  164MOL   H10033026   1.557   4.881   6.752 -0.7164  0.9490  0.6879
  164MOL   H10133027   1.700   4.966   6.713 -1.4493 -0.3918 -1.5859
  164MOL   C10233028   1.592   5.045   6.875 -0.5798  0.0244 -0.2698
  164MOL   C10333029   1.518   5.139   6.776  0.1040 -0.2775  0.0980
  164MOL   C10433030   1.568   5.250   6.721 -0.1523  0.7907  0.6750
  164MOL   C10533031   1.510   5.340   6.617  0.0417 -0.2550  0.3333
  164MOL   H10633032   1.523   5.027   6.957  0.0439 -2.4817 -0.2660
  164MOL   H10733033   1.678   5.091   6.923  0.2689 -0.2702 -1.4617
  164MOL   H10833034   1.425   5.096   6.745  0.5153 -1.1810  0.1207
  164MOL   H10933035   1.658   5.292   6.762 -1.1612  3.1457  0.5190
  164MOL   H11033036   1.457   5.271   6.551  0.4058 -2.0451  1.8625
  164MOL   H11133037   1.585   5.384   6.551  0.0660  0.2439  0.6960
  164MOL   C11233038   1.429   5.461   6.670 -0.0153 -0.1378  0.0572
  164MOL   C11333039   1.381   5.537   6.545  0.2962  0.3651  0.3334
  164MOL   C11433040   1.393   5.672   6.539  0.6314 -0.6552  0.1858
  164MOL   C11533041   1.341   5.765   6.427  0.0642 -0.2171  0.0299
  164MOL   H11633042   1.342   5.428   6.727 -1.0458  0.5944 -1.0425
  164MOL   H11733043   1.490   5.520   6.737  2.1890 -1.5841 -0.6275
  164MOL   H11833044   1.341   5.481   6.462  2.2143  1.1905 -1.1873
  164MOL   H11933045   1.438   5.711   6.629 -0.8257 -0.4638  0.8422
  164MOL   H12033046   1.306   5.708   6.341 -1.4524 -1.0787  1.1841
  164MOL   H12133047   1.429   5.821   6.396 -0.3328 -0.2435 -1.1643
  164MOL   C12233048   1.242   5.876   6.478  0.1656 -0.1285  0.5152
  164MOL   C12333049   1.185   5.958   6.362  0.0147 -0.9111  0.1454
  164MOL   C12433050   1.234   6.081   6.335 -0.2999  0.0995 -0.1543
  164MOL   C12533051   1.197   6.160   6.213  1.1024  0.1086  0.0584
  164MOL   H12633052   1.152   5.831   6.519 -0.5383  0.3421 -0.4940
  164MOL   H12733053   1.280   5.936   6.561 -0.1845 -0.3137  0.8080
  164MOL   H12833054   1.108   5.924   6.294  1.9597  0.4786 -2.8373
  164MOL   H12933055   1.309   6.114   6.406 -2.2780  2.3479  0.9688
  164MOL   H13033056   1.142   6.249   6.241  2.5995  0.8909  0.5606
  164MOL   H13133057   1.114   6.112   6.161 -0.5618  1.9195  1.0192
  164MOL   C13233058   1.318   6.198   6.126  0.3172  0.6187  0.7268
  164MOL   C13333059   1.390   6.076   6.062  0.4790 -0.2035 -0.0738
  164MOL   C13433060   1.431   6.078   5.932 -0.1374  0.2679 -0.4931
  164MOL   C13533061   1.487   5.953   5.861 -1.0276  0.1250  0.4997
  164MOL   H13633062   1.276   6.255   6.044 -3.1576 -3.1346 -0.3068
  164MOL   H13733063   1.392   6.256   6.180  1.3472  0.7624 -0.8230
  164MOL   H13833064   1.405   5.986   6.119 -1.8926 -1.4325 -1.3016
  164MOL   H13933065   1.436   6.170   5.877  0.6102 -1.0006 -2.5798
  164MOL   H14033066   1.449   5.938   5.760  0.5536  0.5616 -0.1825
  164MOL   H14133067   1.463   5.864   5.919  0.0180 -0.4181  0.1151
  164MOL   C14233068   1.640   5.964   5.857  0.3499 -0.0742 -0.6590
  164MOL   C14333069   1.707   5.852   5.792  0.5181 -0.5508 -0.8909
  164MOL   C14433070   1.806   5.859   5.704  0.0169 -0.8003 -0.4650
  164MOL   C14533071   1.868   5.738   5.637  0.7873  0.0569 -0.6493
  164MOL   H14633072   1.664   6.057   5.804  0.5228 -0.0265 -0.4974
  164MOL   H14733073   1.692   5.974   5.952 -0.8115  1.5754 -0.1682
  164MOL   H14833074   1.687   5.747   5.804 -1.8332 -0.3487 -2.5931
  164MOL   H14933075   1.853   5.952   5.677  1.5753 -0.9767  1.5024
  164MOL   H15033076   1.853   5.740   5.529  1.6026 -0.9579 -0.7976
  164MOL   H15133077   1.836   5.646   5.686  0.9384  0.4377  0.1706
  164MOL   C15233078   2.025   5.748   5.655  0.1503 -0.6580 -0.4571
  164MOL   C15333079   2.072   5.636   5.743  0.7209 -0.2675 -0.3785
  164MOL   C15433080   2.093   5.638   5.875 -0.0190 -0.1832 -0.0155
  164MOL   C15533081   2.124   5.521   5.971 -0.3245  0.0960 -0.0586
  164MOL   H15633082   2.070   5.736   5.556  0.0384 -1.7448 -0.3809
  164MOL   H15733083   2.055   5.848   5.687 -1.9360 -0.4919  1.0936
  164MOL   H15833084   2.089   5.552   5.677 -3.1896 -0.5413 -1.1412
  164MOL   H15933085   2.082   5.730   5.931 -0.7209  0.5165 -1.2842
  164MOL   H16033086   2.059   5.548   6.054 -1.1358  1.0808 -0.9989
  164MOL   H16133087   2.230   5.538   5.989 -0.8804  0.3856  3.2514
  164MOL   C16233088   2.089   5.381   5.923  0.0073 -0.0488 -0.2960
  164MOL   C16333089   2.106   5.275   6.031 -0.4275 -0.3092  0.2567
  164MOL   C16433090   2.145   5.145   6.011  0.6039 -0.3136  0.7182
  164MOL   C16533091   2.165   5.048   6.124 -0.5200 -0.2189  1.2075
  164MOL   H16633092   1.982   5.375   5.903  0.0302  0.7676 -0.6876
  164MOL   H16733093   2.139   5.355   5.830  2.3537 -0.8892  1.1544
  164MOL   H16833094   2.093   5.306   6.133  2.8561  0.9140  0.3572
  164MOL   H16933095   2.169   5.116   5.910 -0.7724 -2.2885  0.9271
  164MOL   H17033096   2.137   5.097   6.217 -0.2857  1.5141  0.3852
  164MOL   H17133097   2.272   5.027   6.124 -0.6830 -1.2656 -1.4766
  164MOL   C17233098   2.094   4.918   6.108  0.5175 -0.0912 -0.0537
  164MOL   C17333099   2.125   4.823   6.222 -0.3433 -0.0776 -0.6834
  164MOL   C17433100   2.176   4.704   6.208  0.2867 -0.1969 -0.0662
  164MOL   C17533101   2.219   4.621   6.324  0.5210 -0.8840  0.7266
  164MOL   H17633102   1.985   4.930   6.107  0.2387 -2.3586 -0.5164
  164MOL   H17733103   2.119   4.884   6.008  1.0996  1.1436 -0.3374
  164MOL   H17833104   2.132   4.874   6.317  1.6879 -1.3412 -0.1433
  164MOL   H17933105   2.180   4.655   6.111 -1.3620  0.3031 -0.4062
  164MOL   H18033106   2.192   4.666   6.419 -1.6213 -0.3077 -0.1425
  164MOL   H18133107   2.328   4.617   6.326  0.7508  0.7022 -3.4467
  164MOL   C18233108   2.162   4.481   6.305  0.0732  0.1928  0.0277
  164MOL   C18333109   2.199   4.391   6.415  0.3333  0.2523  0.3645
  164MOL   C18433110   2.257   4.270   6.397 -0.6280  0.2115 -0.4450
  164MOL   C18533111   2.311   4.175   6.500 -0.5202  0.2040 -0.5199
  164MOL   H18633112   2.056   4.498   6.288  0.2248  0.6876 -0.4412
  164MOL   H18733113   2.199   4.443   6.210  0.0180 -0.9419  0.4525
  164MOL   H18833114   2.178   4.434   6.511 -1.4145  2.6723 -1.0443
  164MOL   H18933115   2.282   4.246   6.295  0.0868 -0.2539 -0.1670
  164MOL   H19033116   2.271   4.084   6.456 -0.9319  0.0592  0.1456
  164MOL   H19133117   2.263   4.204   6.594 -0.8012  1.2972 -0.9925
  164MOL   C19233118   2.462   4.168   6.505 -0.2691 -0.3201 -0.5016
  164MOL   C19333119   2.508   4.066   6.609 -0.6272 -0.4969  0.2811
  164MOL   C19433120   2.584   3.954   6.589  0.6975  0.2079 -0.3511
  164MOL   C19533121   2.619   3.861   6.710  0.0074  0.5840 -0.1234
  164MOL   H19633122   2.515   4.150   6.412  0.9463  1.6897 -0.2293
  164MOL   H19733123   2.513   4.258   6.539 -0.7340 -0.2116 -0.0841
  164MOL   H19833124   2.466   4.081   6.708 -0.1428 -1.8595  0.7025
  164MOL   H19933125   2.632   3.931   6.496  0.9976  0.0240 -0.1517
  164MOL   H20033126   2.591   3.894   6.811  2.9354 -1.6991  1.5006
  164MOL   H20133127   2.726   3.843   6.717 -0.0577  0.0052 -0.6652
  164MOL   H20233128   2.570   3.765   6.692 -2.2021  1.5609  0.4359
  165MOL     C133129   5.139   0.990   6.229 -0.0696 -0.1553  0.5342
  165MOL     C233130   5.165   1.059   6.358  0.1182 -0.4012 -0.2842
  165MOL     C333131   5.272   1.136   6.376 -0.2427  0.0735 -0.0314
  165MOL     C433132   5.289   1.208   6.506 -0.2179 -0.1273 -0.4853
  165MOL     H533133   5.064   1.040   6.168 -0.8011  0.4596  1.9113
  165MOL     H633134   5.106   0.890   6.255  2.7459 -1.2892 -0.0433
  165MOL     H733135   5.088   1.061   6.435 -0.6124  2.9672 -1.0156
  165MOL     H833136   5.348   1.158   6.303 -0.0780 -0.6298 -0.0741
  165MOL     H933137   5.373   1.170   6.563 -1.0941 -0.5601  0.5476
  165MOL    H1033138   5.200   1.205   6.570  0.6174 -0.8272  0.6509
  165MOL    H1133139   5.219   0.978   6.156 -0.4707  2.0270 -0.2975
  165MOL    C1233140   5.327   1.357   6.487 -0.1103 -0.9149 -0.2971
  165MOL    C1333141   5.309   1.427   6.619  0.4015  0.0487 -0.7179
  165MOL    C1433142   5.272   1.554   6.630 -0.4464 -0.0820  0.6868
  165MOL    C1533143   5.255   1.632   6.761 -0.5459 -0.8351 -0.2314
  165MOL    H1633144   5.432   1.366   6.458  0.9409 -0.8089  3.3187
  165MOL    H1733145   5.267   1.405   6.409 -0.9845  1.0495  1.5321
  165MOL    H1833146   5.345   1.379   6.709  1.5635 -3.0144 -2.7403
  165MOL    H1933147   5.234   1.596   6.538 -0.4322 -0.5871  0.4503
  165MOL    H2033148   5.332   1.710   6.763 -1.1831 -0.1507 -1.9103
  165MOL    H2133149   5.260   1.563   6.845  2.8316 -0.2384  0.1192
  165MOL    C2233150   5.116   1.690   6.772  0.3528 -0.5429  0.2480
  165MOL    C2333151   5.101   1.774   6.899 -0.0803 -0.0343 -0.0958
  165MOL    C2433152   5.018   1.742   7.000  1.2139 -1.2843 -0.0321
  165MOL    C2533153   4.980   1.843   7.108  1.0305 -0.0736 -0.3509
  165MOL    H2633154   5.092   1.757   6.690  2.7060  1.5335  1.2038
  165MOL    H2733155   5.040   1.611   6.771 -0.3193  0.1131 -0.4029
  165MOL    H2833156   5.141   1.873   6.886  0.3522 -0.0087  1.3180
  165MOL    H2933157   4.963   1.649   7.002  0.9735 -1.1265  0.9288
  165MOL    H3033158   4.874   1.863   7.096  0.4660 -0.7565  3.0082
  165MOL    H3133159   5.030   1.939   7.092 -2.6634  2.2231  1.3797
  165MOL    C3233160   5.032   1.807   7.245 -1.3466  0.7265  0.2371
  165MOL    C3333161   5.066   1.916   7.342  0.4626 -0.4262 -0.3064
  165MOL    C3433162   5.009   1.934   7.463  0.4112  0.2165  0.2871
  165MOL    C3533163   5.057   2.032   7.562  0.2084  0.8452 -0.4246
  165MOL    H3633164   4.974   1.729   7.292 -0.3791  0.9971  1.9092
  165MOL    H3733165   5.125   1.751   7.230 -2.5453 -1.5689  1.2820
  165MOL    H3833166   5.136   1.988   7.303 -1.1990  1.3016 -0.1691
  165MOL    H3933167   4.928   1.870   7.494 -1.1196  0.9352 -2.1415
  165MOL    H4033168   5.138   2.095   7.525 -0.3327  1.2885 -0.8608
  165MOL    H4133169   5.103   1.976   7.644 -3.0802  0.8993  1.5165
  165MOL    C4233170   4.943   2.118   7.614  0.7021  0.1043 -0.0789
  165MOL    C4333171   4.986   2.211   7.722 -0.5839 -0.1930 -0.1909
  165MOL    C4433172   4.981   2.346   7.724 -0.3039 -0.0128  0.0492
  165MOL    C4533173   5.031   2.419   7.851  0.3492  0.1465 -0.4690
  165MOL    H4633174   4.891   2.173   7.536  0.4052 -1.2745 -0.8837
  165MOL    H4733175   4.859   2.058   7.650  0.6918  1.1898  1.7524
  165MOL    H4833176   5.023   2.163   7.812 -1.5534 -0.6029 -0.0066
  165MOL    H4933177   4.942   2.416   7.653  0.6804  1.1743  0.6645
  165MOL    H5033178   5.109   2.488   7.816  0.2122  0.3381 -0.3981
  165MOL    H5133179   5.074   2.347   7.920 -0.6569 -0.8018 -0.8180
  165MOL    C5233180   4.919   2.508   7.923  0.0670  0.9240  0.8014
  165MOL    C5333181   4.967   2.569   0.075  0.0097 -0.0934  0.3180
  165MOL    C5433182   4.949   2.705   0.106 -0.0527  0.3727  0.7300
  165MOL    C5533183   5.007   2.759   0.241  0.0082 -0.1885 -0.2518
  165MOL    H5633184   4.891   2.589   7.855 -0.5447 -1.7603 -2.3167
  165MOL    H5733185   4.834   2.441   7.939 -1.5737  1.5334 -4.2204
  165MOL    H5833186   5.019   2.501   0.141  0.0737  0.5401  0.9283
  165MOL    H5933187   4.907   2.779   0.039  0.5097 -3.2993 -3.9834
  165MOL    H6033188   5.070   2.846   0.225  0.1337 -0.5498 -1.7511
  165MOL    H6133189   5.067   2.682   0.290  1.3849  1.4874  0.7615
  165MOL    C6233190   4.890   2.807   0.338 -0.2415  0.8275  0.4619
  165MOL    C6333191   4.946   2.850   0.472  0.2637  0.9037  0.2359
  165MOL    C6433192   4.986   2.968   0.506  0.0172 -0.3388 -0.0373
  165MOL    C6533193   5.015   3.011   0.648  0.1278  0.0237 -0.6326
  165MOL    H6633194   4.848   2.890   0.281 -0.2637 -0.0252 -0.7812
  165MOL    H6733195   4.813   2.735   0.365  1.1949 -1.3598 -1.1331
  165MOL    H6833196   4.937   2.770   0.544 -2.6580 -0.6224 -1.6908
  165MOL    H6933197   4.976   3.041   0.428  3.2147  1.5939  1.2783
  165MOL    H7033198   5.107   3.067   0.633  0.0941  0.0527 -0.7355
  165MOL    H7133199   5.046   2.936   0.721  1.3915  2.3672  1.2821
  165MOL    C7233200   4.911   3.109   0.705 -0.5591  0.1656  0.4596
  165MOL    C7333201   4.938   3.162   0.843  0.3693  0.0681 -0.0325
  165MOL    C7433202   4.877   3.133   0.957  0.1387 -0.1514 -0.3856
  165MOL    C7533203   4.922   3.185   1.096  0.0282  0.1680  0.0572
  165MOL    H7633204   4.895   3.196   0.642  0.7967  0.3057  0.2993
  165MOL    H7733205   4.812   3.065   0.720 -0.1673 -1.0154 -0.2811
  165MOL    H7833206   5.031   3.217   0.847 -0.6945  1.9543 -0.4616
  165MOL    H7933207   4.782   3.082   0.956  1.2864 -2.2880 -1.8614
  165MOL    H8033208   4.856   3.267   1.127 -1.7145 -1.0757 -0.2528
  165MOL    H8133209   5.014   3.242   1.090  0.4194 -0.4432  0.2705
  165MOL    C8233210   4.920   3.096   1.213 -0.1376 -0.2513 -0.3621
  165MOL    C8333211   5.003   2.972   1.184  0.2858  0.0236 -0.2078
  165MOL    C8433212   4.952   2.843   1.173 -0.9426 -0.4186  0.2156
  165MOL    C8533213   5.030   2.732   1.115  0.5775  0.6639 -0.0214
  165MOL    H8633214   4.948   3.149   1.303 -1.1634  1.9203 -1.2677
  165MOL    H8733215   4.816   3.086   1.246 -0.1008 -0.1251 -0.2106
  165MOL    H8833216   5.105   2.990   1.154  0.1928  0.2793 -0.3799
  165MOL    H8933217   4.853   2.818   1.208  1.1263 -2.9560  4.6590
  165MOL    H9033218   5.129   2.763   1.081 -1.1040  1.2525 -4.7589
  165MOL    H9133219   4.970   2.712   1.026  1.5268 -1.8058 -0.1468
  165MOL    C9233220   5.040   2.604   1.210  0.1112  0.0390  0.4194
  165MOL    C9333221   5.144   2.506   1.150  0.0814  0.0006 -0.8991
  165MOL    C9433222   5.123   2.375   1.148 -0.6320 -0.0338  0.1005
  165MOL    C9533223   5.224   2.275   1.095 -0.4152 -0.0989 -0.0737
  165MOL    H9633224   5.064   2.627   1.314 -0.9926 -2.2871  1.2184
  165MOL    H9733225   4.950   2.545   1.222  1.6590 -2.2513  1.2157
  165MOL    H9833226   5.237   2.546   1.113 -0.9422  2.0197 -1.3336
  165MOL    H9933227   5.031   2.336   1.190 -1.3096 -0.5594 -1.8092
  165MOL   H10033228   5.269   2.315   1.004 -1.6612 -2.0452 -1.5640
  165MOL   H10133229   5.173   2.187   1.058  1.0217  0.0905 -2.6163
  165MOL   C10233230   5.328   2.229   1.193 -0.4079 -0.1825 -0.7260
  165MOL   C10333231   5.428   2.139   1.117  0.2396 -0.7431  0.1809
  165MOL   C10433232   5.556   2.167   1.086  0.1636 -0.2082  0.2029
  165MOL   C10533233   5.647   2.076   1.003 -0.0502 -0.2314  0.5041
  165MOL   H10633234   5.377   2.314   1.240 -0.7841  0.5039 -1.5633
  165MOL   H10733235   5.287   2.175   1.278  2.3494  0.2422  0.9328
  165MOL   H10833236   5.386   2.057   1.060 -0.8384 -0.5792  0.7122
  165MOL   H10933237   5.602   2.256   1.126 -1.0815 -0.3238  1.9522
  165MOL   H11033238   5.579   1.994   0.980  0.0395 -0.0382 -0.4648
  165MOL   H11133239   5.727   2.037   1.066 -0.8518  0.5909  2.0639
  165MOL   C11233240   5.692   2.140   0.864  0.3831 -0.1266 -0.0383
  165MOL   C11333241   5.786   2.061   0.784 -0.3597 -0.0559 -0.7000
  165MOL   C11433242   5.757   2.022   0.662  0.4077 -0.3554  0.2415
  165MOL   C11533243   5.835   1.946   0.559  0.6166  0.2218  0.0586
  165MOL   H11633244   5.599   2.145   0.809  0.4965 -0.3694 -0.2544
  165MOL   H11733245   5.747   2.230   0.891  0.5852  0.0283 -0.9512
  165MOL   H11833246   5.886   2.035   0.814  0.1123  1.3133 -1.0268
  165MOL   H11933247   5.668   2.069   0.622  0.2536  0.0532  1.0591
  165MOL   H12033248   5.786   1.850   0.548 -2.6628  1.8598 -0.1324
  165MOL   H12133249   5.934   1.920   0.596 -0.0696 -0.2580  1.6046
  165MOL   C12233250   5.852   2.014   0.431  0.2221  0.0057 -0.1559
  165MOL   C12333251   5.939   1.944   0.336  0.2612  0.2560  0.5016
  165MOL   C12433252   6.065   1.984   0.308 -0.2470 -0.1182  0.3003
  165MOL   C12533253   6.156   1.907   0.219 -0.3204  0.6478 -0.0031
  165MOL   H12633254   5.749   2.025   0.397  0.6521 -1.4956 -2.0184
  165MOL   H12733255   5.885   2.117   0.440  0.3303 -0.0413 -0.0278
  165MOL   H12833256   5.903   1.848   0.303 -2.0873  1.4594 -0.5216
  165MOL   H12933257   6.105   2.078   0.341  0.3585 -0.4008  0.3762
  165MOL   H13033258   6.201   1.964   0.137 -0.7621  2.0091  0.6942
  165MOL   H13133259   6.095   1.837   0.162  0.9677 -0.1388 -0.4477
  165MOL   C13233260   6.259   1.829   0.301 -0.3708  0.2462 -0.2982
  165MOL   C13333261   6.317   1.706   0.230  0.3297 -0.1347  0.7575
  165MOL   C13433262   6.288   1.580   0.265 -0.5843 -0.5326 -0.5244
  165MOL   C13533263   6.349   1.458   0.192  0.7710  0.3962 -0.1114
  165MOL   H13633264   6.344   1.889   0.333 -2.4316  2.0280  2.0024
  165MOL   H13733265   6.214   1.803   0.396  3.5012  1.7319  2.0747
  165MOL   H13833266   6.380   1.724   0.144 -0.5071 -0.1736  0.1218
  165MOL   H13933267   6.229   1.551   0.351 -2.2843 -1.9470 -2.1091
  165MOL   H14033268   6.434   1.435   0.256  1.1497  0.3043 -0.6349
  165MOL   H14133269   6.378   1.491   0.092 -0.2830 -0.2645 -0.6374
  165MOL   C14233270   6.258   1.341   0.194 -0.3111 -0.2317 -0.3154
  165MOL   C14333271   6.312   1.214   0.126 -0.0129 -0.0911 -0.0712
  165MOL   C14433272   6.235   1.121   0.068 -0.1828 -0.5376  0.2472
  165MOL   C14533273   6.296   0.986   0.023  0.0018 -0.1579 -0.5223
  165MOL   H14633274   6.234   1.316   0.297 -2.1962 -0.0351 -0.6881
  165MOL   H14733275   6.164   1.362   0.143  0.0209 -1.2045 -1.3541
  165MOL   H14833276   6.417   1.191   0.135 -0.2702 -2.0651 -1.7167
  165MOL   H14933277   6.128   1.132   0.061 -0.4014 -3.6835 -3.8465
  165MOL   H15033278   6.270   0.923   0.108 -0.4222  1.4652  0.5795
  165MOL   H15133279   6.404   0.996   0.014  0.3512 -1.0651  2.1251
  165MOL   C15233280   6.216   0.922   7.881 -0.1246  0.2590 -0.1936
  165MOL   C15333281   6.294   0.827   7.790  0.2806  0.0236  0.5902
  165MOL   C15433282   6.275   0.696   7.784 -0.4907 -0.4875 -0.1288
  165MOL   C15533283   6.356   0.606   7.695 -0.5180 -0.1644  0.1183
  165MOL   H15633284   6.118   0.889   7.915 -0.4771 -0.4017 -1.8135
  165MOL   H15733285   6.196   1.006   7.814 -1.3413 -0.6597 -1.0138
  165MOL   H15833286   6.369   0.881   7.733 -1.4476  3.4896  1.4207
  165MOL   H15933287   6.214   0.638   7.853  0.0129  0.2536  0.9556
  165MOL   H16033288   6.436   0.563   7.754  0.6354  0.2059 -1.1545
  165MOL   H16133289   6.412   0.673   7.630 -0.9169  0.3967  0.3535
  165MOL   C16233290   6.264   0.514   7.614  0.4886 -0.1548 -0.2428
  165MOL   C16333291   6.347   0.446   7.515 -0.4146 -0.7831 -0.0060
  165MOL   C16433292   6.339   0.475   7.387  0.3786 -0.3972 -0.5891
  165MOL   C16533293   6.406   0.404   7.276 -0.2708  0.4152  0.3902
  165MOL   H16633294   6.215   0.445   7.684 -1.5659  1.5879  0.0874
  165MOL   H16733295   6.185   0.568   7.563 -0.7449 -1.2644  0.4756
  165MOL   H16833296   6.407   0.364   7.553  1.1155 -0.0523 -0.7892
  165MOL   H16933297   6.274   0.554   7.354  0.4432 -0.1430 -0.0966
  165MOL   H17033298   6.474   0.324   7.304  1.5773  1.4242 -1.0489
  165MOL   H17133299   6.468   0.477   7.223 -0.9734  1.5491  1.1064
  165MOL   C17233300   6.315   0.318   7.191  0.3240  0.4666  0.7983
  165MOL   C17333301   6.375   0.279   7.054 -0.0521 -0.3151 -0.5359
  165MOL   C17433302   6.309   0.305   6.938  0.5208 -0.4406 -0.8397
  165MOL   C17533303   6.355   0.280   6.801  0.0556  0.0300  0.5628
  165MOL   H17633304   6.277   0.232   7.246 -3.3628  1.3919 -0.1823
  165MOL   H17733305   6.227   0.379   7.168  2.2811  2.7164 -1.0040
  165MOL   H17833306   6.481   0.260   7.054  0.0260 -0.0769  2.0212
  165MOL   H17933307   6.210   0.348   6.942  0.3840 -0.7428 -0.8851
  165MOL   H18033308   6.310   0.184   6.775 -2.5539  1.2719  0.3199
  165MOL   H18133309   6.462   0.262   6.797 -0.3484 -2.2690 -1.0863
  165MOL   C18233310   6.322   0.390   6.701 -0.0448  0.4466 -0.9086
  165MOL   C18333311   6.345   0.350   6.556 -0.6962  0.1353 -0.4129
  165MOL   C18433312   6.397   0.425   6.459  0.0188  0.3502  0.0082
  165MOL   C18533313   6.430   0.359   6.326 -0.5254  0.4310 -0.1477
  165MOL   H18633314   6.218   0.422   6.711 -0.5708 -1.8692  1.6552
  165MOL   H18733315   6.386   0.477   6.719 -1.1974  1.1861 -0.3249
  165MOL   H18833316   6.314   0.249   6.530  0.2988 -0.0438 -0.9414
  165MOL   H18933317   6.425   0.527   6.479 -0.7657  1.0959 -2.5397
  165MOL   H19033318   6.382   0.261   6.322 -2.6799  1.5066 -3.1181
  165MOL   H19133319   6.536   0.342   6.312 -0.6636 -0.9634  0.4464
  165MOL   C19233320   6.375   0.430   6.206  0.0791  0.2237 -0.4019
  165MOL   C19333321   6.443   0.390   6.074 -0.2550  0.1865  0.2161
  165MOL   C19433322   6.556   0.448   6.023  0.0257 -0.2241 -0.8160
  165MOL   C19533323   6.613   0.417   5.888  0.3392  0.1617 -0.5076
  165MOL   H19633324   6.267   0.444   6.200 -0.0659 -0.6380  0.0905
  165MOL   H19733325   6.431   0.522   6.219 -0.9702  0.6561  1.1040
  165MOL   H19833326   6.394   0.305   6.030  0.6623 -0.8802  1.1876
  165MOL   H19933327   6.605   0.520   6.088  0.5434 -0.7764 -0.5941
  165MOL   H20033328   6.649   0.507   5.839  0.6591  0.1798 -0.2438
  165MOL   H20133329   6.535   0.375   5.826  0.1443 -0.3628  0.0878
  165MOL   H20233330   6.691   0.340   5.885  1.1218  0.9206  0.1747
  166MOL     C133331   7.927   3.176   4.227 -0.2856 -0.2800  0.1418
  166MOL     C233332   7.879   3.130   4.097  0.1794  0.6611 -0.3857
  166MOL     C333333   7.749   3.117   4.067 -0.5553  0.0099  0.4236
  166MOL     C433334   7.707   3.079   3.923 -0.2370 -0.2478 -0.0498
  166MOL     H533335   7.849   3.175   4.303 -0.3794 -1.4147  0.0366
  166MOL     H633336   7.959   3.280   4.213 -0.3881 -0.3610 -0.7424
  166MOL     H733337   7.958   3.112   4.026  0.4011  0.3053 -0.0509
  166MOL     H833338   7.666   3.155   4.124 -0.9758  0.5856 -0.5660
  166MOL     H933339   7.631   3.002   3.935  0.3743 -0.8010  0.2930
  166MOL    H1033340   7.795   3.031   3.881 -0.6188 -0.0084 -1.1459
  166MOL    H1133341   0.030   3.115   4.269  0.3481  1.1127  1.0083
  166MOL    C1233342   7.652   3.194   3.837  0.1346 -0.7216 -0.4418
  166MOL    C1333343   7.588   3.131   3.713  0.2400 -0.7016 -0.3141
  166MOL    C1433344   7.455   3.135   3.682 -0.2061 -0.9278 -0.8334
  166MOL    C1533345   7.399   3.074   3.561 -0.3198 -0.1472 -0.1061
  166MOL    H1633346   7.577   3.250   3.892 -0.4528 -1.1911 -0.7555
  166MOL    H1733347   7.731   3.255   3.794  0.8427 -0.1908  1.5471
  166MOL    H1833348   7.650   3.090   3.635  0.2880 -1.4916  0.1400
  166MOL    H1933349   7.377   3.172   3.747 -1.0776 -0.7853 -1.9407
  166MOL    H2033350   7.331   2.997   3.600  0.1893  0.6699  2.4782
  166MOL    H2133351   7.484   3.022   3.517 -0.0636  0.2578 -0.0899
  166MOL    C2233352   7.348   3.173   3.464 -0.3026 -0.7648 -0.4487
  166MOL    C2333353   7.284   3.105   3.350  0.3472  0.1689  0.7445
  166MOL    C2433354   7.329   3.120   3.226  0.0817  0.1585 -0.3418
  166MOL    C2533355   7.269   3.042   3.108 -0.0387  0.6139  0.9616
  166MOL    H2633356   7.278   3.249   3.500  0.2128 -1.2744  1.7352
  166MOL    H2733357   7.433   3.232   3.429 -0.6649 -0.4852 -0.8601
  166MOL    H2833358   7.212   3.027   3.370  1.4180 -1.0717 -0.1637
  166MOL    H2933359   7.411   3.185   3.203  0.3702  0.5189  1.6075
  166MOL    H3033360   7.261   3.101   3.017 -1.7532 -0.1818  0.5724
  166MOL    H3133361   7.170   3.010   3.141  0.2423 -2.0161 -0.5630
  166MOL    C3233362   7.344   2.906   3.086  0.0453 -0.0328 -0.5080
  166MOL    C3333363   7.266   2.801   3.020 -0.2136  0.4084  0.8936
  166MOL    C3433364   7.286   2.766   2.896  0.3727 -0.1360 -0.3483
  166MOL    C3533365   7.217   2.656   2.817 -0.8429  0.2873 -0.1801
  166MOL    H3633366   7.437   2.930   3.033 -0.2658  0.5206 -0.8057
  166MOL    H3733367   7.369   2.868   3.185  1.2201 -0.0525 -0.7944
  166MOL    H3833368   7.190   2.738   3.063 -0.6653 -0.5034 -1.2086
  166MOL    H3933369   7.355   2.827   2.840  1.1590  0.3266  1.1362
  166MOL    H4033370   7.175   2.570   2.870  3.4372 -0.4213  2.2863
  166MOL    H4133371   7.277   2.619   2.734 -2.6050  0.0856 -1.4021
  166MOL    C4233372   7.096   2.717   2.747  0.1486 -1.0729 -0.5923
  166MOL    C4333373   7.125   2.841   2.670  0.2083  0.3550  0.0833
  166MOL    C4433374   7.095   2.962   2.704 -0.0414 -0.2072  0.5694
  166MOL    C4533375   7.151   3.085   2.634  0.4251 -0.2124 -0.1536
  166MOL    H4633376   7.047   2.650   2.677  0.2432 -1.2062 -0.5322
  166MOL    H4733377   7.019   2.730   2.824 -0.4014 -0.6256 -1.2141
  166MOL    H4833378   7.174   2.813   2.578 -1.0350 -0.3797 -0.3797
  166MOL    H4933379   7.040   2.992   2.791 -0.2381  1.2789 -0.0522
  166MOL    H5033380   7.223   3.048   2.561  0.2372  1.5891 -1.2969
  166MOL    H5133381   7.203   3.139   2.713  2.9279 -1.3962 -0.9447
  166MOL    C5233382   7.034   3.158   2.556 -0.5917  0.0054  0.5583
  166MOL    C5333383   7.082   3.282   2.483  0.1805  0.5718 -0.7186
  166MOL    C5433384   7.081   3.290   2.351  0.0405  0.0621  0.0235
  166MOL    C5533385   7.109   3.417   2.278  0.2704 -0.3225 -0.1308
  166MOL    H5633386   6.988   3.080   2.495  0.3338 -1.1270  1.2679
  166MOL    H5733387   6.982   3.190   2.646 -1.9594 -1.3019  0.2485
  166MOL    H5833388   7.118   3.369   2.537  0.1574  1.0788 -1.5220
  166MOL    H5933389   7.063   3.200   2.295  3.8452 -0.7794  0.0577
  166MOL    H6033390   7.067   3.507   2.323 -1.4761 -1.2834  0.1833
  166MOL    H6133391   7.069   3.413   2.177 -1.3336  0.1935  0.4733
  166MOL    C6233392   7.263   3.430   2.283 -0.0885  0.5823  0.0723
  166MOL    C6333393   7.323   3.353   2.168 -0.4593  0.1716 -0.6681
  166MOL    C6433394   7.393   3.402   2.067  0.0345  0.5694 -0.0101
  166MOL    C6533395   7.436   3.309   1.953 -0.2558 -0.2789  0.3874
  166MOL    H6633396   7.300   3.532   2.273  1.7529 -0.1338 -0.5568
  166MOL    H6733397   7.312   3.377   2.364  1.2920  0.5800 -0.7483
  166MOL    H6833398   7.303   3.247   2.175 -2.3461  0.6447  2.3482
  166MOL    H6933399   7.425   3.504   2.051 -0.8449  0.7394 -0.7164
  166MOL    H7033400   7.389   3.214   1.977  0.4489 -0.0883  2.6345
  166MOL    H7133401   7.541   3.291   1.978 -0.0320 -0.8737 -0.9059
  166MOL    C7233402   7.417   3.357   1.809 -0.4054  0.5362  0.0933
  166MOL    C7333403   7.485   3.268   1.705 -0.3134  0.1567  0.2544
  166MOL    C7433404   7.425   3.216   1.602 -0.2907  0.3372  0.0039
  166MOL    C7533405   7.485   3.133   1.492  0.0136 -0.4481 -0.0565
  166MOL    H7633406   7.311   3.362   1.788 -0.7895  0.9390  1.9828
  166MOL    H7733407   7.468   3.452   1.793  1.0533 -0.3523 -0.6401
  166MOL    H7833408   7.593   3.262   1.706 -0.4130 -2.2861 -0.3498
  166MOL    H7933409   7.320   3.228   1.582  0.1751  2.1312 -1.4742
  166MOL    H8033410   7.465   3.028   1.513 -1.1217  0.1826  2.1082
  166MOL    H8133411   7.593   3.152   1.489 -0.5591  3.0645 -0.0387
  166MOL    C8233412   7.427   3.172   1.357  0.3071  0.0579  0.0992
  166MOL    C8333413   7.469   3.087   1.238  0.1502 -0.5062  0.3856
  166MOL    C8433414   7.381   3.013   1.165 -0.6662 -0.0918 -0.5341
  166MOL    C8533415   7.408   2.910   1.054  0.3828 -0.3155 -0.1064
  166MOL    H8633416   7.319   3.187   1.361  0.2886  0.9314 -2.9726
  166MOL    H8733417   7.461   3.272   1.330 -3.2153  1.8963  2.0474
  166MOL    H8833418   7.574   3.093   1.213  0.1970  2.8598  1.1348
  166MOL    H8933419   7.277   3.024   1.191 -0.5490  1.1834 -0.5482
  166MOL    H9033420   7.505   2.862   1.065 -0.1573 -1.4956 -0.5012
  166MOL    H9133421   7.386   2.965   0.962  0.7394  0.9025  0.5211
  166MOL    C9233422   7.310   2.800   1.055  0.0194  0.0363  0.8649
  166MOL    C9333423   7.335   2.686   0.953  0.0586 -0.8348 -0.1294
  166MOL    C9433424   7.335   2.558   0.992 -0.0402 -0.6831  0.6091
  166MOL    C9533425   7.362   2.439   0.896  0.6912 -0.0516 -0.2573
  166MOL    H9633426   7.287   2.754   1.151 -1.3815 -0.8774  0.1159
  166MOL    H9733427   7.221   2.853   1.019  0.1623 -0.0505  0.3687
  166MOL    H9833428   7.367   2.720   0.856  1.0752  0.4635  0.6458
  166MOL    H9933429   7.330   2.548   1.099  2.8822  0.9292  0.9287
  166MOL   H10033430   7.393   2.487   0.803 -0.3532 -2.6505 -2.0076
  166MOL   H10133431   7.263   2.398   0.878  0.9058 -0.8098  0.2907
  166MOL   C10233432   7.467   2.342   0.947  0.5123  1.2969  0.2135
  166MOL   C10333433   7.412   2.248   1.057  0.0192  0.1331 -0.1078
  166MOL   C10433434   7.456   2.244   1.181  0.1689 -0.1138 -0.3929
  166MOL   C10533435   7.404   2.146   1.291 -0.7732 -0.0465 -0.2755
  166MOL   H10633436   7.508   2.284   0.864 -1.2943  1.0710 -0.5457
  166MOL   H10733437   7.549   2.396   0.995  1.9149 -1.0949  0.5837
  166MOL   H10833438   7.324   2.187   1.040  1.0246 -1.2364 -0.4327
  166MOL   H10933439   7.541   2.304   1.212 -1.0641  1.0604  0.7583
  166MOL   H11033440   7.320   2.090   1.250 -0.8462 -0.8646  0.9932
  166MOL   H11133441   7.368   2.206   1.375  1.5181  1.2740 -0.2056
  166MOL   C11233442   7.516   2.052   1.337  0.0990 -0.3014  0.3250
  166MOL   C11333443   7.524   1.931   1.239  1.0352  0.0586  0.7481
  166MOL   C11433444   7.568   1.812   1.271  0.3180 -0.6983  0.5938
  166MOL   C11533445   7.570   1.692   1.179  0.2705  1.1198  0.5757
  166MOL   H11633446   7.608   2.107   1.356 -0.7884  1.2983  0.0668
  166MOL   H11733447   7.471   2.008   1.426  0.4722  0.2946  0.8110
  166MOL   H11833448   7.498   1.960   1.138  0.8555 -0.3397  0.6773
  166MOL   H11933449   7.591   1.789   1.375 -1.7403  0.1470  1.2469
  166MOL   H12033450   7.660   1.634   1.197 -0.4280 -0.6390 -1.4411
  166MOL   H12133451   7.566   1.715   1.073 -0.3379 -3.3311 -0.4586
  166MOL   C12233452   7.464   1.585   1.210  0.0890  0.1939  0.3980
  166MOL   C12333453   7.322   1.637   1.208  0.5029 -0.1332 -0.5649
  166MOL   C12433454   7.226   1.593   1.124 -0.1156  0.5129  0.2714
  166MOL   C12533455   7.090   1.668   1.123  0.6128 -0.3379 -0.4857
  166MOL   H12633456   7.476   1.504   1.137 -0.2578  0.5562 -0.0603
  166MOL   H12733457   7.481   1.541   1.309  0.1127 -0.5741  0.0594
  166MOL   H12833458   7.302   1.713   1.283  2.4019 -0.7731  0.6215
  166MOL   H12933459   7.243   1.510   1.057 -1.0623  0.0104  0.6429
  166MOL   H13033460   7.085   1.726   1.215  0.2576  0.6983 -1.1494
  166MOL   H13133461   7.005   1.601   1.134 -0.3509  0.9913  0.2777
  166MOL   C13233462   7.062   1.762   1.009 -0.8462  0.7522 -0.0969
  166MOL   C13333463   6.979   1.879   1.039  0.0736 -0.4776 -0.2906
  166MOL   C13433464   7.021   2.010   1.017 -0.4878  0.4938  0.6459
  166MOL   C13533465   6.936   2.129   1.047 -0.8735 -0.2023 -0.3282
  166MOL   H13633466   7.160   1.785   0.967  1.0697 -2.4853  2.4265
  166MOL   H13733467   7.021   1.708   0.923 -0.5869 -0.5036  0.5662
  166MOL   H13833468   6.884   1.860   1.085  0.0776  1.0824  0.4196
  166MOL   H13933469   7.114   2.033   0.966 -0.7757 -1.0811 -0.6316
  166MOL   H14033470   6.850   2.082   1.094 -1.1412  0.2193 -0.3882
  166MOL   H14133471   6.901   2.177   0.956 -0.7429  3.8576  1.6087
  166MOL   C14233472   6.995   2.226   1.155  0.2819  0.4180  0.0703
  166MOL   C14333473   6.884   2.321   1.197  0.4802 -0.3462 -0.0792
  166MOL   C14433474   6.845   2.334   1.323  0.9864 -0.5364  0.0857
  166MOL   C14533475   6.730   2.416   1.370  0.2188  0.1230 -0.1041
  166MOL   H14633476   7.018   2.162   1.239 -1.6739 -1.7425 -0.9839
  166MOL   H14733477   7.083   2.272   1.110  0.1277 -0.7264 -1.4473
  166MOL   H14833478   6.826   2.366   1.118  2.8338  0.3137 -1.4797
  166MOL   H14933479   6.905   2.287   1.400 -0.6826 -1.9504  0.5467
  166MOL   H15033480   6.692   2.386   1.468 -2.2772  1.2549 -0.6978
  166MOL   H15133481   6.650   2.402   1.298 -0.5091 -2.4534  1.1589
  166MOL   C15233482   6.777   2.562   1.364  0.3493  0.0365  0.0270
  166MOL   C15333483   6.650   2.645   1.397 -0.4022  0.9628 -0.2526
  166MOL   C15433484   6.642   2.730   1.502  0.3477  0.0550  0.0390
  166MOL   C15533485   6.525   2.824   1.522  0.2887  0.1691 -0.0141
  166MOL   H15633486   6.857   2.580   1.436 -1.8115  0.7476  2.3278
  166MOL   H15733487   6.811   2.587   1.264  1.4861 -3.4367 -0.5080
  166MOL   H15833488   6.573   2.628   1.323  0.0204  0.4311 -0.5702
  166MOL   H15933489   6.736   2.742   1.553  0.2041  0.1505  0.2794
  166MOL   H16033490   6.467   2.785   1.606  0.6672 -1.8418 -0.6623
  166MOL   H16133491   6.460   2.809   1.436  0.0535 -1.1521  0.3738
  166MOL   C16233492   6.569   2.963   1.538 -0.0601  0.8238 -0.0689
  166MOL   C16333493   6.464   3.058   1.597  0.4666  0.3552 -0.3248
  166MOL   C16433494   6.459   3.104   1.725  0.3179  0.4683  0.2015
  166MOL   C16533495   6.357   3.205   1.771  0.3562  0.2061  0.0041
  166MOL   H16633496   6.656   2.983   1.601  1.9604  1.5302 -2.9795
  166MOL   H16733497   6.596   3.000   1.439  0.0529  0.0661 -0.3222
  166MOL   H16833498   6.380   3.078   1.532  1.0066 -1.4153 -1.6120
  166MOL   H16933499   6.534   3.078   1.799 -0.3295 -2.2414 -0.0509
  166MOL   H17033500   6.289   3.238   1.692  2.3244  0.8407 -1.4539
  166MOL   H17133501   6.411   3.299   1.781 -1.1957  1.1198  0.0318
  166MOL   C17233502   6.287   3.173   1.905  0.1494 -0.4300  0.3353
  166MOL   C17333503   6.158   3.260   1.936  0.3001  0.1349 -0.0270
  166MOL   C17433504   6.125   3.321   2.051 -0.1969 -0.2349 -0.1120
  166MOL   C17533505   6.001   3.405   2.088 -0.0062  0.1848  0.0428
  166MOL   H17633506   6.240   3.075   1.900 -0.9342  0.1155 -0.4216
  166MOL   H17733507   6.355   3.170   1.990  0.8659 -0.1696 -0.2290
  166MOL   H17833508   6.091   3.265   1.851  1.7886  0.4250 -1.2053
  166MOL   H17933509   6.192   3.314   2.136 -1.8065 -0.1177  1.2044
  166MOL   H18033510   5.947   3.349   2.164 -0.1416  0.0173 -0.1771
  166MOL   H18133511   5.940   3.423   2.000  0.4608 -1.8227 -0.7294
  166MOL   C18233512   6.042   3.543   2.140  0.4550 -0.3870  0.2731
  166MOL   C18333513   5.941   3.652   2.154 -0.0703  0.3459  0.0310
  166MOL   C18433514   5.886   3.682   2.275 -0.1617 -0.0702  0.2298
  166MOL   C18533515   5.790   3.784   2.304 -0.1635  0.5604 -0.0995
  166MOL   H18633516   6.089   3.545   2.238  0.5597  0.3468  0.2061
  166MOL   H18733517   6.129   3.575   2.083  0.1801 -0.3793 -0.1424
  166MOL   H18833518   5.907   3.696   2.062 -0.8584 -0.7107 -0.1943
  166MOL   H18933519   5.913   3.634   2.368 -2.2737 -0.6384  0.5652
  166MOL   H19033520   5.714   3.720   2.349  2.4830 -1.8860  1.0653
  166MOL   H19133521   5.777   3.833   2.208 -0.7935  0.4664 -0.0608
  166MOL   C19233522   5.855   3.876   2.414  0.0380  0.4441  0.3366
  166MOL   C19333523   5.754   3.957   2.488  0.4168 -0.4615 -0.6764
  166MOL   C19433524   5.738   4.090   2.471  0.1275 -0.2225 -0.2156
  166MOL   C19533525   5.661   4.186   2.564  0.0918  0.8015  0.3155
  166MOL   H19633526   5.914   3.819   2.486  0.7864 -1.2767 -1.6193
  166MOL   H19733527   5.928   3.938   2.362  1.4117  0.8732  2.6716
  166MOL   H19833528   5.707   3.899   2.565 -1.2232  0.2167 -1.1521
  166MOL   H19933529   5.788   4.155   2.400 -0.8061 -0.4002 -1.0445
  166MOL   H20033530   5.728   4.236   2.634 -0.2512  0.4657  0.8873
  166MOL   H20133531   5.589   4.125   2.618  0.5875  0.8884  1.0798
  166MOL   H20233532   5.620   4.269   2.506  0.0797 -1.0961 -2.5384
  167MOL     C133533   1.782   5.597   5.188 -0.3800 -0.1559  0.5822
  167MOL     C233534   1.660   5.658   5.255  0.3139  0.0565  0.2633
  167MOL     C333535   1.538   5.596   5.248 -0.0702  0.2341 -0.6378
  167MOL     C433536   1.411   5.639   5.316 -0.6939 -0.7497  0.2283
  167MOL     H533537   1.868   5.596   5.255  0.2243  1.2170 -0.1501
  167MOL     H633538   1.803   5.653   5.096 -2.3102 -1.0246 -0.4082
  167MOL     H733539   1.678   5.747   5.314  0.0405  0.3075 -0.0313
  167MOL     H833540   1.525   5.503   5.194 -1.0750  0.2580 -0.4525
  167MOL     H933541   1.377   5.568   5.392 -1.4717 -1.9651 -1.2174
  167MOL    H1033542   1.328   5.663   5.250  0.0641  2.5552  0.4130
  167MOL    H1133543   1.755   5.493   5.174  3.2693 -1.4100  2.1024
  167MOL    C1233544   1.421   5.769   5.403 -0.4357 -0.7839  0.0411
  167MOL    C1333545   1.300   5.810   5.485  0.4664 -0.1662  0.2161
  167MOL    C1433546   1.179   5.757   5.493 -0.5325  0.9699 -0.0164
  167MOL    C1533547   1.069   5.781   5.601 -0.2348 -0.0714  1.2427
  167MOL    H1633548   1.499   5.756   5.478 -0.5966  0.1184  0.3741
  167MOL    H1733549   1.450   5.853   5.340 -1.0292 -0.9510 -0.4644
  167MOL    H1833550   1.331   5.883   5.559 -0.7634  0.0858  0.4973
  167MOL    H1933551   1.144   5.682   5.424 -1.1517  1.7315 -0.5378
  167MOL    H2033552   1.120   5.837   5.679  1.3257  1.8447 -1.0743
  167MOL    H2133553   1.033   5.684   5.634  0.9130 -0.4653  1.3584
  167MOL    C2233554   0.956   5.862   5.547 -0.0065 -0.0524 -0.1611
  167MOL    C2333555   0.838   5.862   5.640  0.3861  0.8890 -0.7874
  167MOL    C2433556   0.713   5.819   5.608  0.2307  0.6992  0.0154
  167MOL    C2533557   0.592   5.798   5.698  0.0432 -0.4264  0.4317
  167MOL    H2633558   0.983   5.967   5.544 -1.5226  0.3491 -0.5830
  167MOL    H2733559   0.923   5.828   5.448 -2.1449 -0.1365  0.5432
  167MOL    H2833560   0.859   5.878   5.744  0.2073 -0.6042 -0.5125
  167MOL    H2933561   0.698   5.793   5.504  0.2351 -1.7290  0.5755
  167MOL    H3033562   0.624   5.805   5.802 -0.1492  0.8373  0.4225
  167MOL    H3133563   0.562   5.694   5.695 -0.3273 -0.2933 -0.6564
  167MOL    C3233564   0.472   5.895   5.679  0.2561  0.3529  0.0686
  167MOL    C3333565   0.370   5.875   5.795  0.1319 -0.4988 -0.6369
  167MOL    C3433566   0.242   5.831   5.779 -0.0599  0.1272  0.0544
  167MOL    C3533567   0.139   5.826   5.890  0.0529  0.0095 -0.4480
  167MOL    H3633568   0.500   6.000   5.685 -0.3557  0.6363 -1.6763
  167MOL    H3733569   0.423   5.884   5.582  0.2962  2.5035 -0.2290
  167MOL    H3833570   0.400   5.898   5.896  0.1569  0.4612 -0.8588
  167MOL    H3933571   0.197   5.803   5.685  1.1273  1.4580 -0.9359
  167MOL    H4033572   0.042   5.785   5.863 -1.3884  2.3265  0.9826
  167MOL    H4133573   0.138   5.925   5.936 -1.2030  0.0162 -0.4898
  167MOL    C4233574   0.190   5.728   5.994 -0.1532  0.3500 -0.2465
  167MOL    C4333575   0.092   5.698   6.114 -0.4549  0.5233 -0.0514
  167MOL    C4433576   0.118   5.717   6.245 -0.0154  1.0406 -0.1083
  167MOL    C4533577   0.015   5.689   6.352  0.1943 -0.5528 -0.7402
  167MOL    H4633578   0.225   5.635   5.951 -3.3017 -0.7213 -0.5700
  167MOL    H4733579   0.278   5.770   6.043 -0.6120  1.0729 -0.0275
  167MOL    H4833580   7.975   5.661   6.076 -0.7274  1.5584 -0.4118
  167MOL    H4933581   0.215   5.752   6.278  0.0997  0.2676  0.3875
  167MOL    H5033582   0.050   5.591   6.386 -0.6583 -0.2527  1.0386
  167MOL    H5133583   7.888   5.693   6.317 -0.5120 -1.4957  1.1969
  167MOL    C5233584   0.017   5.781   6.475 -0.4026 -0.5453 -0.6740
  167MOL    C5333585   7.879   5.756   6.572 -0.1548  0.0625 -0.4271
  167MOL    C5433586   7.770   5.838   6.581  0.6957  0.6213  0.6735
  167MOL    C5533587   7.646   5.806   6.660  0.9612 -1.0895  0.4678
  167MOL    H5633588   0.100   5.772   6.545 -0.2254 -0.5225 -0.8837
  167MOL    H5733589   0.006   5.883   6.439  2.8734 -0.7820 -2.5821
  167MOL    H5833590   7.874   5.658   6.618 -1.8030 -0.0611 -0.8265
  167MOL    H5933591   7.768   5.929   6.522 -1.6942 -0.2243 -0.6291
  167MOL    H6033592   7.669   5.835   6.762  2.9047  0.3846 -0.3589
  167MOL    H6133593   7.638   5.698   6.666  1.2418 -1.1846 -0.7817
  167MOL    C6233594   7.521   5.874   6.605  0.8623  0.1071 -0.2957
  167MOL    C6333595   7.394   5.832   6.682  0.1507 -0.0595  0.2595
  167MOL    C6433596   7.346   5.900   6.785  0.0569 -0.2554 -0.0182
  167MOL    C6533597   7.228   5.858   6.869  0.1832  0.1937  0.3228
  167MOL    H6633598   7.543   5.978   6.630 -0.4176 -0.0188  1.4420
  167MOL    H6733599   7.502   5.860   6.499  0.5343  1.0456 -0.3697
  167MOL    H6833600   7.351   5.734   6.664 -0.2336 -0.0551  1.1273
  167MOL    H6933601   7.387   5.990   6.828 -0.7135 -0.6273  1.5490
  167MOL    H7033602   7.180   5.766   6.835 -1.5738  1.4899 -0.7937
  167MOL    H7133603   7.156   5.939   6.856  1.1999  0.7614 -1.9963
  167MOL    C7233604   7.253   5.874   7.016 -0.3830  0.6992 -0.2970
  167MOL    C7333605   7.132   5.829   7.096 -0.2062 -0.2900 -0.3105
  167MOL    C7433606   7.062   5.909   7.176  0.0624  0.0583 -0.8269
  167MOL    C7533607   6.934   5.860   7.240 -0.0466 -0.3642 -0.3015
  167MOL    H7633608   7.340   5.815   7.041  3.1408  5.7079  0.0367
  167MOL    H7733609   7.283   5.977   7.039  2.3338 -0.0089 -0.5224
  167MOL    H7833610   7.097   5.728   7.083  0.0040 -0.1552 -1.9564
  167MOL    H7933611   7.084   6.012   7.197 -1.4820  0.3373 -0.5104
  167MOL    H8033612   6.889   5.767   7.205  0.0961  0.6148 -3.2227
  167MOL    H8133613   6.863   5.933   7.201 -0.2449 -0.0823  0.5840
  167MOL    C8233614   6.950   5.876   7.391 -0.2711  0.1321 -0.1950
  167MOL    C8333615   6.814   5.875   7.465 -0.6038 -0.0594 -0.1066
  167MOL    C8433616   6.764   5.763   7.519  0.0085  0.2250  0.8286
  167MOL    C8533617   6.627   5.748   7.589  0.3821 -0.1550  0.3632
  167MOL    H8633618   7.015   5.802   7.438 -0.2267  0.5820  0.4759
  167MOL    H8733619   6.994   5.974   7.413 -0.4986  0.2567 -0.2995
  167MOL    H8833620   6.753   5.964   7.452 -0.6788 -0.4370 -2.5216
  167MOL    H8933621   6.822   5.672   7.522 -0.3126  0.0294  1.1439
  167MOL    H9033622   6.564   5.826   7.546 -1.5253 -0.8428  1.8478
  167MOL    H9133623   6.636   5.784   7.692 -0.2883  1.5253 -0.1446
  167MOL    C9233624   6.579   5.611   7.569  0.3653  0.2605 -0.7376
  167MOL    C9333625   6.457   5.577   7.648  0.9391  0.0764  0.3009
  167MOL    C9433626   6.352   5.509   7.598 -0.0733 -0.4560 -0.3381
  167MOL    C9533627   6.231   5.463   7.670  0.7030 -0.0447  0.7226
  167MOL    H9633628   6.553   5.582   7.467  0.8838  0.9937 -1.0908
  167MOL    H9733629   6.655   5.540   7.601 -0.5396 -0.4154 -0.0914
  167MOL    H9833630   6.456   5.599   7.753  2.5745  0.5544  0.2276
  167MOL    H9933631   6.354   5.482   7.493 -1.0201  3.1063 -1.3550
  167MOL   H10033632   6.145   5.475   7.605  1.1563  1.2148  0.3261
  167MOL   H10133633   6.227   5.532   7.755 -0.0737 -0.6011  1.1340
  167MOL   C10233634   6.245   5.320   7.725 -0.3709 -0.2184  0.6709
  167MOL   C10333635   6.135   5.281   7.816 -0.3114 -0.0236  0.3916
  167MOL   C10433636   6.009   5.295   7.790  0.0343 -0.5851 -0.2732
  167MOL   C10533637   5.909   5.234   7.874  0.2494 -0.2501 -0.3184
  167MOL   H10633638   6.235   5.261   7.634 -0.6208 -2.8045  2.3108
  167MOL   H10733639   6.344   5.303   7.765 -0.3301  0.4242  0.8333
  167MOL   H10833640   6.152   5.232   7.911 -0.9920 -1.8105 -0.3956
  167MOL   H10933641   5.978   5.346   7.700  0.3715  1.5527  0.7961
  167MOL   H11033642   5.948   5.152   7.935  3.4295  2.5464  1.5691
  167MOL   H11133643   5.830   5.189   7.813  1.0589 -0.1627 -1.4514
  167MOL   C11233644   5.845   5.336   7.964  0.2750 -0.4273  0.2477
  167MOL   C11333645   5.720   5.272   0.059 -0.1606  0.2053 -0.0056
  167MOL   C11433646   5.716   5.249   0.190 -0.6474  0.9052  0.0590
  167MOL   C11533647   5.584   5.221   0.267 -0.0007  0.0463 -0.7058
  167MOL   H11633648   5.918   5.368   0.061  1.5094 -0.7620 -0.8117
  167MOL   H11733649   5.809   5.417   7.901 -2.0181 -1.5799  0.0211
  167MOL   H11833650   5.629   5.260   0.004 -0.1078 -0.5671  0.0739
  167MOL   H11933651   5.803   5.249   0.253 -0.4386  0.8493 -0.2261
  167MOL   H12033652   5.575   5.115   0.291 -3.1107  0.6718  1.2025
  167MOL   H12133653   5.501   5.233   0.197 -0.1531  0.8335 -0.3925
  167MOL   C12233654   5.574   5.315   0.397 -0.4182  1.0472  0.5894
  167MOL   C12333655   5.662   5.271   0.509 -1.0233 -0.0772  0.4836
  167MOL   C12433656   5.623   5.270   0.635 -0.1303  0.6105 -0.0830
  167MOL   C12533657   5.703   5.231   0.761  0.0311 -0.1804 -0.0979
  167MOL   H12633658   5.620   5.404   0.355 -0.3088 -0.1412 -1.9569
  167MOL   H12733659   5.471   5.335   0.426 -1.1641 -0.2299 -1.0307
  167MOL   H12833660   5.766   5.246   0.491 -1.6086 -1.5361 -0.9775
  167MOL   H12933661   5.518   5.292   0.650 -0.6919 -0.7168 -1.9483
  167MOL   H13033662   5.805   5.197   0.741  0.0554  1.0020 -2.0950
  167MOL   H13133663   5.654   5.145   0.806  0.3381  0.0826  0.7697
  167MOL   C13233664   5.700   5.348   0.861  0.4536  0.0905 -0.5580
  167MOL   C13333665   5.781   5.324   0.987 -0.3969 -0.0489  0.3543
  167MOL   C13433666   5.727   5.332   1.111 -0.4414  0.5480  0.1137
  167MOL   C13533667   5.823   5.328   1.235 -0.1586 -0.0853  0.3146
  167MOL   H13633668   5.741   5.434   0.808 -1.2811  1.4318  0.2144
  167MOL   H13733669   5.595   5.370   0.881  0.7737  0.6156  0.5778
  167MOL   H13833670   5.887   5.310   0.972 -0.5459 -0.4935 -0.3159
  167MOL   H13933671   5.623   5.350   1.130 -0.2682  0.8925  0.7327
  167MOL   H14033672   5.828   5.427   1.281  4.4533 -0.7313  1.4477
  167MOL   H14133673   5.929   5.325   1.212 -0.0043  0.5796  0.9306
  167MOL   C14233674   5.787   5.222   1.343  0.1891  0.0327  0.1733
  167MOL   C14333675   5.871   5.241   1.468 -0.1408  0.2072  0.1255
  167MOL   C14433676   5.822   5.251   1.591  0.3228 -0.2434 -0.2664
  167MOL   C14533677   5.909   5.257   1.719  0.2578  0.2768 -0.3676
  167MOL   H14633678   5.682   5.219   1.369  0.6504 -1.1944  2.0203
  167MOL   H14733679   5.810   5.125   1.298  0.0036  1.3327 -2.8196
  167MOL   H14833680   5.979   5.252   1.465 -0.3043  2.2574  1.3007
  167MOL   H14933681   5.717   5.253   1.613  0.5505  1.3448  0.7877
  167MOL   H15033682   6.016   5.257   1.703  0.5516 -1.8117  1.3249
  167MOL   H15133683   5.884   5.173   1.785 -1.3209  2.0306  1.3348
  167MOL   C15233684   5.880   5.383   1.800  0.6040  0.2567  0.6195
  167MOL   C15333685   5.981   5.420   1.911  0.1078  0.1234  0.2175
  167MOL   C15433686   5.960   5.406   2.041  0.2903  0.1355  0.5829
  167MOL   C15533687   6.070   5.438   2.141 -0.4030 -0.2726 -0.4473
  167MOL   H15633688   5.883   5.466   1.729 -2.8311  0.7866  1.0264
  167MOL   H15733689   5.779   5.389   1.839  1.1513 -0.8114  2.2565
  167MOL   H15833690   6.078   5.448   1.872  0.5446  1.4080  2.1348
  167MOL   H15933691   5.871   5.357   2.078  2.6643 -3.0059  2.3573
  167MOL   H16033692   6.043   5.528   2.198 -0.2305 -0.3011 -0.3211
  167MOL   H16133693   6.160   5.463   2.085  0.6414 -1.8051  0.5043
  167MOL   C16233694   6.090   5.311   2.218  0.1773 -0.4649 -0.3751
  167MOL   C16333695   6.158   5.331   2.356 -0.1291  0.4551 -0.0451
  167MOL   C16433696   6.270   5.268   2.391 -0.4313 -0.3699  0.0426
  167MOL   C16533697   6.341   5.299   2.522  0.6182 -0.3952  0.1077
  167MOL   H16633698   5.993   5.270   2.243  0.8890 -1.6502  0.4676
  167MOL   H16733699   6.142   5.234   2.161  1.0315 -0.9910  1.0966
  167MOL   H16833700   6.114   5.407   2.418  0.4175 -0.3605  1.3710
  167MOL   H16933701   6.327   5.199   2.330  0.2375 -0.1602  0.4175
  167MOL   H17033702   6.298   5.386   2.572  0.3845 -0.2873 -0.2784
  167MOL   H17133703   6.444   5.318   2.492  0.6305 -2.3731 -1.1853
  167MOL   C17233704   6.353   5.175   2.610 -0.4903  0.1442 -0.8305
  167MOL   C17333705   6.463   5.190   2.704  0.3957  0.2972 -0.0406
  167MOL   C17433706   6.441   5.233   2.830  0.2354  0.5350  1.0113
  167MOL   C17533707   6.550   5.238   2.939 -0.5802 -0.0786 -0.9169
  167MOL   H17633708   6.261   5.159   2.667 -0.4073  0.2418 -0.6682
  167MOL   H17733709   6.375   5.081   2.560  2.1420  0.5435 -0.4906
  167MOL   H17833710   6.564   5.170   2.671  0.1909  0.6557 -0.9123
  167MOL   H17933711   6.340   5.254   2.859  0.3424  1.9755  0.3987
  167MOL   H18033712   6.524   5.183   3.030 -1.2843  1.3637 -0.2358
  167MOL   H18133713   6.580   5.340   2.963  1.1351 -0.0735 -2.9105
  167MOL   C18233714   6.687   5.184   2.893 -0.5638  0.5300  0.2814
  167MOL   C18333715   6.792   5.206   3.002 -0.6685 -0.3743 -0.6082
  167MOL   C18433716   6.925   5.207   2.979 -0.1135  0.1046 -0.9722
  167MOL   C18533717   7.031   5.225   3.085  0.4499  0.4812  0.3967
  167MOL   H18633718   6.689   5.079   2.864  1.1133  0.0252  2.1148
  167MOL   H18733719   6.723   5.226   2.799  2.5976 -2.0409  0.2652
  167MOL   H18833720   6.759   5.208   3.105  0.3196 -0.5120 -0.2863
  167MOL   H18933721   6.952   5.199   2.874  0.5899  0.1002 -0.7933
  167MOL   H19033722   7.085   5.131   3.081 -1.0951 -0.3693 -1.1860
  167MOL   H19133723   6.983   5.216   3.183  2.0502  1.4793  1.2869
  167MOL   C19233724   7.110   5.357   3.060  0.4336 -0.5823  0.9636
  167MOL   C19333725   7.192   5.344   2.934 -0.5466 -0.6809  0.2296
  167MOL   C19433726   7.323   5.357   2.929 -0.4965  0.0395 -0.1137
  167MOL   C19533727   7.415   5.362   2.807  0.5695 -0.6796 -0.2489
  167MOL   H19633728   7.029   5.430   3.053  0.3563 -0.9115 -2.1548
  167MOL   H19733729   7.163   5.377   3.153  0.0314  1.9995  0.6879
  167MOL   H19833730   7.134   5.340   2.843 -1.4120 -0.7139  0.7806
  167MOL   H19933731   7.371   5.384   3.022  1.9215  0.7145 -1.4945
  167MOL   H20033732   7.503   5.301   2.823  0.3880 -0.6746  0.8421
  167MOL   H20133733   7.459   5.462   2.810  1.6576 -1.1973  2.8154
  167MOL   H20233734   7.369   5.331   2.714  0.0900  2.8319 -1.2846
  168MOL     C133735   3.488   0.779   6.040  0.0617  0.5296 -0.0028
  168MOL     C233736   3.515   0.665   6.143 -0.0153  0.0402  0.4233
  168MOL     C333737   3.434   0.561   6.144 -0.3513 -0.1228  0.4112
  168MOL     C433738   3.441   0.449   6.241  0.9503 -0.2441 -0.4734
  168MOL     H533739   3.396   0.770   5.982  0.4879  2.3459 -0.9978
  168MOL     H633740   3.565   0.793   5.965  0.8518 -1.5555  0.3956
  168MOL     H733741   3.600   0.674   6.210  1.0385 -0.7500 -0.7677
  168MOL     H833742   3.358   0.558   6.067  0.7984  0.0349 -0.7426
  168MOL     H933743   3.381   0.482   6.327  0.8494 -0.4371 -0.4696
  168MOL    H1033744   3.540   0.457   6.285  0.6316  0.2193  0.1766
  168MOL    H1133745   3.468   0.869   6.098 -1.6280  0.3884 -0.3255
  168MOL    C1233746   3.394   0.317   6.184  0.6869 -0.3577 -0.7634
  168MOL    C1333747   3.449   0.206   6.269  0.1799 -0.3408 -0.5522
  168MOL    C1433748   3.521   0.112   6.209 -0.2904  0.0879  0.0740
  168MOL    C1533749   3.579   7.974   6.277 -0.3727  0.1801 -0.5878
  168MOL    H1633750   3.286   0.315   6.178  0.6845  0.4585 -1.1189
  168MOL    H1733751   3.442   0.321   6.086  1.8334  0.3967 -0.1966
  168MOL    H1833752   3.432   0.215   6.375  2.1006  0.3949 -0.2971
  168MOL    H1933753   3.536   0.103   6.103  2.2050 -0.6680  0.4649
  168MOL    H2033754   3.545   7.890   6.217  0.5137 -0.5224 -0.1285
  168MOL    H2133755   3.541   7.964   6.378  1.1317 -0.8387 -0.0949
  168MOL    C2233756   3.732   0.012   6.285  0.3240 -0.0053  0.2810
  168MOL    C2333757   3.803   7.852   6.303  0.4160  0.1413  0.7536
  168MOL    C2433758   3.849   7.812   6.420 -0.3815 -0.4362  0.5506
  168MOL    C2533759   3.915   7.680   6.451  0.2693  0.4301 -0.6447
  168MOL    H2633760   3.761   0.054   6.189  0.7057  0.3631  0.5548
  168MOL    H2733761   3.771   0.085   6.356 -1.8754  0.4584  1.0195
  168MOL    H2833762   3.810   7.784   6.220 -0.0004  0.7174  0.2456
  168MOL    H2933763   3.849   7.886   6.499 -2.3282  0.2171 -0.0193
  168MOL    H3033764   4.023   7.690   6.450  0.0508  3.4281  0.7170
  168MOL    H3133765   3.890   7.613   6.369  1.6403  0.6715 -1.2735
  168MOL    C3233766   3.857   7.604   6.575  0.0169  0.4335 -0.1548
  168MOL    C3333767   3.878   7.690   6.700  0.2486  0.3265  0.3733
  168MOL    C3433768   3.783   7.771   6.753  0.1354 -0.4717 -0.5740
  168MOL    C3533769   3.806   7.840   6.885 -0.4969  0.3172  0.4153
  168MOL    H3633770   3.750   7.586   6.561  0.2337 -0.7981 -0.2642
  168MOL    H3733771   3.912   7.510   6.579  1.6769  1.3164 -1.3555
  168MOL    H3833772   3.978   7.688   6.742  0.4725 -0.4261 -0.1855
  168MOL    H3933773   3.682   7.781   6.715  0.3623  0.6449 -0.9007
  168MOL    H4033774   3.815   7.946   6.861  3.7732 -0.4575 -1.9363
  168MOL    H4133775   3.893   7.806   6.941 -1.9312 -1.0449  1.8820
  168MOL    C4233776   3.684   7.806   6.978 -0.1543 -0.2117  1.0041
  168MOL    C4333777   3.710   7.812   7.126  0.0376  0.8425 -0.3550
  168MOL    C4433778   3.685   7.712   7.214 -0.4292 -0.2792  0.1261
  168MOL    C4533779   3.698   7.723   7.368  0.3103 -0.4890  0.5911
  168MOL    H4633780   3.608   7.883   6.964 -0.6697 -1.2389 -2.3534
  168MOL    H4733781   3.630   7.715   6.952 -0.5746  0.1595  0.5462
  168MOL    H4833782   3.739   7.911   7.156  0.4394  0.7541 -0.4502
  168MOL    H4933783   3.658   7.612   7.183  0.5898 -1.0305  1.5956
  168MOL    H5033784   3.595   7.732   7.404  0.8537  0.1321  2.0304
  168MOL    H5133785   3.739   7.821   7.396 -0.1995 -0.4009  1.0435
  168MOL    C5233786   3.783   7.616   7.438 -0.1752 -0.2433 -0.4652
  168MOL    C5333787   3.769   7.591   7.586  0.0410 -0.2639 -0.2923
  168MOL    C5433788   3.696   7.654   7.682 -0.3217 -0.0541 -0.1764
  168MOL    C5533789   3.698   7.614   7.828 -0.0492 -0.1919  0.2943
  168MOL    H5633790   3.780   7.520   7.388 -0.9437 -0.4820  0.0471
  168MOL    H5733791   3.891   7.634   7.433  0.1131 -1.2859  1.5492
  168MOL    H5833792   3.821   7.505   7.625  1.8856  0.9472 -0.0457
  168MOL    H5933793   3.631   7.737   7.658 -0.1956  0.1150  0.0688
  168MOL    H6033794   3.668   7.700   7.888  0.1380  0.7049 -0.8582
  168MOL    H6133795   3.802   7.586   7.844 -0.8509 -1.5210  3.5318
  168MOL    C6233796   3.610   7.486   7.844 -0.6700  0.5197  0.0642
  168MOL    C6333797   3.594   7.430   0.004 -0.0188  0.6526  0.2930
  168MOL    C6433798   3.490   7.433   0.079 -0.3858 -0.3221  0.0017
  168MOL    C6533799   3.473   7.368   0.216 -0.0227  0.5957  0.6072
  168MOL    H6633800   3.511   7.514   7.808 -0.9981  1.2140  1.4471
  168MOL    H6733801   3.649   7.410   7.777 -1.1960 -0.5529  0.9650
  168MOL    H6833802   3.683   7.381   0.039  0.5427  0.7003 -1.0173
  168MOL    H6933803   3.409   7.499   0.048 -0.3639 -0.7583 -0.9999
  168MOL    H7033804   3.520   7.426   0.296 -0.8808  1.7529  0.2800
  168MOL    H7133805   3.524   7.272   0.204 -2.2133 -0.2969 -2.3279
  168MOL    C7233806   3.321   7.340   0.242 -0.1355  0.1042  0.4068
  168MOL    C7333807   3.298   7.247   0.362  0.2901  0.0061 -0.4724
  168MOL    C7433808   3.278   7.114   0.363 -0.8069  0.3852  0.0417
  168MOL    C7533809   3.276   7.041   0.495 -0.2553 -0.8598  0.2707
  168MOL    H7633810   3.281   7.439   0.264 -0.0992  0.0944  0.5138
  168MOL    H7733811   3.267   7.294   0.159 -2.2084  1.0771  1.1772
  168MOL    H7833812   3.317   7.288   0.460 -0.3209 -2.3163  0.6430
  168MOL    H7933813   3.263   7.068   0.267 -2.4531  0.2383  0.3444
  168MOL    H8033814   3.213   7.103   0.558 -1.4742 -2.7485  0.9525
  168MOL    H8133815   3.375   7.043   0.538 -0.1106  1.2912 -0.1045
  168MOL    C8233816   3.226   6.892   0.484  0.5545  0.0703  0.6658
  168MOL    C8333817   3.098   6.874   0.402 -0.5925  0.3312  0.2043
  168MOL    C8433818   2.980   6.869   0.463  0.1622  0.2305 -0.1554
  168MOL    C8533819   2.850   6.852   0.391 -0.0583 -1.2230  0.6743
  168MOL    H8633820   3.309   6.842   0.435  0.6386  1.3273 -0.4939
  168MOL    H8733821   3.221   6.851   0.585  1.4942  1.3404  1.2379
  168MOL    H8833822   3.109   6.855   0.297  0.1935 -0.0084  0.3447
  168MOL    H8933823   2.957   6.876   0.569  0.5580  2.3339 -0.1944
  168MOL    H9033824   2.862   6.795   0.298 -3.8458 -2.4575  0.8327
  168MOL    H9133825   2.805   6.941   0.347 -0.1685 -1.6358 -0.0619
  168MOL    C9233826   2.739   6.788   0.481  0.5372  0.5571  0.1336
  168MOL    C9333827   2.610   6.751   0.406 -0.3183 -0.3246  0.0274
  168MOL    C9433828   2.495   6.736   0.473 -0.6474 -0.4211  0.1101
  168MOL    C9533829   2.354   6.703   0.424  0.2026 -0.0160 -0.4019
  168MOL    H9633830   2.781   6.701   0.532  1.8089  0.5757 -0.8761
  168MOL    H9733831   2.714   6.859   0.560  1.8288 -0.0029  1.0717
  168MOL    H9833832   2.612   6.734   0.300 -0.4015  2.2689 -0.4108
  168MOL    H9933833   2.511   6.749   0.579  0.4870  1.1985 -0.2499
  168MOL   H10033834   2.286   6.776   0.469 -0.7774  0.3082 -2.3597
  168MOL   H10133835   2.314   6.607   0.458  0.1829  0.1217 -0.0391
  168MOL   C10233836   2.337   6.714   0.274 -0.9725  0.6989 -0.6012
  168MOL   C10333837   2.202   6.657   0.228 -0.1890 -0.1744  0.3744
  168MOL   C10433838   2.094   6.729   0.196  0.2791 -0.1806 -0.3941
  168MOL   C10533839   1.947   6.682   0.182 -0.8993 -0.1094 -0.0933
  168MOL   H10633840   2.359   6.813   0.234  0.3726  1.3196  1.5799
  168MOL   H10733841   2.422   6.656   0.236 -0.6746  1.2153 -0.7393
  168MOL   H10833842   2.197   6.552   0.254  0.7521  0.6091  4.0083
  168MOL   H10933843   2.113   6.835   0.193  0.1047 -0.1326  0.1398
  168MOL   H11033844   1.910   6.658   0.082  1.0241  2.0251 -1.3558
  168MOL   H11133845   1.895   6.776   0.201 -1.0321  0.4263 -2.8408
  168MOL   C11233846   1.904   6.572   0.284 -0.0999  0.2403  0.4621
  168MOL   C11333847   1.764   6.522   0.264  0.1046  0.0121  0.5626
  168MOL   C11433848   1.651   6.570   0.326  0.1809  0.1918 -0.2071
  168MOL   C11533849   1.512   6.518   0.285  0.0496  0.4474 -0.1000
  168MOL   H11633850   1.972   6.487   0.281 -0.7685 -0.3548  1.9095
  168MOL   H11733851   1.921   6.611   0.384  0.4412  0.9670  0.0963
  168MOL   H11833852   1.753   6.439   0.197 -2.0200 -0.3032  1.2506
  168MOL   H11933853   1.664   6.657   0.389 -0.8279  0.0301  0.2313
  168MOL   H12033854   1.505   6.441   0.207 -0.7954 -0.5665  0.9523
  168MOL   H12133855   1.451   6.602   0.251  0.2516  1.3836  1.8269
  168MOL   C12233856   1.453   6.455   0.412  0.0446 -0.4068  0.1935
  168MOL   C12333857   1.337   6.356   0.390 -0.4120 -0.1210  0.3387
  168MOL   C12433858   1.205   6.384   0.411  0.2123 -0.2324 -0.0766
  168MOL   C12533859   1.085   6.291   0.388  0.1408 -0.8400  0.3752
  168MOL   H12633860   1.535   6.402   0.460 -0.2131 -0.6641  0.3491
  168MOL   H12733861   1.414   6.529   0.482  2.6565  1.9851 -0.7932
  168MOL   H12833862   1.373   6.266   0.342  2.6439  2.2547 -2.0849
  168MOL   H12933863   1.185   6.487   0.435  2.9063  0.0787  0.9149
  168MOL   H13033864   1.052   6.254   0.485  0.8199 -0.6505  0.6812
  168MOL   H13133865   1.133   6.218   0.322  2.0480 -0.5207  1.3658
  168MOL   C13233866   0.966   6.367   0.315  0.6244  0.2263 -0.0543
  168MOL   C13333867   0.835   6.289   0.308  0.3492  0.1112  1.1335
  168MOL   C13433868   0.717   6.324   0.367 -0.2506  0.8069 -0.2095
  168MOL   C13533869   0.589   6.242   0.353  1.0353  0.6835 -0.1607
  168MOL   H13633870   0.948   6.468   0.353  1.4268 -0.2013  1.4780
  168MOL   H13733871   0.999   6.390   0.213  0.7834  1.7803  0.3345
  168MOL   H13833872   0.841   6.196   0.255  2.1483 -1.3239  3.7386
  168MOL   H13933873   0.712   6.413   0.428 -0.7700  2.7622 -2.9777
  168MOL   H14033874   0.538   6.221   0.446  2.3149  0.5992  0.5305
  168MOL   H14133875   0.613   6.141   0.319  1.4129  0.5810  0.4146
  168MOL   C14233876   0.493   6.317   0.271 -0.4569  0.2641  0.1192
  168MOL   C14333877   0.518   6.330   0.126  0.0194 -0.5410  0.8122
  168MOL   C14433878   0.563   6.450   0.078  0.0993  0.0934 -0.2898
  168MOL   C14533879   0.576   6.485   7.912  0.2272 -0.3309  0.1415
  168MOL   H14633880   0.397   6.266   0.281 -0.4779  0.0837 -0.9030
  168MOL   H14733881   0.480   6.422   0.298  0.3630  0.2061  0.7490
  168MOL   H14833882   0.471   6.261   0.058  1.3996  0.4174 -1.1487
  168MOL   H14933883   0.606   6.521   0.148  0.5040  0.6123 -1.0618
  168MOL   H15033884   0.532   6.405   7.852  0.4831  0.0497 -0.5647
  168MOL   H15133885   0.683   6.494   7.894  0.3595  0.8953  1.4750
  168MOL   C15233886   0.495   6.612   7.876  0.6840  0.1438 -0.1479
  168MOL   C15333887   0.544   6.744   7.932 -0.5462  0.1752 -0.0571
  168MOL   C15433888   0.478   6.828   0.039 -0.0465 -0.7543  0.1344
  168MOL   C15533889   0.531   6.959   0.070 -0.5872 -0.2725  0.3293
  168MOL   H15633890   0.493   6.634   7.770 -0.3570  0.7376 -0.0059
  168MOL   H15733891   0.394   6.603   7.915  0.5306 -0.1965 -0.6177
  168MOL   H15833892   0.634   6.782   7.885  1.1623 -1.7156  1.5878
  168MOL   H15933893   0.381   6.799   0.076  1.2790  0.6769  5.0799
  168MOL   H16033894   0.626   6.968   0.017 -0.1981 -3.0043  0.4934
  168MOL   H16133895   0.548   6.967   0.177  1.9374 -1.3133  0.0453
  168MOL   C16233896   0.439   7.076   0.033 -0.5972  0.9832 -0.3675
  168MOL   C16333897   0.502   7.217   0.037  0.3459 -0.5384  0.6864
  168MOL   C16433898   0.623   7.261   0.075  0.3917 -0.4112 -1.2105
  168MOL   C16533899   0.661   7.410   0.076  0.6489 -0.3665  0.5560
  168MOL   H16633900   0.424   7.059   7.903 -0.2802 -2.3673  0.0701
  168MOL   H16733901   0.339   7.071   0.077  1.0302  1.1927  3.5917
  168MOL   H16833902   0.420   7.284   0.015  1.9284  1.5833  1.0473
  168MOL   H16933903   0.702   7.195   0.107 -0.4478 -1.3657 -1.0974
  168MOL   H17033904   0.568   7.458   0.045  0.3590 -1.4699 -0.3113
  168MOL   H17133905   0.737   7.441   0.005 -0.4403  0.4533 -0.2610
  168MOL   C17233906   0.704   7.461   0.216 -0.0290  0.0379 -0.1134
  168MOL   C17333907   0.713   7.613   0.227  0.5055  1.1946 -0.0290
  168MOL   C17433908   0.645   7.700   0.301 -0.5915 -0.1609 -0.5299
  168MOL   C17533909   0.668   7.854   0.294 -0.0847  0.0838 -0.3516
  168MOL   H17633910   0.624   7.424   0.280  1.2242  1.0002  2.0490
  168MOL   H17733911   0.799   7.420   0.250  0.0626  0.8029  0.5776
  168MOL   H17833912   0.805   7.648   0.185  2.1871 -0.9993  1.6917
  168MOL   H17933913   0.566   7.665   0.365  0.4821 -0.3204  0.7152
  168MOL   H18033914   0.740   7.878   0.216  0.5262  1.1532  0.5364
  168MOL   H18133915   0.711   7.884   0.389  2.0063  0.2082 -1.2998
  168MOL   C18233916   0.534   7.920   0.249  0.0338 -0.4018 -0.1497
  168MOL   C18333917   0.539   0.097   0.234  0.3106 -0.0361 -0.3957
  168MOL   C18433918   0.439   0.171   0.174 -0.5097 -0.7418  0.2221
  168MOL   C18533919   0.434   0.321   0.144 -0.0845  0.0201  0.4082
  168MOL   H18633920   0.507   7.884   0.150 -0.3812  3.0303 -1.3469
  168MOL   H18733921   0.445   7.910   0.312 -0.0230  2.4605  0.2735
  168MOL   H18833922   0.632   0.142   0.268  0.6345 -2.1501  1.6819
  168MOL   H18933923   0.358   0.110   0.137 -0.0289 -0.4586 -1.3342
  168MOL   H19033924   0.400   0.323   0.041 -0.3856  1.2116  0.5172
  168MOL   H19133925   0.535   0.363   0.150  0.5155 -1.0401 -1.7492
  168MOL   C19233926   0.329   0.388   0.230 -0.5376 -0.0737 -0.2738
  168MOL   C19333927   0.367   0.419   0.376  0.4314  0.6978  0.3431
  168MOL   C19433928   0.484   0.426   0.437 -0.7214 -0.1913 -0.0714
  168MOL   C19533929   0.503   0.460   0.589 -0.1404  0.0673  0.8350
  168MOL   H19633930   0.299   0.479   0.178 -0.1668 -1.1365 -2.3992
  168MOL   H19733931   0.234   0.335   0.227 -1.1228  0.9070  0.7161
  168MOL   H19833932   0.292   0.446   0.449 -0.5555  3.1374 -1.4829
  168MOL   H19933933   0.574   0.397   0.384  0.8610  1.4158  1.6796
  168MOL   H20033934   0.568   0.383   0.630  0.5525 -0.1602 -0.6698
  168MOL   H20133935   0.405   0.456   0.637  0.1441  0.8397  1.4951
  168MOL   H20233936   0.556   0.555   0.602 -1.2471  0.7752  0.3016
  169MOL     C133937   1.186   7.022   7.399 -0.3870 -0.0959 -0.1210
  169MOL     C233938   1.275   6.948   7.490 -0.0827  0.3121  1.2049
  169MOL     C333939   1.294   6.990   7.615  0.2695 -0.3026  0.1723
  169MOL     C433940   1.382   6.919   7.709 -0.3790 -0.5890  0.3869
  169MOL     H533941   1.137   7.113   7.435 -1.9403 -0.6681 -0.7577
  169MOL     H633942   1.123   6.958   7.338 -2.3743  2.8065 -1.2156
  169MOL     H733943   1.328   6.858   7.463  0.3515 -0.1767  3.5303
  169MOL     H833944   1.239   7.080   7.639 -1.2105 -0.3882 -2.6900
  169MOL     H933945   1.388   6.815   7.677  1.8342 -0.4527  0.2825
  169MOL    H1033946   1.331   6.913   7.805 -0.3018 -3.4272  0.2938
  169MOL    H1133947   1.250   7.060   7.319 -1.0392 -0.8385 -1.0062
  169MOL    C1233948   1.514   6.994   7.721 -1.3458 -0.7495  0.1302
  169MOL    C1333949   1.511   7.144   7.739  0.2827 -0.6058 -0.6440
  169MOL    C1433950   1.506   7.198   7.858 -0.8939 -0.4858  0.0542
  169MOL    C1533951   1.488   7.347   7.879  0.2151  0.3492  0.2956
  169MOL    H1633952   1.578   6.938   7.790 -0.7018 -0.5232 -0.2784
  169MOL    H1733953   1.573   6.967   7.633  3.1335 -0.0073  2.7692
  169MOL    H1833954   1.509   7.198   7.646 -0.7192  0.4925 -0.0058
  169MOL    H1933955   1.508   7.132   7.944  1.3367  0.4710  0.7715
  169MOL    H2033956   1.407   7.381   7.942  0.8862  0.1798  1.2584
  169MOL    H2133957   1.479   7.394   7.781  1.7965  1.1205  0.5048
  169MOL    C2233958   1.615   7.390   7.943  0.0122  0.2114  0.8450
  169MOL    C2333959   1.636   7.539   7.943 -0.1607 -0.1075 -0.5480
  169MOL    C2433960   1.726   7.596   0.044 -0.2902 -0.4124 -0.4056
  169MOL    C2533961   1.755   7.748   0.049  0.4787 -0.0110  0.4658
  169MOL    H2633962   1.614   7.355   0.069  0.9354 -1.0078  0.4461
  169MOL    H2733963   1.700   7.347   7.890 -0.9272 -0.2346 -0.3329
  169MOL    H2833964   1.576   7.599   7.877  1.9477  0.0901 -2.3602
  169MOL    H2933965   1.792   7.538   0.107 -0.5014  1.5146  1.6308
  169MOL    H3033966   1.738   7.787   0.150 -1.0286  1.7323 -0.4256
  169MOL    H3133967   1.683   7.796   7.960  1.3770  1.4928  0.5330
  169MOL    C3233968   1.904   7.780   0.007  0.0376 -0.2175  0.1744
  169MOL    C3333969   1.932   7.929   0.008 -0.2323 -0.6012 -0.5476
  169MOL    C3433970   1.960   0.019   0.124 -0.4595  0.2815  0.1669
  169MOL    C3533971   1.974   0.169   0.145  0.9559 -0.5309  0.6772
  169MOL    H3633972   1.988   7.732   0.057 -0.9325  0.7838  2.8452
  169MOL    H3733973   1.913   7.745   7.881  1.7333  1.3518 -0.2399
  169MOL    H3833974   1.914   0.003   7.892 -1.0946 -0.9097 -0.5491
  169MOL    H3933975   1.969   7.943   0.218 -3.1998 -2.2382 -0.8833
  169MOL    H4033976   1.881   0.202   0.193  0.4650  0.4342 -0.8678
  169MOL    H4133977   1.984   0.229   0.055  1.0957  0.1534  1.1464
  169MOL    C4233978   2.076   0.206   0.251  0.3546 -0.2700 -0.1229
  169MOL    C4333979   2.074   0.354   0.284 -0.0113  0.4705  0.7352
  169MOL    C4433980   2.178   0.433   0.267 -0.0784 -0.2479  0.1744
  169MOL    C4533981   2.172   0.581   0.303  0.2038 -0.1944  0.3176
  169MOL    H4633982   2.042   0.151   0.339  2.1641 -0.1373  0.6795
  169MOL    H4733983   2.173   0.175   0.212 -0.0717 -0.4483 -1.0481
  169MOL    H4833984   1.986   0.383   0.339 -0.2132 -1.7748  1.6341
  169MOL    H4933985   2.271   0.403   0.221  0.5659  0.9375  0.6580
  169MOL    H5033986   2.100   0.638   0.243  1.3837  0.5762 -0.3845
  169MOL    H5133987   2.263   0.633   0.276 -0.9786  1.0801 -1.3218
  169MOL    C5233988   2.146   0.602   0.451  0.6739  0.6293  0.0173
  169MOL    C5333989   2.146   0.749   0.493  0.0308  0.8162 -0.5134
  169MOL    C5433990   2.197   0.791   0.605 -0.6568 -0.0321 -0.8625
  169MOL    C5533991   2.186   0.932   0.656  0.7804 -0.0112 -0.0369
  169MOL    H5633992   2.057   0.544   0.478 -0.3936  1.5121 -1.5296
  169MOL    H5733993   2.225   0.553   0.508 -0.1394 -1.5712 -0.6734
  169MOL    H5833994   2.094   0.819   0.429 -1.8489  0.2396  0.3582
  169MOL    H5933995   2.246   0.720   0.670 -0.6363 -0.4425 -1.3145
  169MOL    H6033996   2.116   0.984   0.591  0.0376  0.8178  1.4271
  169MOL    H6133997   2.276   0.994   0.657 -0.4107  1.7281  0.7851
  169MOL    C6233998   2.111   0.948   0.791 -0.3548 -0.1017  0.2719
  169MOL    C6333999   2.057   1.084   0.828  0.2692 -0.1298 -0.2878
  169MOL    C6434000   2.085   1.152   0.941  0.0113  0.1152 -0.1213
  169MOL    C6534001   2.059   1.296   0.955  0.1166  0.5370  0.0517
  169MOL    H6634002   2.025   0.881   0.785  0.2344 -0.8972  0.5032
  169MOL    H6734003   2.169   0.915   0.877 -1.0546 -1.6487  0.1713
  169MOL    H6834004   1.988   1.134   0.761  1.6699  1.0721 -0.8532
  169MOL    H6934005   2.155   1.110   1.011 -0.7587 -0.3448  0.3756
  169MOL    H7034006   1.999   1.318   0.867  0.3001 -0.5001 -0.3479
  169MOL    H7134007   2.159   1.339   0.960 -0.2041  1.2990 -0.0647
  169MOL    C7234008   1.978   1.319   1.080  0.1168 -0.6646 -0.6180
  169MOL    C7334009   1.896   1.451   1.078 -1.0290  1.0838  0.4803
  169MOL    C7434010   1.890   1.535   1.185 -0.2966 -0.4433 -0.4081
  169MOL    C7534011   1.799   1.657   1.199 -0.6124 -0.5148  0.1893
  169MOL    H7634012   1.896   1.248   1.090  0.0324 -0.5436 -0.4261
  169MOL    H7734013   2.037   1.287   1.166 -0.7906 -1.3264 -0.2317
  169MOL    H7834014   1.843   1.477   0.987 -0.2900  0.8637 -0.0249
  169MOL    H7934015   1.932   1.494   1.276 -0.0868  0.7428  0.0473
  169MOL    H8034016   1.771   1.697   1.102  0.7991 -0.3480 -0.1577
  169MOL    H8134017   1.849   1.732   1.260 -1.7131 -0.0993  0.6026
  169MOL    C8234018   1.669   1.621   1.277 -0.0676 -0.1021 -0.7760
  169MOL    C8334019   1.576   1.738   1.296  0.6317 -0.5146 -0.0465
  169MOL    C8434020   1.523   1.778   1.418 -0.1801  0.3120 -0.4427
  169MOL    C8534021   1.438   1.907   1.439 -0.9298 -0.2292 -0.7834
  169MOL    H8634022   1.606   1.559   1.213 -2.0291 -0.4671  1.4406
  169MOL    H8734023   1.699   1.568   1.367 -1.2518 -2.6784 -1.8627
  169MOL    H8834024   1.550   1.794   1.208  1.1592 -2.0970 -1.2236
  169MOL    H8934025   1.539   1.713   1.503  1.2853  2.1577  0.7268
  169MOL    H9034026   1.333   1.878   1.434 -1.3454  1.5390 -2.7900
  169MOL    H9134027   1.453   1.970   1.352  0.5776  0.1050 -0.2946
  169MOL    C9234028   1.476   1.962   1.576 -0.1480 -0.3057 -0.5766
  169MOL    C9334029   1.415   2.097   1.599 -0.3903 -0.6928  0.0962
  169MOL    C9434030   1.356   2.139   1.713 -0.3268  0.2081  0.0572
  169MOL    C9534031   1.294   2.272   1.730 -0.0126 -0.0915 -0.2712
  169MOL    H9634032   1.463   1.888   1.654  2.0560  0.7547  0.8395
  169MOL    H9734033   1.584   1.974   1.563  0.5417 -1.9350  3.0630
  169MOL    H9834034   1.415   2.164   1.514  1.5897 -0.1799  0.4743
  169MOL    H9934035   1.353   2.073   1.798  0.8657  0.9069  0.6551
  169MOL   H10034036   1.209   2.254   1.795  0.4505  1.1702  0.7007
  169MOL   H10134037   1.257   2.319   1.639  1.9294  1.8276 -0.1347
  169MOL   C10234038   1.396   2.367   1.801  0.6339  0.5790 -0.3142
  169MOL   C10334039   1.325   2.485   1.869 -0.0005 -0.0623 -0.2019
  169MOL   C10434040   1.257   2.495   1.982  0.3173  0.3720 -0.1333
  169MOL   C10534041   1.195   2.624   2.027 -0.0270 -0.6343  0.2333
  169MOL   H10634042   1.455   2.307   1.871  1.0649  3.2006  1.6713
  169MOL   H10734043   1.461   2.407   1.723 -1.3485  1.2819 -1.6464
  169MOL   H10834044   1.329   2.577   1.813  1.6166  0.0306  0.0588
  169MOL   H10934045   1.240   2.409   2.045 -0.7813  0.3818 -0.4065
  169MOL   H11034046   1.208   2.701   1.950 -0.7285  0.1344  0.8749
  169MOL   H11134047   1.261   2.663   2.104 -0.0987  1.5800 -0.7803
  169MOL   C11234048   1.045   2.631   2.053  0.2987  0.1857  0.3930
  169MOL   C11334049   1.005   2.770   2.080  0.0310  0.2041 -0.2405
  169MOL   C11434050   0.904   2.836   2.017  0.2952 -1.2341  0.7214
  169MOL   C11534051   0.860   2.976   2.054 -0.3598 -0.2992  0.5984
  169MOL   H11634052   0.991   2.596   1.965  0.4775  1.7352 -0.3430
  169MOL   H11734053   1.029   2.565   2.138 -0.4438  0.4563  0.4626
  169MOL   H11834054   1.045   2.811   2.172 -0.6925 -0.9694  0.6214
  169MOL   H11934055   0.846   2.790   1.938  0.1461 -0.3798  0.3333
  169MOL   H12034056   0.914   3.048   1.993 -0.8995  0.8719  1.4968
  169MOL   H12134057   0.863   2.995   2.161 -2.7048 -3.3146  1.2873
  169MOL   C12234058   0.710   2.993   2.028 -0.2236 -0.6247 -0.2189
  169MOL   C12334059   0.652   3.127   2.037  0.0144  0.0226 -0.2972
  169MOL   C12434060   0.613   3.197   1.927 -0.6032  0.5360  0.3818
  169MOL   C12534061   0.550   3.332   1.929 -0.2878 -0.5810 -0.3992
  169MOL   H12634062   0.689   2.962   1.926 -0.6831  0.4883 -0.4816
  169MOL   H12734063   0.659   2.928   2.099  1.3221 -1.0278  0.5478
  169MOL   H12834064   0.637   3.175   2.133  1.5418  0.9702 -0.5125
  169MOL   H12934065   0.632   3.153   1.830 -0.0934  0.3112  0.5857
  169MOL   H13034066   0.561   3.376   2.028 -3.4642  0.8462 -0.6325
  169MOL   H13134067   0.444   3.310   1.917 -0.5351  1.2509 -1.9226
  169MOL   C13234068   0.611   3.422   1.821  0.0385 -0.3950 -0.4859
  169MOL   C13334069   0.501   3.469   1.728  1.2219 -0.0236  0.0638
  169MOL   C13434070   0.481   3.436   1.600 -0.6151  0.0514 -0.4792
  169MOL   C13534071   0.389   3.509   1.505  0.1188 -0.3029  0.1026
  169MOL   H13634072   0.657   3.504   1.876 -0.0076 -1.6332  1.4454
  169MOL   H13734073   0.678   3.371   1.752  0.7644 -0.4909  0.2810
  169MOL   H13834074   0.425   3.542   1.754  2.2978  0.7972  0.9393
  169MOL   H13934075   0.547   3.364   1.554  0.1753  1.7937 -2.1565
  169MOL   H14034076   0.443   3.578   1.439 -0.3055 -0.5513 -0.5089
  169MOL   H14134077   0.311   3.568   1.555  2.2954  1.5591  1.4075
  169MOL   C14234078   0.309   3.411   1.414 -0.5094 -0.6375  0.6221
  169MOL   C14334079   0.389   3.331   1.317 -0.2114 -0.0020  0.5197
  169MOL   C14434080   0.348   3.208   1.282  0.2427  0.4883  0.9225
  169MOL   C14534081   0.410   3.117   1.183  0.1885 -0.2017  0.4326
  169MOL   H14634082   0.258   3.341   1.480  1.9872 -2.0012  1.1586
  169MOL   H14734083   0.238   3.466   1.351  0.5113  2.0131  1.6969
  169MOL   H14834084   0.470   3.374   1.261  0.0049  1.6747  2.0765
  169MOL   H14934085   0.254   3.177   1.324 -0.3580 -0.6982 -1.2473
  169MOL   H15034086   0.454   3.032   1.237 -2.2143 -1.3031  0.7216
  169MOL   H15134087   0.491   3.161   1.126 -1.7301 -0.2904 -2.4375
  169MOL   C15234088   0.313   3.069   1.070  0.5104  0.0832 -0.4105
  169MOL   C15334089   0.377   2.962   0.976  0.0926 -0.5221  0.0638
  169MOL   C15434090   0.316   2.867   0.909  0.2171  0.1982  0.0439
  169MOL   C15534091   0.390   2.765   0.826  0.8643  0.3934  0.0463
  169MOL   H15634092   0.223   3.029   1.118  1.4288 -0.3794  0.9553
  169MOL   H15734093   0.292   3.164   1.021 -0.8775  0.5115  0.9641
  169MOL   H15834094   0.483   2.963   0.955  0.2453 -2.1269  0.7170
  169MOL   H15934095   0.210   2.854   0.926  0.4722 -2.5759 -0.3004
  169MOL   H16034096   0.498   2.780   0.835  0.9284 -0.1196  0.1878
  169MOL   H16134097   0.373   2.778   0.719  1.2104  2.5109  0.2236
  169MOL   C16234098   0.355   2.615   0.866  0.2362 -0.6561  0.1393
  169MOL   C16334099   0.454   2.520   0.799 -0.2964 -0.0386  0.4923
  169MOL   C16434100   0.417   2.431   0.708 -0.3724 -0.4287 -0.1075
  169MOL   C16534101   0.514   2.353   0.624 -0.2190  0.7660  0.3024
  169MOL   H16634102   0.380   2.606   0.971  2.7259 -0.8973 -0.4542
  169MOL   H16734103   0.255   2.582   0.838  0.9711 -0.9686 -2.2328
  169MOL   H16834104   0.558   2.549   0.810  0.6991 -2.7149 -1.3138
  169MOL   H16934105   0.311   2.414   0.707 -0.4587  0.0397  0.3799
  169MOL   H17034106   0.562   2.263   0.662  0.5951  1.4178  0.8352
  169MOL   H17134107   0.606   2.410   0.608  0.6990 -0.9498 -0.6653
  169MOL   C17234108   0.451   2.336   0.480 -0.7674  0.2137 -0.1990
  169MOL   C17334109   0.527   2.242   0.392 -0.1619  0.3286  0.4251
  169MOL   C17434110   0.485   2.198   0.270  1.1275  0.1343  0.6676
  169MOL   C17534111   0.572   2.112   0.174 -0.1544 -0.1524 -0.7690
  169MOL   H17634112   0.347   2.312   0.500 -0.8971  0.8224 -0.1128
  169MOL   H17734113   0.466   2.435   0.437  2.9157 -0.1763 -0.0098
  169MOL   H17834114   0.626   2.218   0.427 -0.0393 -2.4722 -1.6888
  169MOL   H17934115   0.384   2.220   0.240  1.6983  1.6511 -0.1765
  169MOL   H18034116   0.595   2.173   0.088 -0.9585 -0.4836 -1.2230
  169MOL   H18134117   0.509   2.031   0.138  1.0021 -0.8372 -1.2831
  169MOL   C18234118   0.696   2.053   0.247  0.1434 -0.0027 -0.7939
  169MOL   C18334119   0.752   1.929   0.169  0.3623 -0.8690  0.8386
  169MOL   C18434120   0.726   1.801   0.198 -0.0902 -0.3527 -0.2924
  169MOL   C18534121   0.781   1.681   0.123  0.6934 -0.0791  0.6232
  169MOL   H18634122   0.777   2.121   0.272  0.2275  0.2608 -1.7824
  169MOL   H18734123   0.665   2.005   0.340  0.0430  1.6773  0.0592
  169MOL   H18834124   0.809   1.955   0.081 -0.7396 -0.9994  0.0661
  169MOL   H18934125   0.687   1.778   0.295  0.1929 -3.5083 -0.8787
  169MOL   H19034126   0.739   1.708   0.026 -0.9858 -0.1692  1.2959
  169MOL   H19134127   0.744   1.582   0.151 -0.4515  0.2291  0.2393
  169MOL   C19234128   0.939   1.669   0.115  0.3726 -0.0510 -0.0924
  169MOL   C19334129   0.992   1.534   0.084  0.4004 -0.0840  0.3452
  169MOL   C19434130   1.074   1.521   7.955 -0.2719  0.0768  0.2068
  169MOL   C19534131   1.143   1.392   7.918 -0.0015  0.3388 -0.3715
  169MOL   H19634132   0.963   1.731   0.028 -0.3211 -1.7876 -1.5417
  169MOL   H19734133   0.986   1.712   0.204 -1.4998  1.5169  0.1827
  169MOL   H19834134   0.973   1.452   0.150  2.3156 -1.3062 -0.5718
  169MOL   H19934135   1.101   1.611   7.901 -0.3249 -0.0134  0.0290
  169MOL   H20034136   1.083   1.309   7.958 -0.2674  1.3264  1.3166
  169MOL   H20134137   1.244   1.388   7.959 -0.1332  1.7845  0.0958
  169MOL   H20234138   1.148   1.385   7.809  1.9027 -0.0625 -0.2694
  170MOL     C134139   3.725   7.647   3.627 -0.2505 -0.3521 -0.2071
  170MOL     C234140   3.790   7.571   3.746  0.4053 -0.3673 -0.7728
  170MOL     C334141   3.913   7.586   3.788 -0.1973  0.0665 -0.4237
  170MOL     C434142   3.961   7.498   3.899  0.1066 -0.3289 -0.7826
  170MOL     H534143   3.751   7.751   3.647  2.1435 -1.4195  2.7466
  170MOL     H634144   3.617   7.642   3.645 -0.0972 -1.0362  0.6014
  170MOL     H734145   3.723   7.511   3.807 -0.0754  1.0981  0.1837
  170MOL     H834146   3.997   7.643   3.749 -0.0196 -0.9043 -1.4726
  170MOL     H934147   4.049   7.447   3.858  1.1196  0.4615  0.3759
  170MOL    H1034148   3.884   7.422   3.908 -1.4802  1.3765  0.1626
  170MOL    H1134149   3.763   7.609   3.532  0.9326 -0.4744  0.3041
  170MOL    C1234150   3.981   7.578   4.037 -0.3232  0.0097  0.1713
  170MOL    C1334151   3.845   7.620   4.091  0.1041 -0.7028  0.1047
  170MOL    C1434152   3.819   7.744   4.143  0.2533  0.0576  0.0495
  170MOL    C1534153   3.692   7.765   4.217  0.4808  0.0490 -0.4172
  170MOL    H1634154   4.022   7.511   4.112  0.1236  0.2638  0.1519
  170MOL    H1734155   4.054   7.655   4.015 -2.8817  1.7633 -2.5906
  170MOL    H1834156   3.768   7.547   4.113 -1.3814  0.6146 -0.6390
  170MOL    H1934157   3.888   7.827   4.152 -0.5248  0.6497  0.5833
  170MOL    H2034158   3.610   7.730   4.154  0.3340 -1.1131  0.4073
  170MOL    H2134159   3.672   7.871   4.234 -3.0592 -0.3252 -1.8095
  170MOL    C2234160   3.668   7.697   4.352 -1.2539  0.5436  0.1054
  170MOL    C2334161   3.523   7.697   4.394  0.4998  0.0666  0.6204
  170MOL    C2434162   3.435   7.621   4.337 -0.1759 -0.2972  0.0372
  170MOL    C2534163   3.287   7.616   4.377 -0.8451 -0.4097  0.3211
  170MOL    H2634164   3.691   7.591   4.348 -1.0032  0.4331  3.2097
  170MOL    H2734165   3.720   7.745   4.435  1.3160 -0.8387 -0.6625
  170MOL    H2834166   3.498   7.762   4.476 -0.6359  0.5434 -0.0865
  170MOL    H2934167   3.466   7.547   4.265 -2.7619 -1.9283  0.5296
  170MOL    H3034168   3.230   7.618   4.285  0.2135 -2.5018 -0.4225
  170MOL    H3134169   3.253   7.698   4.440  1.6162  0.6767  0.3035
  170MOL    C3234170   3.248   7.478   4.431  0.1312 -0.4909  0.5277
  170MOL    C3334171   3.094   7.461   4.421  0.4221 -0.3120  0.4598
  170MOL    C3434172   3.013   7.469   4.524  0.6419  0.0331 -0.1340
  170MOL    C3534173   2.864   7.453   4.521  0.9966  0.1135  0.6733
  170MOL    H3634174   3.289   7.406   4.359  1.2010  2.0092 -1.4409
  170MOL    H3734175   3.281   7.464   4.534 -0.0416  2.7130  1.0663
  170MOL    H3834176   3.053   7.436   4.324  0.5787 -4.8033  1.4771
  170MOL    H3934177   3.055   7.492   4.621 -0.4213  1.2059  0.0665
  170MOL    H4034178   2.819   7.417   4.428  0.0216  1.9087  0.4316
  170MOL    H4134179   2.820   7.552   4.535  2.9713  0.7661  2.3454
  170MOL    C4234180   2.815   7.345   4.625  0.6431 -0.2037 -0.3997
  170MOL    C4334181   2.668   7.370   4.657  0.5581  0.3672  0.1500
  170MOL    C4434182   2.575   7.289   4.606 -0.1242  0.0717 -0.1565
  170MOL    C4534183   2.426   7.312   4.643  0.1052 -0.0395  0.1287
  170MOL    H4634184   2.828   7.243   4.590 -2.9727 -0.5860 -0.8281
  170MOL    H4734185   2.876   7.363   4.714 -0.6910  1.7468  0.1467
  170MOL    H4834186   2.642   7.447   4.728 -2.7330 -0.0295 -0.5348
  170MOL    H4934187   2.596   7.216   4.529  0.8143 -0.3578  0.4919
  170MOL    H5034188   2.420   7.378   4.729  0.6327 -0.6322  0.6336
  170MOL    H5134189   2.395   7.210   4.668 -2.2961  0.1877 -1.7931
  170MOL    C5234190   2.350   7.356   4.517  0.5952 -0.3536 -0.4945
  170MOL    C5334191   2.199   7.371   4.554 -0.3961 -0.2593 -0.4720
  170MOL    C5434192   2.106   7.285   4.525  0.4444  0.3302 -0.9075
  170MOL    C5534193   1.966   7.292   4.592 -0.9751  0.3239  0.1167
  170MOL    H5634194   2.390   7.453   4.490 -1.2929  0.7890  0.6715
  170MOL    H5734195   2.363   7.272   4.449 -2.8678 -3.1351  2.0000
  170MOL    H5834196   2.177   7.454   4.619  2.2769 -0.7407  1.1328
  170MOL    H5934197   2.136   7.198   4.469 -0.9705 -0.2344 -0.8250
  170MOL    H6034198   1.952   7.385   4.646 -0.1144  1.0110 -0.8357
  170MOL    H6134199   1.952   7.206   4.658 -0.1489  1.3575  1.6545
  170MOL    C6234200   1.867   7.279   4.464 -0.1168 -0.7405 -0.7443
  170MOL    C6334201   1.751   7.192   4.489  0.3605 -0.2032 -0.2430
  170MOL    C6434202   1.724   7.083   4.416  0.1679 -0.4884 -0.4824
  170MOL    C6534203   1.608   6.989   4.433  0.1110 -0.9306 -0.0453
  170MOL    H6634204   1.830   7.377   4.434  0.4421 -0.2482  0.1515
  170MOL    H6734205   1.913   7.236   4.375 -1.5643  0.8237 -2.2857
  170MOL    H6834206   1.681   7.217   4.567  1.6477  3.7645 -0.2540
  170MOL    H6934207   1.794   7.061   4.337 -1.2228 -1.2933 -1.5244
  170MOL    H7034208   1.653   6.891   4.445 -1.5683 -1.5005  1.8981
  170MOL    H7134209   1.552   6.989   4.340  1.1374 -2.4224 -0.6738
  170MOL    C7234210   1.511   7.031   4.547  0.0023 -0.0736  0.5069
  170MOL    C7334211   1.414   6.915   4.552  0.8791  0.3794 -0.8877
  170MOL    C7434212   1.388   6.836   4.659 -0.4785 -0.2663 -0.4530
  170MOL    C7534213   1.295   6.717   4.665  0.7912 -0.2870  0.2832
  170MOL    H7634214   1.569   7.047   4.637  0.6699 -0.6474  0.1807
  170MOL    H7734215   1.465   7.128   4.526  2.2448  1.0196  0.4765
  170MOL    H7834216   1.366   6.884   4.461  0.5971  1.1377 -1.0038
  170MOL    H7934217   1.435   6.861   4.753  0.1470 -0.3584 -0.7398
  170MOL    H8034218   1.227   6.737   4.582 -2.1149  2.2509  3.1628
  170MOL    H8134219   1.245   6.711   4.761  0.5424  0.4711  0.1991
  170MOL    C8234220   1.371   6.589   4.634 -0.3182 -0.0248  1.3718
  170MOL    C8334221   1.451   6.605   4.500  0.4036 -0.5844  0.0835
  170MOL    C8434222   1.584   6.590   4.501 -0.1774  0.3316 -0.2070
  170MOL    C8534223   1.662   6.605   4.372 -0.1766 -0.0194 -0.2616
  170MOL    H8634224   1.431   6.558   4.720  3.3575 -0.1027 -1.0989
  170MOL    H8734225   1.308   6.501   4.624  1.9303 -1.6818  1.2534
  170MOL    H8834226   1.392   6.617   4.411  1.6769 -1.7685 -0.9366
  170MOL    H8934227   1.634   6.571   4.594  0.0198  1.9894  0.0468
  170MOL    H9034228   1.745   6.676   4.381 -0.4069  0.4332 -1.7070
  170MOL    H9134229   1.606   6.651   4.291 -1.5632  0.3268  0.8791
  170MOL    C9234230   1.719   6.474   4.323  0.8175  0.4511  0.3925
  170MOL    C9334231   1.794   6.483   4.196  0.1033 -0.2132  0.1857
  170MOL    C9434232   1.916   6.434   4.186 -0.6870  0.5817  0.5644
  170MOL    C9534233   2.010   6.434   4.073  0.5262  0.1634 -0.3168
  170MOL    H9634234   1.777   6.427   4.403 -0.1398 -0.4720  0.5579
  170MOL    H9734235   1.637   6.415   4.284  1.8990  0.8688 -2.6207
  170MOL    H9834236   1.743   6.537   4.118  2.4456 -1.1252 -2.0399
  170MOL    H9934237   1.961   6.396   4.277 -0.5143 -1.2006 -0.2362
  170MOL   H10034238   2.078   6.519   4.077  0.5112  0.1782 -0.3801
  170MOL   H10134239   1.956   6.457   3.981  2.1686 -2.2994 -1.9439
  170MOL   C10234240   2.084   6.295   4.079 -0.0816 -1.1836 -0.2972
  170MOL   C10334241   2.191   6.283   3.968  0.1485  0.1212 -0.3776
  170MOL   C10434242   2.184   6.193   3.868  0.5258  0.4165 -0.5689
  170MOL   C10534243   2.299   6.182   3.766  0.0317  0.1491  0.1293
  170MOL   H10634244   2.137   6.280   4.173  2.9822  1.4935 -1.5271
  170MOL   H10734245   2.009   6.217   4.064  0.2838 -1.6786  0.4071
  170MOL   H10834246   2.273   6.353   3.961 -0.2578  0.6548  0.1219
  170MOL   H10934247   2.111   6.114   3.869  1.8500 -0.8206  1.3597
  170MOL   H11034248   2.346   6.084   3.768  1.2547  0.7028 -0.9881
  170MOL   H11134249   2.378   6.249   3.797 -0.0064  1.6127 -2.7245
  170MOL   C11234250   2.247   6.206   3.622 -0.6557 -0.0754 -0.4448
  170MOL   C11334251   2.355   6.200   3.509  0.6185 -0.6697 -0.5302
  170MOL   C11434252   2.341   6.124   3.397 -0.4196  0.3146 -0.2135
  170MOL   C11534253   2.444   6.116   3.279  0.5171 -0.0800  0.7676
  170MOL   H11634254   2.168   6.137   3.592 -1.4585  0.9598 -0.7417
  170MOL   H11734255   2.213   6.309   3.621  0.2234  0.3812  4.5559
  170MOL   H11834256   2.439   6.267   3.515  0.0967  0.0006 -0.6705
  170MOL   H11934257   2.251   6.065   3.385  0.4356 -0.8619 -0.9739
  170MOL   H12034258   2.504   6.025   3.285  0.6859 -0.1634 -1.6582
  170MOL   H12134259   2.515   6.197   3.297  2.1835 -1.8932  2.6857
  170MOL   C12234260   2.371   6.135   3.151 -1.0073 -0.9083 -0.3716
  170MOL   C12334261   2.461   6.142   3.029 -0.3100  0.4740 -0.3757
  170MOL   C12434262   2.492   6.258   2.964 -0.3087  0.1185 -0.3512
  170MOL   C12534263   2.569   6.259   2.842  0.3064 -0.5908  0.2764
  170MOL   H12634264   2.299   6.053   3.144 -1.7508 -0.3307  0.3037
  170MOL   H12734265   2.316   6.229   3.163  0.0916 -0.2759 -0.1904
  170MOL   H12834266   2.500   6.051   2.987  0.4887  0.2154  0.8921
  170MOL   H12934267   2.456   6.352   3.004  0.4919  0.6649 -0.9061
  170MOL   H13034268   2.506   6.311   2.770  0.5048 -1.1001 -0.2624
  170MOL   H13134269   2.590   6.164   2.794  1.0416 -0.3349  0.0813
  170MOL   C13234270   2.700   6.326   2.861  0.3176 -0.2091 -0.7526
  170MOL   C13334271   2.773   6.345   2.729 -0.2743 -0.6418  0.2886
  170MOL   C13434272   2.808   6.461   2.674  0.4539 -0.0436 -0.4145
  170MOL   C13534273   2.873   6.482   2.537  0.7755  0.3832  0.0001
  170MOL   H13634274   2.688   6.424   2.907  0.7847 -0.2825 -0.4652
  170MOL   H13734275   2.765   6.259   2.917  0.5070  0.5158 -0.0919
  170MOL   H13834276   2.797   6.258   2.671 -0.0886  0.5707 -1.4955
  170MOL   H13934277   2.781   6.550   2.728 -2.3549 -0.2634 -1.3704
  170MOL   H14034278   2.801   6.549   2.488 -0.8410 -0.3871  1.2859
  170MOL   H14134279   2.863   6.393   2.475  0.3462 -0.4919  1.2996
  170MOL   C14234280   3.012   6.531   2.542 -0.8002  0.2414  0.4011
  170MOL   C14334281   3.071   6.573   2.415 -0.1329  0.2282  0.3041
  170MOL   C14434282   3.171   6.508   2.356  0.1036 -0.4115  0.2810
  170MOL   C14534283   3.242   6.541   2.221  0.1054  0.1345 -0.4716
  170MOL   H14634284   3.020   6.615   2.610 -0.1982  1.3131 -0.9722
  170MOL   H14734285   3.069   6.447   2.584  2.2226  1.8564 -0.2925
  170MOL   H14834286   3.034   6.666   2.374 -2.9591 -0.2101  1.7701
  170MOL   H14934287   3.217   6.428   2.411 -0.7613 -0.5386  0.8165
  170MOL   H15034288   3.220   6.647   2.205  1.3968  0.3606 -0.8596
  170MOL   H15134289   3.193   6.493   2.137 -0.5157  2.4133 -1.4616
  170MOL   C15234290   3.401   6.533   2.228  0.1149  0.5736  0.6186
  170MOL   C15334291   3.466   6.568   2.097  0.1041 -0.7453 -0.2103
  170MOL   C15434292   3.562   6.654   2.067 -0.3248 -0.0952  0.3670
  170MOL   C15534293   3.619   6.665   1.932 -0.5639 -0.5747 -0.2946
  170MOL   H15634294   3.432   6.622   2.284  1.5252  1.2372 -1.1593
  170MOL   H15734295   3.445   6.441   2.267 -0.8892  0.0431  0.5158
  170MOL   H15834296   3.424   6.501   2.024 -1.2396  1.0811 -1.1553
  170MOL   H15934297   3.602   6.708   2.151 -0.0070  0.6332 -0.2480
  170MOL   H16034298   3.608   6.564   1.892  0.0557 -0.6181 -0.3631
  170MOL   H16134299   3.727   6.684   1.928 -1.1446  2.8787 -1.1863
  170MOL   C16234300   3.546   6.767   1.845  0.0143  0.2930 -0.4185
  170MOL   C16334301   3.576   6.907   1.869 -0.0062  0.1912 -0.4636
  170MOL   C16434302   3.487   6.999   1.916  0.0076 -0.5760  0.2772
  170MOL   C16534303   3.507   7.152   1.925 -0.5659 -0.2811 -0.9332
  170MOL   H16634304   3.577   6.758   1.741 -2.5151 -1.5729 -1.0685
  170MOL   H16734305   3.437   6.764   1.846 -0.1612  4.3103 -0.1931
  170MOL   H16834306   3.676   6.934   1.839  0.9865 -2.6365  0.1628
  170MOL   H16934307   3.387   6.969   1.946 -0.0404 -0.1349  0.5591
  170MOL   H17034308   3.611   7.179   1.945 -0.6315 -0.6415 -0.0875
  170MOL   H17134309   3.458   7.183   2.018 -0.4427  0.1250 -1.0009
  170MOL   C17234310   3.447   7.225   1.810 -0.1583 -0.7649 -0.3885
  170MOL   C17334311   3.545   7.232   1.695  0.3733  0.1863  0.4208
  170MOL   C17434312   3.604   7.348   1.660 -0.3547  0.2048 -0.5247
  170MOL   C17534313   3.708   7.360   1.550  0.0576  0.8095 -1.0556
  170MOL   H17634314   3.354   7.176   1.783 -0.8095 -1.3219  2.6604
  170MOL   H17734315   3.414   7.327   1.826  1.6342  0.2370 -2.7171
  170MOL   H17834316   3.563   7.144   1.634 -1.6072  0.3072 -0.4081
  170MOL   H17934317   3.584   7.431   1.726 -0.1865  1.1206 -1.6076
  170MOL   H18034318   3.669   7.292   1.475 -0.6023  0.8862 -0.7868
  170MOL   H18134319   3.805   7.331   1.590 -0.4141  1.6740  0.8191
  170MOL   C18234320   3.719   7.500   1.481 -0.2070  0.0330  0.1095
  170MOL   C18334321   3.822   7.505   1.378  0.2156  0.0795  0.2246
  170MOL   C18434322   3.920   7.594   1.371  0.1936  0.1146  0.4269
  170MOL   C18534323   4.032   7.605   1.270  0.6086 -0.3387 -0.0985
  170MOL   H18634324   3.620   7.531   1.447  0.1200  1.2699  0.2664
  170MOL   H18734325   3.749   7.570   1.559  3.0247 -0.5230 -0.5845
  170MOL   H18834326   3.814   7.429   1.301 -1.9560  2.0716 -1.6201
  170MOL   H18934327   3.935   7.660   1.455  0.1960 -3.0521  3.0078
  170MOL   H19034328   4.032   7.522   1.198  2.1357 -0.1042 -0.3889
  170MOL   H19134329   4.122   7.597   1.331 -0.0934  1.2341  1.1436
  170MOL   C19234330   4.018   7.737   1.201  0.0806 -0.1814  0.1615
  170MOL   C19334331   4.134   7.770   1.109  0.0013  0.1210 -0.3007
  170MOL   C19434332   4.251   7.705   1.105  0.9028  0.6725  0.0263
  170MOL   C19534333   4.365   7.739   1.026  0.6264 -0.2515 -0.7403
  170MOL   H19634334   3.924   7.752   1.148  1.0189  1.4489 -1.0874
  170MOL   H19734335   4.011   7.815   1.277 -0.7004  0.9922 -1.0729
  170MOL   H19834336   4.117   7.854   1.044  0.9774 -0.2737 -1.0656
  170MOL   H19934337   4.268   7.625   1.176 -1.5992  0.7312  0.7646
  170MOL   H20034338   4.449   7.772   1.087  1.2480 -2.8147 -0.1434
  170MOL   H20134339   4.345   7.802   0.939 -2.4420 -0.2552 -0.0735
  170MOL   H20234340   4.401   7.642   0.992  3.0601  0.9413 -1.6693
  171MOL     C134341   5.576   4.805   3.550  0.2352 -0.7714  0.3082
  171MOL     C234342   5.676   4.849   3.445  0.9887  0.0981 -0.2203
  171MOL     C334343   5.778   4.776   3.407 -1.0350 -0.3199 -0.2675
  171MOL     C434344   5.884   4.837   3.318  0.3890  0.0943 -0.6144
  171MOL     H534345   5.580   4.861   3.643 -1.6851  0.2703 -0.2175
  171MOL     H634346   5.602   4.701   3.569  0.0664 -0.7985  0.3896
  171MOL     H734347   5.665   4.952   3.412 -1.0457 -0.1857 -0.5171
  171MOL     H834348   5.800   4.682   3.456  0.6915 -0.1163 -0.6211
  171MOL     H934349   5.849   4.932   3.278  0.6010  0.5096  0.1883
  171MOL    H1034350   5.896   4.770   3.232 -0.3646 -1.8307  0.7375
  171MOL    H1134351   5.474   4.808   3.512 -0.3414 -0.8498  1.8227
  171MOL    C1234352   6.013   4.853   3.396  0.0060 -0.6065 -0.3929
  171MOL    C1334353   6.135   4.892   3.317  0.2545  0.2672 -0.2596
  171MOL    C1434354   6.259   4.849   3.335  0.0856  0.8271  0.2587
  171MOL    C1534355   6.373   4.872   3.246 -0.8198  0.4344  0.5101
  171MOL    H1634356   6.007   4.931   3.472  1.7118 -1.8345  1.0322
  171MOL    H1734357   6.031   4.764   3.455 -2.6398 -0.1253  1.1944
  171MOL    H1834358   6.106   4.961   3.239  0.9331 -1.3006 -1.9154
  171MOL    H1934359   6.277   4.770   3.407  1.2450  0.6787 -0.1983
  171MOL    H2034360   6.355   4.971   3.203 -0.7732  0.4769  0.5869
  171MOL    H2134361   6.368   4.808   3.159  0.6087  1.4629 -0.3568
  171MOL    C2234362   6.504   4.885   3.318  0.1901 -0.2356  0.3789
  171MOL    C2334363   6.620   4.894   3.217  0.8459 -0.9185  0.1278
  171MOL    C2434364   6.732   4.824   3.237  0.2582  0.5956 -0.1954
  171MOL    C2534365   6.856   4.806   3.152  0.7138 -0.6563  0.3290
  171MOL    H2634366   6.493   4.979   3.372 -0.3642 -0.0217 -0.0936
  171MOL    H2734367   6.532   4.803   3.384  3.7893 -0.7713 -1.6585
  171MOL    H2834368   6.622   4.959   3.131  0.2202 -0.5750  0.3757
  171MOL    H2934369   6.733   4.752   3.317  0.7123 -0.5990 -1.2563
  171MOL    H3034370   6.847   4.881   3.073 -1.9319  0.8169  1.9476
  171MOL    H3134371   6.862   4.713   3.096  5.2686 -0.0138 -0.4649
  171MOL    C3234372   6.991   4.812   3.229 -0.4535 -0.9826  0.5790
  171MOL    C3334373   7.111   4.813   3.138 -0.4770  0.3512  0.2074
  171MOL    C3434374   7.193   4.708   3.115  0.8783  0.0155 -0.0179
  171MOL    C3534375   7.303   4.712   3.010 -0.1342  0.4236  0.0355
  171MOL    H3634376   6.985   4.907   3.282  0.6202 -0.4643 -0.2043
  171MOL    H3734377   7.005   4.723   3.291  2.4113 -1.1943 -0.2723
  171MOL    H3834378   7.116   4.904   3.080  0.5747  0.2433  0.1196
  171MOL    H3934379   7.174   4.616   3.169 -0.7928  0.5865  0.3668
  171MOL    H4034380   7.320   4.812   2.970 -1.9359  0.3553 -0.9596
  171MOL    H4134381   7.271   4.662   2.918 -0.1952  0.6814 -0.0834
  171MOL    C4234382   7.442   4.666   3.075 -0.0149  0.0015  1.2105
  171MOL    C4334383   7.450   4.514   3.059 -0.3598 -0.0731 -0.6809
  171MOL    C4434384   7.474   4.430   3.163  0.3234  0.0548 -0.4188
  171MOL    C4534385   7.482   4.280   3.158  0.2474 -0.5830  0.1401
  171MOL    H4634386   7.525   4.712   3.021 -0.2259 -0.8418  0.1372
  171MOL    H4734387   7.449   4.698   3.179  0.0740  0.6046  1.0225
  171MOL    H4834388   7.429   4.468   2.964  0.1388  0.0333 -0.8459
  171MOL    H4934389   7.490   4.475   3.260 -2.5490 -1.1254  0.6603
  171MOL    H5034390   7.580   4.248   3.192  0.6535  2.2885  1.7625
  171MOL    H5134391   7.476   4.245   3.055  0.9082 -0.6502  0.1239
  171MOL    C5234392   7.370   4.218   3.244 -0.2085  0.0383  0.3277
  171MOL    C5334393   7.238   4.230   3.180  0.1800  1.0700 -0.4587
  171MOL    C5434394   7.130   4.288   3.235  0.3203 -0.5234 -0.2459
  171MOL    C5534395   6.990   4.287   3.178 -0.4310  0.1810  0.3823
  171MOL    H5634396   7.387   4.110   3.248 -1.6401 -0.2166 -0.2793
  171MOL    H5734397   7.367   4.265   3.342 -2.4642  0.5076  0.0745
  171MOL    H5834398   7.228   4.186   3.082 -1.4621 -0.5672  0.4140
  171MOL    H5934399   7.139   4.325   3.336  0.5957 -1.1791 -0.0260
  171MOL    H6034400   6.933   4.203   3.219 -0.1664 -1.0142 -1.6335
  171MOL    H6134401   6.997   4.264   3.072 -0.8405 -0.3884  0.4731
  171MOL    C6234402   6.937   4.424   3.185  0.4144  0.3966 -0.1952
  171MOL    C6334403   6.801   4.425   3.135  0.9395  0.1998  0.8849
  171MOL    C6434404   6.696   4.445   3.211  0.8846  0.0563  0.9369
  171MOL    C6534405   6.559   4.472   3.146 -0.4831  0.3510 -0.0000
  171MOL    H6634406   6.947   4.468   3.284 -1.0911  1.8957 -0.6939
  171MOL    H6734407   7.004   4.484   3.124  1.5291 -0.3271  0.2947
  171MOL    H6834408   6.800   4.413   3.028  1.3333 -0.7631  0.9845
  171MOL    H6934409   6.714   4.468   3.315  0.4019  0.4192  0.9434
  171MOL    H7034410   6.546   4.439   3.042  0.4146  0.9945 -0.3203
  171MOL    H7134411   6.543   4.579   3.137  1.4808  0.9020  2.6602
  171MOL    C7234412   6.443   4.409   3.232  0.8675  0.0724 -0.6144
  171MOL    C7334413   6.310   4.458   3.165  0.0226 -0.0432 -0.0112
  171MOL    C7434414   6.202   4.379   3.132  0.0544  0.0491 -0.8568
  171MOL    C7534415   6.086   4.445   3.057 -0.2474 -0.1802  0.3052
  171MOL    H7634416   6.447   4.300   3.229 -2.3264 -0.0901 -1.0934
  171MOL    H7734417   6.448   4.439   3.336 -0.6470 -2.2093  0.1646
  171MOL    H7834418   6.316   4.561   3.133 -1.1709  0.2036  0.5327
  171MOL    H7934419   6.181   4.275   3.154 -1.7153  0.7190  0.7495
  171MOL    H8034420   6.077   4.395   2.961  1.5160 -2.7763  1.4112
  171MOL    H8134421   6.109   4.547   3.028  1.1800 -1.1934 -2.3139
  171MOL    C8234422   5.948   4.431   3.128 -0.8493 -0.1036  0.3037
  171MOL    C8334423   5.957   4.486   3.269 -1.0515 -0.7700 -0.5886
  171MOL    C8434424   5.903   4.423   3.375  0.3500  0.2386 -0.0409
  171MOL    C8534425   5.935   4.463   3.523 -0.1514  0.7112  0.4337
  171MOL    H8634426   5.855   4.464   3.081 -1.4466  0.7452  2.0540
  171MOL    H8734427   5.933   4.323   3.135  2.6293 -0.5368  2.1862
  171MOL    H8834428   6.011   4.578   3.278  1.2726 -2.1605  0.0605
  171MOL    H8934429   5.852   4.329   3.358 -2.2491  2.0932 -2.9716
  171MOL    H9034430   5.852   4.499   3.584  1.4257 -0.8033  3.5544
  171MOL    H9134431   6.006   4.545   3.522  0.9849 -0.2545  1.2608
  171MOL    C9234432   6.007   4.356   3.596  0.5627  1.0290  0.3102
  171MOL    C9334433   6.124   4.294   3.522  0.0437  0.3854  0.9764
  171MOL    C9434434   6.144   4.158   3.495  0.3328  0.1111 -0.5840
  171MOL    C9534435   6.260   4.087   3.430 -0.0769 -0.3820 -0.4690
  171MOL    H9634436   6.041   4.381   3.697  3.3012  1.2291 -0.6293
  171MOL    H9734437   5.932   4.286   3.633  0.8762  1.5006  1.8928
  171MOL    H9834438   6.198   4.366   3.490  1.3155 -1.5350 -0.6044
  171MOL    H9934439   6.060   4.100   3.531  0.6759  0.0400  0.1275
  171MOL   H10034440   6.323   4.047   3.510 -1.5639 -1.3848  0.2154
  171MOL   H10134441   6.323   4.159   3.378 -0.3459 -0.7907 -1.3734
  171MOL   C10234442   6.225   3.975   3.328 -0.6441  0.0491 -0.1423
  171MOL   C10334443   6.337   3.937   3.239  0.0325  0.5023  0.5303
  171MOL   C10434444   6.392   4.013   3.142 -0.3241 -0.1831 -0.0631
  171MOL   C10534445   6.514   3.965   3.056  0.2907 -0.6807  0.6064
  171MOL   H10634446   6.186   3.894   3.388  1.2866  0.5079  1.7895
  171MOL   H10734447   6.167   4.030   3.254  3.2668  1.1303 -2.6061
  171MOL   H10834448   6.362   3.831   3.241 -0.4017  0.4078  0.8654
  171MOL   H10934449   6.366   4.117   3.126  1.8743  0.6250  1.4365
  171MOL   H11034450   6.490   3.977   2.951  0.4964 -0.9235  0.5292
  171MOL   H11134451   6.535   3.859   3.071 -0.8597 -0.9351  0.4656
  171MOL   C11234452   6.647   4.032   3.088  0.3551 -0.1712  0.3823
  171MOL   C11334453   6.762   3.975   3.019  0.0155  0.1736  0.2385
  171MOL   C11434454   6.871   3.927   3.085 -0.0057  0.1889 -0.1353
  171MOL   C11534455   6.973   3.851   3.003 -0.7392 -0.0520  0.9982
  171MOL   H11634456   6.643   4.137   3.060 -1.2375 -0.1230  0.7408
  171MOL   H11734457   6.649   4.038   3.197  0.7729 -0.4764  0.3916
  171MOL   H11834458   6.744   3.965   2.913  0.1821 -1.8330  0.3868
  171MOL   H11934459   6.879   3.938   3.192 -0.8812 -2.0267  0.1946
  171MOL   H12034460   6.938   3.797   2.915  0.1854 -0.5415  0.9212
  171MOL   H12134461   7.001   3.759   3.054 -0.2755 -0.1953  0.4966
  171MOL   C12234462   7.090   3.940   2.971  0.2301 -0.2620  0.4217
  171MOL   C12334463   7.215   3.877   2.927 -0.3717 -0.2983  0.3254
  171MOL   C12434464   7.336   3.919   2.967  0.1127 -0.4006  0.3388
  171MOL   C12534465   7.480   3.888   2.917  0.8230  0.1476 -0.1996
  171MOL   H12634466   7.054   4.010   2.895  1.6534 -0.2043 -0.2093
  171MOL   H12734467   7.120   3.992   3.061 -0.6603 -1.9105  1.7109
  171MOL   H12834468   7.205   3.812   2.841 -2.7526 -1.6783  1.6033
  171MOL   H12934469   7.341   3.990   3.048  1.2875  0.3083 -0.3528
  171MOL   H13034470   7.488   3.827   2.827 -2.3018 -0.4002 -0.1497
  171MOL   H13134471   7.534   3.842   3.000  2.0079 -0.0852 -1.0750
  171MOL   C13234472   7.558   4.016   2.882  0.3053 -0.1465 -0.6613
  171MOL   C13334473   7.498   4.098   2.768 -0.1356  0.0531 -0.2511
  171MOL   C13434474   7.534   4.220   2.727 -1.1956  0.2711  0.2114
  171MOL   C13534475   7.492   4.298   2.605  0.3755 -0.2516  0.3832
  171MOL   H13634476   7.587   4.078   2.967 -2.0774  1.1642 -0.7354
  171MOL   H13734477   7.654   3.993   2.836  0.8857 -0.5665  0.7542
  171MOL   H13834478   7.420   4.041   2.720 -3.2195  1.5435  2.7976
  171MOL   H13934479   7.602   4.266   2.797 -0.1183  0.4300 -0.9208
  171MOL   H14034480   7.416   4.249   2.544 -0.4692  1.7649 -0.2225
  171MOL   H14134481   7.587   4.295   2.552 -0.8662  1.3651 -1.9794
  171MOL   C14234482   7.445   4.438   2.639  0.3184  0.0774 -0.1121
  171MOL   C14334483   7.415   4.534   2.525 -0.0583 -0.0583 -0.1230
  171MOL   C14434484   7.504   4.618   2.477 -0.2601  0.2394  0.6517
  171MOL   C14534485   7.481   4.730   2.378 -0.4554 -0.0445 -0.3854
  171MOL   H14634486   7.356   4.437   2.702 -0.7863 -0.0795 -1.6500
  171MOL   H14734487   7.521   4.478   2.706 -0.1725  0.0997  0.4285
  171MOL   H14834488   7.310   4.539   2.498 -0.4376  2.6146  1.6930
  171MOL   H14934489   7.604   4.617   2.518  0.1768  1.7334 -0.3547
  171MOL   H15034490   7.443   4.825   2.416  0.0723  0.3918 -0.9342
  171MOL   H15134491   7.388   4.691   2.337 -0.1635 -0.3006 -0.8008
  171MOL   C15234492   7.592   4.752   2.272 -0.6231  0.0032  0.3062
  171MOL   C15334493   7.556   4.871   2.187  0.2915  0.7250  0.0488
  171MOL   C15434494   7.634   4.979   2.155  0.2516  0.0852 -0.2199
  171MOL   C15534495   7.587   5.100   2.078  0.2661 -0.1586 -0.1755
  171MOL   H15634496   7.675   4.783   2.335  0.3154  0.9302 -1.3571
  171MOL   H15734497   7.623   4.661   2.221  1.0843  1.0245 -0.5312
  171MOL   H15834498   7.455   4.859   2.151  0.8794 -3.3194 -0.5063
  171MOL   H15934499   7.735   4.979   2.193  0.2034 -0.2425 -0.0894
  171MOL   H16034500   7.611   5.187   2.140  0.0572 -0.7580  0.7466
  171MOL   H16134501   7.480   5.117   2.072  0.1442 -0.3399  1.3524
  171MOL   C16234502   7.655   5.104   1.935 -0.1862 -0.6848 -0.5528
  171MOL   C16334503   7.611   5.222   1.849 -0.6982  0.1038 -0.1338
  171MOL   C16434504   7.694   5.324   1.818 -0.2138  0.1937  1.1015
  171MOL   C16534505   7.653   5.444   1.729  0.5057 -0.0815 -0.3620
  171MOL   H16634506   7.764   5.098   1.936 -0.0706  1.1874  0.3333
  171MOL   H16734507   7.614   5.021   1.876 -0.6311 -1.4645  0.8148
  171MOL   H16834508   7.507   5.223   1.818 -2.0215  0.9282  4.0086
  171MOL   H16934509   7.797   5.325   1.850  0.1696  2.3373 -0.0636
  171MOL   H17034510   7.556   5.410   1.691  1.0215 -2.5310  0.4122
  171MOL   H17134511   7.709   5.444   1.636 -2.5319 -1.4033 -2.2615
  171MOL   C17234512   7.638   5.577   1.793 -0.4516 -0.2515 -0.1764
  171MOL   C17334513   7.756   5.612   1.878  0.6966 -0.1565  0.0541
  171MOL   C17434514   7.843   5.715   1.866  0.7363  0.5071 -0.1787
  171MOL   C17534515   7.960   5.731   1.954  0.2232  0.0176  0.1637
  171MOL   H17634516   7.635   5.652   1.713 -2.7713 -0.3691 -0.2261
  171MOL   H17734517   7.545   5.585   1.849 -0.8241  2.0882 -1.0633
  171MOL   H17834518   7.775   5.542   1.957  1.5167  0.7835  0.6918
  171MOL   H17934519   7.824   5.785   1.786  0.2029  1.7855  1.0383
  171MOL   H18034520   7.967   5.645   2.021 -2.7155 -1.1791 -0.9530
  171MOL   H18134521   7.936   5.816   2.017  1.4024 -0.2700  1.0117
  171MOL   C18234522   0.120   5.762   1.891 -0.1112 -0.2538 -0.4930
  171MOL   C18334523   0.226   5.735   1.995 -0.7349 -0.3249  0.5938
  171MOL   C18434524   0.317   5.820   2.046 -0.3562  0.2359  0.1164
  171MOL   C18534525   0.422   5.779   2.151  0.0929 -0.3928  0.2995
  171MOL   H18634526   0.126   5.703   1.799  2.7196 -0.3749 -0.2589
  171MOL   H18734527   0.121   5.867   1.864  1.0839 -0.4295 -1.1543
  171MOL   H18834528   0.226   5.632   2.027  1.9605 -0.8081 -0.7634
  171MOL   H18934529   0.320   5.923   2.013  0.4774  0.9009  2.1766
  171MOL   H19034530   0.428   5.837   2.243  1.7966 -1.0190  0.6081
  171MOL   H19134531   0.515   5.804   2.101 -1.3357  2.9250 -0.8125
  171MOL   C19234532   0.418   5.636   2.203  0.4788  0.8766  0.2828
  171MOL   C19334533   0.519   5.589   2.302 -0.6730 -0.7007 -0.5414
  171MOL   C19434534   0.493   5.559   2.430 -0.4091  0.1446  0.2950
  171MOL   C19534535   0.599   5.519   2.522 -0.3799 -0.4871 -0.8639
  171MOL   H19634536   0.323   5.614   2.252  0.9625  0.3420  0.9796
  171MOL   H19734537   0.423   5.575   2.113  0.5982 -1.2777  1.7233
  171MOL   H19834538   0.620   5.595   2.266 -0.5642 -2.1855 -0.5025
  171MOL   H19934539   0.390   5.570   2.463 -0.9147  0.6518 -1.3765
  171MOL   H20034540   0.612   5.411   2.513  0.8895 -0.4897  0.7673
  171MOL   H20134541   0.571   5.554   2.621  0.3058  1.2558 -1.2751
  171MOL   H20234542   0.693   5.571   2.502  0.9699 -1.5917  2.2527
  172MOL     C134543   3.931   4.206   2.784 -0.6213 -0.4926 -0.3814
  172MOL     C234544   3.974   4.283   2.911  0.0784 -0.0196 -1.0086
  172MOL     C334545   3.937   4.402   2.955  0.2868  0.0330  0.4785
  172MOL     C434546   3.978   4.463   3.083 -0.6360  0.0891 -0.1141
  172MOL     H534547   3.853   4.256   2.726 -1.0147 -0.9135 -0.2251
  172MOL     H634548   3.899   4.110   2.826  1.5468  0.0644  2.7646
  172MOL     H734549   4.050   4.226   2.963  0.2315  0.2554 -0.9271
  172MOL     H834550   3.865   4.456   2.896 -1.3081 -1.0317  1.4150
  172MOL     H934551   4.045   4.396   3.137 -0.1598 -2.9010 -4.1364
  172MOL    H1034552   3.889   4.472   3.145  0.8499 -0.4190  2.1596
  172MOL    H1134553   4.011   4.184   2.714 -1.9439 -1.8123 -1.5231
  172MOL    C1234554   4.045   4.605   3.062  0.1858  0.2634 -0.0417
  172MOL    C1334555   4.063   4.660   3.205 -0.0939 -0.2996 -0.1547
  172MOL    C1434556   3.981   4.755   3.260 -0.6652 -0.3511  0.0070
  172MOL    C1534557   3.996   4.807   3.400  0.1325 -0.7210  0.4547
  172MOL    H1634558   4.136   4.605   3.003 -0.8505  1.0384 -1.7003
  172MOL    H1734559   3.977   4.673   3.011 -1.4991 -1.3302  0.0134
  172MOL    H1834560   4.145   4.612   3.257 -0.0037 -1.9757 -1.7747
  172MOL    H1934561   3.897   4.793   3.203  1.1019  1.1170 -1.7068
  172MOL    H2034562   4.095   4.781   3.437  1.3352  2.0774 -0.6031
  172MOL    H2134563   3.918   4.759   3.458 -0.6320 -1.9171 -1.4958
  172MOL    C2234564   3.968   4.959   3.401  0.4076  0.4193  0.5917
  172MOL    C2334565   3.936   4.996   3.540  0.0752 -0.0413 -0.0533
  172MOL    C2434566   4.027   5.007   3.636 -0.2602 -0.4714 -0.5647
  172MOL    C2534567   4.000   5.042   3.782 -0.0407 -0.2491  0.6587
  172MOL    H2634568   4.050   5.024   3.369  0.6996 -0.2376 -0.0213
  172MOL    H2734569   3.887   4.984   3.334 -0.6860 -3.0740  0.5350
  172MOL    H2834570   3.834   5.007   3.573 -0.5476 -0.5441 -1.7629
  172MOL    H2934571   4.130   4.989   3.610  0.2270  1.3080  0.0433
  172MOL    H3034572   4.039   4.965   3.849 -1.3105 -1.0170  0.5361
  172MOL    H3134573   3.892   5.049   3.789  0.0161  2.3634 -0.6552
  172MOL    C3234574   4.067   5.173   3.819 -0.7370 -0.9962 -0.0964
  172MOL    C3334575   4.030   5.282   3.731 -0.2008 -0.9842  0.4104
  172MOL    C3434576   4.102   5.366   3.662 -0.3557 -0.6001  0.2032
  172MOL    C3534577   4.035   5.468   3.579 -0.7024  0.3253  0.6118
  172MOL    H3634578   4.024   5.202   3.915  0.0404 -0.6642  0.1601
  172MOL    H3734579   4.176   5.162   3.824 -0.7824 -1.4744 -0.1598
  172MOL    H3834580   3.923   5.291   3.717 -0.1212 -2.6000 -1.5123
  172MOL    H3934581   4.210   5.364   3.660 -0.3611 -0.4762 -0.1895
  172MOL    H4034582   4.044   5.572   3.610 -1.1077 -0.0938  2.1300
  172MOL    H4134583   3.927   5.459   3.569 -0.5900 -0.5612  0.1984
  172MOL    C4234584   4.091   5.469   3.432  0.2721  0.2584 -0.9776
  172MOL    C4334585   4.064   5.343   3.360 -0.0947  0.1420  0.0332
  172MOL    C4434586   4.047   5.341   3.223 -0.0642 -0.1247 -0.4404
  172MOL    C4534587   4.009   5.220   3.144 -0.0699  0.2338  0.0949
  172MOL    H4634588   4.054   5.559   3.383  0.6675  1.1196  0.2702
  172MOL    H4734589   4.199   5.482   3.431  0.3457 -0.1725  0.1434
  172MOL    H4834590   4.067   5.251   3.416  0.0858 -0.2289 -0.5770
  172MOL    H4934591   4.048   5.433   3.166 -1.0285  0.5110  0.5618
  172MOL    H5034592   3.988   5.139   3.213  1.8935  0.1082  0.5702
  172MOL    H5134593   4.105   5.200   3.096 -0.3607  0.7709 -0.7261
  172MOL    C5234594   3.891   5.249   3.042  0.2722 -0.6573 -0.4820
  172MOL    C5334595   3.941   5.319   2.921 -0.9689 -0.5892 -0.1847
  172MOL    C5434596   3.930   5.275   2.793  0.6245 -0.1616  0.5307
  172MOL    C5534597   3.964   5.356   2.665  0.5245 -0.2078 -0.2649
  172MOL    H5634598   3.841   5.154   3.024  1.6871 -1.5875  0.3766
  172MOL    H5734599   3.820   5.321   3.081  1.0805  0.4565 -1.0392
  172MOL    H5834600   3.997   5.410   2.937 -0.7928 -0.6151 -0.6287
  172MOL    H5934601   3.894   5.174   2.778  0.7260 -0.3449  1.4942
  172MOL    H6034602   3.896   5.330   2.583  1.6645  0.3722 -1.4117
  172MOL    H6134603   4.066   5.339   2.633  0.7913  1.2137 -0.2059
  172MOL    C6234604   3.932   5.509   2.685 -0.4278 -0.1286 -0.3579
  172MOL    C6334605   3.968   5.590   2.553 -0.0892  0.3237 -0.5362
  172MOL    C6434606   3.877   5.653   2.475  0.0268 -0.3941 -0.2952
  172MOL    C6534607   3.912   5.743   2.363 -0.2006  0.1047 -0.6303
  172MOL    H6634608   3.825   5.519   2.705 -0.5763 -1.4660 -0.4391
  172MOL    H6734609   3.985   5.549   2.770 -2.7749  0.2168  0.9887
  172MOL    H6834610   4.072   5.593   2.524  0.0033  0.1688 -0.2268
  172MOL    H6934611   3.772   5.660   2.500 -0.3587  0.3868 -2.0138
  172MOL    H7034612   4.021   5.742   2.352 -0.1995 -0.0417 -0.5990
  172MOL    H7134613   3.876   5.842   2.393  1.1997 -0.0398  1.6861
  172MOL    C7234614   3.849   5.693   2.227 -0.3366  0.3516 -0.6786
  172MOL    C7334615   3.899   5.773   2.108  0.5867 -0.7647  0.9069
  172MOL    C7434616   3.852   5.760   1.984  0.2554  0.3078  0.4923
  172MOL    C7534617   3.888   5.849   1.868  0.0701  0.1890 -0.2199
  172MOL    H7634618   3.889   5.594   2.203  2.3401  1.5171 -1.2377
  172MOL    H7734619   3.741   5.685   2.228 -0.3324  0.1695 -1.3513
  172MOL    H7834620   3.976   5.841   2.143  0.3470 -1.3582  2.6356
  172MOL    H7934621   3.762   5.701   1.971 -0.6342  1.9784 -1.0448
  172MOL    H8034622   3.805   5.920   1.854 -0.8543 -1.0281 -1.0114
  172MOL    H8134623   3.889   5.785   1.780  1.5747 -0.0715 -0.0169
  172MOL    C8234624   4.025   5.918   1.880  0.0075 -0.0195 -0.4912
  172MOL    C8334625   4.085   5.966   1.741 -0.0179 -0.3461 -0.3014
  172MOL    C8434626   4.124   6.094   1.706  0.3585 -0.0094 -1.0115
  172MOL    C8534627   4.168   6.129   1.561 -0.4559 -0.5213  0.3589
  172MOL    H8634628   4.025   6.004   1.947  0.0274 -0.4411  0.0464
  172MOL    H8734629   4.092   5.845   1.926 -0.3594 -0.4176 -0.5884
  172MOL    H8834630   4.082   5.889   1.666  0.8638 -0.4453 -0.2318
  172MOL    H8934631   4.131   6.177   1.775  1.1322 -0.8370 -0.0636
  172MOL    H9034632   4.131   6.227   1.530 -0.2950 -0.0269  1.7061
  172MOL    H9134633   4.127   6.054   1.493 -0.9436  0.1473 -0.0880
  172MOL    C9234634   4.318   6.109   1.553 -0.1039 -0.1130 -0.4971
  172MOL    C9334635   4.365   6.121   1.416  0.4229  0.1532 -0.1663
  172MOL    C9434636   4.416   6.023   1.338 -0.4593 -0.5304  0.4630
  172MOL    C9534637   4.454   6.053   1.192  0.3546 -0.1928  0.9089
  172MOL    H9634638   4.358   6.190   1.615  0.4286 -0.4781 -0.3584
  172MOL    H9734639   4.344   6.015   1.602 -0.4155  0.0463 -0.0218
  172MOL    H9834640   4.359   6.222   1.380  1.0394  0.2386 -0.0410
  172MOL    H9934641   4.426   5.918   1.363 -0.8513 -0.7008 -0.0883
  172MOL   H10034642   4.390   6.137   1.165  0.1851 -0.3315  0.8830
  172MOL   H10134643   4.415   5.976   1.126 -1.8749 -0.4031  2.4352
  172MOL   C10234644   4.602   6.067   1.178 -0.3945  0.3349 -0.2143
  172MOL   C10334645   4.632   6.125   1.040 -0.0145 -0.4621 -0.3469
  172MOL   C10434646   4.741   6.081   0.970  0.7248  0.1389 -0.4885
  172MOL   C10534647   4.782   6.127   0.830  0.2264  0.7215 -0.1345
  172MOL   H10634648   4.643   6.109   1.269 -0.9553 -2.6081  1.4614
  172MOL   H10734649   4.634   5.963   1.179  0.8080  0.7043  0.6143
  172MOL   H10834650   4.565   6.206   1.012  0.5378 -0.7064 -2.5019
  172MOL   H10934651   4.787   5.995   1.016 -0.6378 -0.0185  0.5795
  172MOL   H11034652   4.712   6.190   0.775  0.1105  0.8114  0.1124
  172MOL   H11134653   4.780   6.030   0.782 -1.4400  0.2069  0.9212
  172MOL   C11234654   4.932   6.178   0.828  1.2920 -0.2547  0.0320
  172MOL   C11334655   4.960   6.229   0.684  0.4594 -0.5369 -1.1940
  172MOL   C11434656   4.970   6.360   0.643 -0.0347 -0.7578 -0.6598
  172MOL   C11534657   4.986   6.400   0.494 -0.1406 -0.5261  0.0481
  172MOL   H11634658   4.942   6.253   0.907  1.1058  0.7474 -0.8766
  172MOL   H11734659   5.008   6.103   0.846  1.0852 -0.9762 -1.9179
  172MOL   H11834660   4.967   6.151   0.610 -0.7951 -1.5394 -0.2733
  172MOL   H11934661   4.963   6.440   0.715 -1.7294  1.8070 -3.5744
  172MOL   H12034662   5.012   6.317   0.429 -0.7598 -1.1541  0.5913
  172MOL   H12134663   5.071   6.467   0.484 -0.0679 -0.5559  0.4572
  172MOL   C12234664   4.865   6.491   0.461  0.5761  0.0353  0.0820
  172MOL   C12334665   4.851   6.525   0.315 -0.1230 -0.3121  0.1904
  172MOL   C12434666   4.773   6.627   0.269 -0.4082 -0.0841  0.5164
  172MOL   C12534667   4.741   6.638   0.124 -0.6286  0.4851  0.1750
  172MOL   H12634668   4.775   6.433   0.480  2.0007 -2.6950 -1.1439
  172MOL   H12734669   4.863   6.578   0.527  0.8899  1.2467 -1.4845
  172MOL   H12834670   4.888   6.457   0.240 -2.2400 -0.5124 -0.7054
  172MOL   H12934671   4.732   6.697   0.340 -0.6774  2.0518 -1.6884
  172MOL   H13034672   4.636   6.616   0.112 -0.8509 -0.0818  2.7701
  172MOL   H13134673   4.795   6.563   0.067 -0.0572  1.4674 -0.6116
  172MOL   C13234674   4.755   6.782   0.070 -0.5662 -0.3216 -0.6887
  172MOL   C13334675   4.667   6.795   7.923  0.4743 -0.2267 -0.0251
  172MOL   C13434676   4.711   6.806   7.797  0.4973  0.1753  0.4621
  172MOL   C13534677   4.627   6.809   7.672 -0.3075  0.3945  0.1499
  172MOL   H13634678   4.740   6.856   0.148  1.8512 -0.0201 -0.4770
  172MOL   H13734679   4.857   6.804   0.039 -0.5504 -0.0044 -0.4174
  172MOL   H13834680   4.562   6.777   7.939  0.2914  0.8873  0.1091
  172MOL   H13934681   4.817   6.823   7.784 -0.0169  3.2413 -0.2123
  172MOL   H14034682   4.656   6.893   7.609  3.9506 -0.9769  0.1707
  172MOL   H14134683   4.522   6.817   7.700 -0.1641 -2.3174  1.6452
  172MOL   C14234684   4.651   6.685   7.576  0.6548 -0.2446  1.1707
  172MOL   C14334685   4.594   6.698   7.437  0.0279 -0.0652 -0.5551
  172MOL   C14434686   4.469   6.670   7.404 -0.3444 -0.5852  0.2630
  172MOL   C14534687   4.424   6.688   7.259 -0.0551  0.7192  0.1539
  172MOL   H14634688   4.757   6.658   7.576  0.6308 -0.3558 -0.3707
  172MOL   H14734689   4.593   6.603   7.618 -2.1423  0.8778 -0.4176
  172MOL   H14834690   4.660   6.748   7.368  1.5491 -2.9013 -1.2558
  172MOL   H14934691   4.399   6.649   7.484  1.1199 -2.1962  1.1496
  172MOL   H15034692   4.350   6.616   7.227 -0.5821  1.1247  0.4555
  172MOL   H15134693   4.502   6.671   7.184  0.4946  0.3698  0.7924
  172MOL   C15234694   4.354   6.818   7.241 -0.2649  0.7141  0.3300
  172MOL   C15334695   4.282   6.831   7.100 -0.9624  0.2673  0.4339
  172MOL   C15434696   4.158   6.882   7.080 -0.7975 -0.1980  0.1660
  172MOL   C15534697   4.109   6.922   6.945  0.6856  0.0375  0.8666
  172MOL   H15634698   4.287   6.822   7.327  0.4710  0.3464  0.9224
  172MOL   H15734699   4.428   6.898   7.238  0.1077  0.3293 -0.9752
  172MOL   H15834700   4.349   6.816   7.017  0.0860  1.1629  1.1129
  172MOL   H15934701   4.091   6.895   7.164 -1.5689  3.1591 -0.9100
  172MOL   H16034702   4.173   6.888   6.863  1.2098 -0.6834  1.5673
  172MOL   H16134703   4.108   7.031   6.936 -1.3455  0.1349  2.1512
  172MOL   C16234704   3.968   6.874   6.909  0.0780 -0.1635 -0.2829
  172MOL   C16334705   3.971   6.730   6.883 -0.1344  0.3181  0.5012
  172MOL   C16434706   3.909   6.629   6.948  0.2432  0.3997  0.2309
  172MOL   C16534707   3.916   6.482   6.903 -0.8750  0.1212 -0.5941
  172MOL   H16634708   3.894   6.884   6.989  0.1851  0.6339 -0.2821
  172MOL   H16734709   3.929   6.911   6.814  0.4904 -0.1217 -0.4370
  172MOL   H16834710   4.031   6.697   6.799 -0.0115  1.2828  0.2061
  172MOL   H16934711   3.855   6.645   7.040  2.0427  0.8834  1.2376
  172MOL   H17034712   3.978   6.469   6.814 -1.2407 -0.5897 -0.7539
  172MOL   H17134713   3.822   6.436   6.872 -0.0413 -2.5947  0.7269
  172MOL   C17234714   3.983   6.394   7.015 -1.2125 -0.3504 -0.0104
  172MOL   C17334715   4.134   6.418   7.027  0.4131  0.3906  0.0036
  172MOL   C17434716   4.236   6.339   6.982 -0.5454 -0.3923 -0.3806
  172MOL   C17534717   4.387   6.373   6.998  0.0066  0.7165  0.0559
  172MOL   H17634718   3.929   6.406   7.109  0.0039  1.2944  0.4954
  172MOL   H17734719   3.982   6.289   6.985 -2.2673 -0.2556 -0.3278
  172MOL   H17834720   4.160   6.509   7.079  0.9813  0.6891 -0.7913
  172MOL   H17934721   4.208   6.250   6.928 -0.9566 -0.1473 -0.5724
  172MOL   H18034722   4.397   6.477   7.028 -0.1494  0.9362 -0.6556
  172MOL   H18134723   4.438   6.383   6.903 -2.1469 -0.2472 -1.2316
  172MOL   C18234724   4.457   6.283   7.110  0.5730  0.2359  0.1267
  172MOL   C18334725   4.600   6.307   7.105  0.0049 -0.6571 -0.7963
  172MOL   C18434726   4.671   6.340   7.214 -0.2558 -0.2772 -0.1191
  172MOL   C18534727   4.826   6.334   7.218  0.6930 -0.7625 -0.8865
  172MOL   H18634728   4.415   6.296   7.209  0.5527  0.0863  0.1372
  172MOL   H18734729   4.439   6.177   7.094  2.5890 -0.4765  2.3543
  172MOL   H18834730   4.642   6.286   7.008 -1.8092  0.7301 -1.8835
  172MOL   H18934731   4.615   6.359   7.304 -1.6842  1.2065 -1.2919
  172MOL   H19034732   4.855   6.292   7.121  3.0473 -1.2679 -0.0072
  172MOL   H19134733   4.846   6.263   7.299 -0.7379  1.4034  1.4237
  172MOL   C19234734   4.890   6.478   7.240 -0.3709  0.1507  0.0085
  172MOL   C19334735   5.046   6.466   7.211  0.0590 -0.3118  0.3618
  172MOL   C19434736   5.103   6.526   7.108  0.2279 -0.6381  0.4949
  172MOL   C19534737   5.253   6.525   7.085 -0.2521  0.1366  0.1353
  172MOL   H19634738   4.835   6.551   7.180  1.0986 -0.6593 -2.4114
  172MOL   H19734739   4.861   6.508   7.340 -0.3883  0.9061 -0.2160
  172MOL   H19834740   5.097   6.392   7.270 -0.2220 -1.2059 -0.5027
  172MOL   H19934741   5.046   6.588   7.040 -0.4844  0.0531  1.7073
  172MOL   H20034742   5.302   6.491   7.176 -2.4685  0.1890  1.3913
  172MOL   H20134743   5.277   6.627   7.055 -2.8946  0.9113  0.5329
  172MOL   H20234744   5.285   6.468   6.997 -0.2051  0.9332 -0.3618
  173MOL     C134745   6.923   4.723   3.979  1.1697 -0.1489  0.1771
  173MOL     C234746   6.899   4.869   3.955 -0.6299 -0.6034  0.3050
  173MOL     C334747   6.821   4.958   4.027 -0.3360  0.3630 -0.8704
  173MOL     C434748   6.813   5.102   3.987  0.3765  0.7336  0.6155
  173MOL     H534749   6.840   4.667   3.935  1.5718 -0.3865 -0.2814
  173MOL     H634750   6.900   4.716   4.085  0.5842 -3.1107 -0.1007
  173MOL     H734751   6.938   4.903   3.860 -0.7527 -0.7523  0.2004
  173MOL     H834752   6.772   4.923   4.116  0.4117  1.9243  0.1891
  173MOL     H934753   6.801   5.103   3.878  0.7094  1.6949  0.5807
  173MOL    H1034754   6.912   5.142   4.011  1.2218 -1.7653  1.4239
  173MOL    H1134755   7.014   4.676   3.941 -0.6022 -0.5815 -3.7305
  173MOL    C1234756   6.698   5.178   4.059 -0.8305  0.1347 -0.1604
  173MOL    C1334757   6.692   5.312   3.987 -0.3806 -0.9199 -0.5048
  173MOL    C1434758   6.719   5.431   4.046 -0.4605 -0.4759 -0.0771
  173MOL    C1534759   6.735   5.558   3.972 -0.4232 -0.0534 -0.5066
  173MOL    H1634760   6.608   5.117   4.055 -0.7494  0.0350 -0.4290
  173MOL    H1734761   6.719   5.191   4.165 -0.2192 -0.9804 -0.1397
  173MOL    H1834762   6.687   5.310   3.880  2.1542 -0.3078 -0.6806
  173MOL    H1934763   6.729   5.433   4.154  2.1776 -0.4666 -0.2938
  173MOL    H2034764   6.683   5.644   4.014  2.3031  0.6341  1.6467
  173MOL    H2134765   6.694   5.546   3.872  0.8352 -1.8091 -0.8522
  173MOL    C2234766   6.881   5.611   3.965  0.7077 -0.2674 -0.4543
  173MOL    C2334767   6.927   5.678   4.090  1.1431  0.2500 -0.3884
  173MOL    C2434768   6.951   5.814   4.092  0.0274  0.5776 -0.4215
  173MOL    C2534769   6.983   5.900   4.209 -0.4158  0.0289 -0.0669
  173MOL    H2634770   6.948   5.529   3.939  3.0773  0.5669  2.7638
  173MOL    H2734771   6.893   5.676   3.878  2.0402 -2.4020 -1.9167
  173MOL    H2834772   6.927   5.613   4.176 -0.3655 -0.7793 -1.1478
  173MOL    H2934773   6.933   5.870   4.002  2.3778  1.1765 -0.5275
  173MOL    H3034774   6.898   5.959   4.242  0.6952  1.5741  0.1407
  173MOL    H3134775   7.061   5.966   4.171  0.7244 -2.1955 -1.6768
  173MOL    C3234776   7.028   5.817   4.330  0.2801 -0.2435  0.2490
  173MOL    C3334777   7.037   5.904   4.456 -0.1793 -0.5567  0.4909
  173MOL    C3434778   7.149   5.916   4.531  0.0705  0.1059  0.3071
  173MOL    C3534779   7.162   5.999   4.655  0.2579  0.4738 -0.1868
  173MOL    H3634780   6.955   5.745   4.365 -1.2490  0.1216 -2.0527
  173MOL    H3734781   7.127   5.777   4.305 -1.1233 -3.8870  0.2769
  173MOL    H3834782   6.939   5.929   4.494 -0.4175 -2.3678  1.1084
  173MOL    H3934783   7.246   5.889   4.494  0.0776  3.8532 -2.6611
  173MOL    H4034784   7.069   6.048   4.685 -0.4599 -1.3006  0.5173
  173MOL    H4134785   7.232   6.082   4.646 -0.2626  0.9080 -0.2767
  173MOL    C4234786   7.191   5.908   4.770 -0.0523  0.1152 -0.2626
  173MOL    C4334787   7.186   5.974   4.902 -0.5291 -0.6180 -0.3767
  173MOL    C4434788   7.275   5.942   5.004 -0.1697 -0.1480 -0.0472
  173MOL    C4534789   7.270   6.012   5.135  0.2947  0.3847  0.1963
  173MOL    H4634790   7.122   5.825   4.786  0.5403 -0.3032  0.1143
  173MOL    H4734791   7.294   5.877   4.759  0.4540  1.1394  1.4896
  173MOL    H4834792   7.105   6.042   4.922  0.7687  0.9805 -0.3961
  173MOL    H4934793   7.357   5.873   5.004  1.2698  1.5124  1.4758
  173MOL    H5034794   7.296   5.942   5.214  1.3225  0.7786  0.2257
  173MOL    H5134795   7.171   6.049   5.160  0.1690  1.7769 -2.1391
  173MOL    C5234796   7.368   6.130   5.145 -0.0651 -0.3309 -0.5522
  173MOL    C5334797   7.507   6.084   5.155 -0.8584  0.0363 -0.9150
  173MOL    C5434798   7.614   6.163   5.155  0.4317 -0.1256 -0.5076
  173MOL    C5534799   7.766   6.127   5.199  0.1269  0.0136  0.3254
  173MOL    H5634800   7.343   6.194   5.061 -2.0176 -0.0233  0.2230
  173MOL    H5734801   7.345   6.190   5.233  0.9852  0.1354 -0.5970
  173MOL    H5834802   7.526   5.983   5.186  4.3282  0.7645 -1.1930
  173MOL    H5934803   7.603   6.266   5.126 -1.9504 -0.2098  0.0667
  173MOL    H6034804   7.774   6.021   5.219  1.6098 -0.2025 -1.2546
  173MOL    H6134805   7.791   6.179   5.291  1.3116 -1.1203  0.6610
  173MOL    C6234806   7.868   6.160   5.087  0.0210  0.7867 -0.3335
  173MOL    C6334807   7.900   6.304   5.074  0.2137 -0.4505 -0.9368
  173MOL    C6434808   0.023   6.366   5.138  0.9532 -0.4609  0.8234
  173MOL    C6534809   0.064   6.507   5.132  0.2313  0.5045 -0.6681
  173MOL    H6634810   7.957   6.098   5.096 -1.5775 -1.4474  0.5146
  173MOL    H6734811   7.839   6.119   4.990 -2.9569 -1.5158  1.4286
  173MOL    H6834812   7.833   6.361   5.012  0.8334  1.0800 -0.2103
  173MOL    H6934813   0.079   6.312   5.213  1.1091  0.0320  1.0601
  173MOL    H7034814   0.073   6.556   5.229 -1.1609  0.4244 -0.4908
  173MOL    H7134815   7.971   6.557   5.066  0.0658  0.8620 -0.2256
  173MOL    C7234816   0.195   6.525   5.058 -0.8275  0.1846 -0.1765
  173MOL    C7334817   0.308   6.480   5.144 -0.2981  0.3019  0.1379
  173MOL    C7434818   0.413   6.546   5.190  0.2956  0.7199  0.2902
  173MOL    C7534819   0.535   6.488   5.257  0.3364 -0.6443  0.9727
  173MOL    H7634820   0.207   6.479   4.960 -0.0434  0.0122  0.0009
  173MOL    H7734821   0.206   6.632   5.038 -1.4334  0.2541 -0.1576
  173MOL    H7834822   0.311   6.373   5.159 -0.7066  0.2963  0.1768
  173MOL    H7934823   0.426   6.650   5.161 -0.6001  0.9946  0.8398
  173MOL    H8034824   0.524   6.395   5.312 -0.7175  1.0579  3.7036
  173MOL    H8134825   0.563   6.563   5.331 -2.1871  1.6188 -0.2578
  173MOL    C8234826   0.647   6.500   5.155  0.3005 -0.6539  0.0738
  173MOL    C8334827   0.637   6.395   5.051  0.2400 -0.0379 -0.0227
  173MOL    C8434828   0.631   6.426   4.921 -0.3241  0.5092 -0.4982
  173MOL    C8534829   0.607   6.326   4.804 -0.1118 -0.3511 -0.0194
  173MOL    H8634830   0.649   6.601   5.113 -0.4762 -0.7473 -0.1895
  173MOL    H8734831   0.745   6.489   5.201  0.6019 -0.4995 -0.5303
  173MOL    H8834832   0.638   6.290   5.078 -2.6493 -0.8381 -2.6894
  173MOL    H8934833   0.638   6.530   4.893  0.0731  0.6202 -0.0029
  173MOL    H9034834   0.606   6.223   4.839 -0.3665 -0.0223  0.9614
  173MOL    H9134835   0.677   6.345   4.722 -1.6866  1.1983 -1.0431
  173MOL    C9234836   0.475   6.349   4.716 -0.0390 -0.4410 -0.2194
  173MOL    C9334837   0.357   6.276   4.775 -0.3089  0.2484  0.4258
  173MOL    C9434838   0.283   6.183   4.713 -0.9232  1.2997  0.3592
  173MOL    C9534839   0.168   6.101   4.770  0.2153  0.2903  0.0440
  173MOL    H9634840   0.452   6.455   4.722 -0.9606 -0.7348  2.0197
  173MOL    H9734841   0.484   6.319   4.612 -0.9903 -0.2602 -0.3594
  173MOL    H9834842   0.334   6.275   4.880  0.7913  0.0492  0.6667
  173MOL    H9934843   0.303   6.151   4.612 -1.5201 -0.1019  0.6693
  173MOL   H10034844   0.085   6.104   4.699  0.7428  1.1168 -0.5462
  173MOL   H10134845   0.140   6.131   4.870 -0.6729 -2.5765  0.6974
  173MOL   C10234846   0.209   5.954   4.777 -0.3248 -0.0821  0.2048
  173MOL   C10334847   0.091   5.874   4.839  0.5598 -0.9476 -0.2493
  173MOL   C10434848   0.103   5.825   4.966 -0.9174 -0.0837  0.1728
  173MOL   C10534849   7.968   5.752   5.046 -0.8332  0.3831  0.7167
  173MOL   H10634850   0.238   5.920   4.677 -0.7838  0.1320  0.0009
  173MOL   H10734851   0.300   5.950   4.836  0.5581  0.6081 -1.0734
  173MOL   H10834852   0.006   5.854   4.776 -0.1302  0.4915  0.1908
  173MOL   H10934853   0.191   5.838   5.028 -0.5536 -1.3993 -0.0660
  173MOL   H11034854   7.958   5.652   5.004  0.2077  1.0197 -1.0828
  173MOL   H11134855   7.876   5.807   5.028 -0.9572 -0.2705 -0.7372
  173MOL   C11234856   0.009   5.745   5.199  0.5309  0.5502  0.0040
  173MOL   C11334857   0.123   5.654   5.241 -0.6782 -0.1742  0.6324
  173MOL   C11434858   0.220   5.701   5.325  0.0933  0.0563 -0.2833
  173MOL   C11534859   0.319   5.601   5.384  0.3936  0.4443  0.3729
  173MOL   H11634860   0.028   5.840   5.249 -0.2121  0.6868  0.0199
  173MOL   H11734861   7.892   5.720   5.248  0.3465  0.6977 -0.2775
  173MOL   H11834862   0.110   5.555   5.199 -0.7282  0.7277 -1.5522
  173MOL   H11934863   0.228   5.807   5.345 -2.0812  0.6108 -2.1795
  173MOL   H12034864   0.293   5.499   5.354  0.9053 -0.2002  2.0396
  173MOL   H12134865   0.307   5.610   5.492  2.5881 -0.6411  0.7387
  173MOL   C12234866   0.465   5.639   5.348 -0.4496 -0.1429  0.1746
  173MOL   C12334867   0.559   5.530   5.393  0.6547  0.4495 -0.2547
  173MOL   C12434868   0.636   5.465   5.308  0.0223 -0.6104  0.1968
  173MOL   C12534869   0.766   5.385   5.338 -0.4969  0.4385 -1.0142
  173MOL   H12634870   0.470   5.640   5.239  1.6450 -1.4181  0.2436
  173MOL   H12734871   0.496   5.736   5.387 -0.8011 -0.3746  1.0402
  173MOL   H12834872   0.559   5.512   5.500 -0.2454  2.5553  0.1380
  173MOL   H12934873   0.640   5.497   5.205  2.2534 -2.6215 -0.3924
  173MOL   H13034874   0.761   5.311   5.258  1.1292 -2.0251  1.0377
  173MOL   H13134875   0.768   5.331   5.433 -1.3851  1.9742 -0.1154
  173MOL   C13234876   0.902   5.470   5.329 -0.3999 -0.3557 -0.1441
  173MOL   C13334877   1.024   5.380   5.339 -0.2900  0.7855  0.2248
  173MOL   C13434878   1.144   5.393   5.281 -0.6864 -0.1661 -0.0175
  173MOL   C13534879   1.257   5.299   5.322  0.3242 -0.6405 -0.2906
  173MOL   H13634880   0.904   5.516   5.230  2.5937 -2.2870 -1.0428
  173MOL   H13734881   0.912   5.549   5.404  2.8008  0.1574 -1.0538
  173MOL   H13834882   1.013   5.295   5.405 -0.9422  0.1882 -0.6372
  173MOL   H13934883   1.162   5.468   5.206  0.6542 -0.7181 -0.2704
  173MOL   H14034884   1.225   5.234   5.403 -1.7357  1.6465  0.8136
  173MOL   H14134885   1.331   5.365   5.369 -0.2758 -0.1247 -0.0579
  173MOL   C14234886   1.326   5.222   5.214  0.0485 -0.0159 -0.6439
  173MOL   C14334887   1.469   5.194   5.253  0.5911  0.1975 -0.2286
  173MOL   C14434888   1.516   5.069   5.274  0.0029 -0.6324 -0.8426
  173MOL   C14534889   1.653   5.038   5.321 -0.7850  0.3595 -0.7630
  173MOL   H14634890   1.279   5.124   5.206 -1.4305  0.7030 -1.0004
  173MOL   H14734891   1.324   5.273   5.118 -0.3099 -0.9503 -1.1396
  173MOL   H14834892   1.529   5.283   5.264  0.8955 -0.1444  0.9509
  173MOL   H14934893   1.450   4.986   5.255 -1.0361  0.1954 -0.9302
  173MOL   H15034894   1.714   5.128   5.325 -1.3992  0.7197  0.5925
  173MOL   H15134895   1.707   4.978   5.248 -0.1553  1.6156 -1.3390
  173MOL   C15234896   1.647   4.960   5.452 -0.4630 -0.0249  0.2386
  173MOL   C15334897   1.774   4.969   5.528  0.2580  0.1881 -0.1670
  173MOL   C15434898   1.865   4.872   5.538 -0.0193  0.1726  0.0160
  173MOL   C15534899   1.993   4.868   5.620  0.1620  0.0775  0.1248
  173MOL   H15634900   1.574   5.008   5.518  1.8457  0.8356  2.2665
  173MOL   H15734901   1.621   4.855   5.447  1.1714 -0.4015 -0.5500
  173MOL   H15834902   1.797   5.061   5.579 -1.4495  1.0007 -0.8079
  173MOL   H15934903   1.853   4.783   5.477  1.4709  0.6093 -0.9460
  173MOL   H16034904   2.079   4.883   5.554 -0.5479  1.1846 -0.5681
  173MOL   H16134905   2.012   4.764   5.644  3.6486  0.2891 -1.4572
  173MOL   C16234906   2.004   4.953   5.743 -0.1837  0.3266 -0.2372
  173MOL   C16334907   1.888   4.928   5.831 -0.5186  0.1263 -0.7599
  173MOL   C16434908   1.831   5.017   5.908  0.1237 -0.2693  0.1718
  173MOL   C16534909   1.711   5.000   5.999 -0.3692 -0.2702  0.8939
  173MOL   H16634910   2.093   4.931   5.802  1.0709 -0.2057 -2.2671
  173MOL   H16734911   2.025   5.056   5.715  2.7332 -0.1580  0.0294
  173MOL   H16834912   1.847   4.828   5.825 -1.1568  0.3582 -0.3930
  173MOL   H16934913   1.869   5.117   5.898 -0.9145 -0.0711 -2.1807
  173MOL   H17034914   1.737   5.037   6.098  0.4225  2.0699 -0.1304
  173MOL   H17134915   1.676   4.900   6.021 -1.7503  0.1159  0.5072
  173MOL   C17234916   1.599   5.083   5.945  0.7339  0.3597 -0.0487
  173MOL   C17334917   1.536   5.028   5.820  0.4556 -0.0645  0.2806
  173MOL   C17434918   1.404   4.999   5.821  0.3513 -0.1744  0.5361
  173MOL   C17534919   1.334   4.915   5.716  1.1507 -0.6042 -0.1812
  173MOL   H17634920   1.525   5.083   6.025 -1.1320  1.7336 -1.7272
  173MOL   H17734921   1.631   5.187   5.936  0.9782  0.1728 -1.3683
  173MOL   H17834922   1.597   5.002   5.734  1.7710  1.1692  0.8265
  173MOL   H17934923   1.347   5.036   5.905  1.1212  2.9999 -0.2523
  173MOL   H18034924   1.297   4.826   5.768 -1.6704 -0.2155 -1.4376
  173MOL   H18134925   1.399   4.874   5.639 -1.1470 -0.6259 -2.1406
  173MOL   C18234926   1.220   4.992   5.671 -0.3603 -0.3613 -0.2665
  173MOL   C18334927   1.138   4.928   5.560  0.1730  0.3329 -0.3123
  173MOL   C18434928   1.157   4.811   5.494  0.2079 -0.0451 -1.0914
  173MOL   C18534929   1.079   4.770   5.369 -0.2671 -0.3429 -0.4239
  173MOL   H18634930   1.158   5.004   5.760  0.1519 -2.6055  0.4245
  173MOL   H18734931   1.241   5.094   5.636 -0.9197  0.5470  1.9637
  173MOL   H18834932   1.061   4.999   5.535  0.3670  0.1772 -1.3462
  173MOL   H18934933   1.241   4.752   5.525  2.3060  2.7460 -1.3162
  173MOL   H19034934   1.005   4.691   5.386  0.0917 -1.0529 -2.0000
  173MOL   H19134935   1.152   4.727   5.299  0.7514  1.1778 -0.3011
  173MOL   C19234936   0.998   4.881   5.298 -0.5057 -0.6469 -0.0506
  173MOL   C19334937   0.951   4.829   5.166  0.4213  0.3857  0.3821
  173MOL   C19434938   0.824   4.792   5.139  0.6210 -0.4454 -0.5483
  173MOL   C19534939   0.785   4.763   5.000 -1.0744 -0.1660 -0.0845
  173MOL   H19634940   0.917   4.932   5.350  0.3330 -0.3512  0.9741
  173MOL   H19734941   1.057   4.968   5.271 -0.3119 -0.4410  1.0237
  173MOL   H19834942   1.028   4.829   5.090 -1.3352 -0.8758 -1.4676
  173MOL   H19934943   0.748   4.793   5.216  1.6287  1.5689  0.4663
  173MOL   H20034944   0.680   4.751   4.972 -0.9731  2.4255 -1.7648
  173MOL   H20134945   0.844   4.676   4.972 -1.7329 -1.1690  1.5897
  173MOL   H20234946   0.808   4.856   4.947  2.4603 -0.0993  1.3939
  174MOL     C134947   1.357   2.591   0.634  0.2287 -0.3527 -0.6402
  174MOL     C234948   1.347   2.655   0.774  0.6436  0.6076  0.3956
  174MOL     C334949   1.232   2.656   0.845 -0.4566  0.4763 -0.3742
  174MOL     C434950   1.215   2.722   0.980 -0.3542  0.1376 -0.4477
  174MOL     H534951   1.434   2.514   0.628  0.6960  0.2798 -3.0970
  174MOL     H634952   1.385   2.665   0.559 -1.2979  0.6219 -0.2694
  174MOL     H734953   1.439   2.700   0.808  0.2394  1.3174  0.5688
  174MOL     H834954   1.142   2.607   0.810 -0.4104  0.6734 -0.7680
  174MOL     H934955   1.133   2.792   0.964 -0.0618  0.7459  0.6788
  174MOL    H1034956   1.292   2.790   1.017 -0.0850  0.6140 -1.8544
  174MOL    H1134957   1.258   2.548   0.617  0.5949 -1.6824  0.4287
  174MOL    C1234958   1.185   2.630   1.101  0.1126  0.5260 -0.3062
  174MOL    C1334959   1.283   2.532   1.137  0.0853  0.3859  0.1641
  174MOL    C1434960   1.348   2.530   1.251 -0.3419 -0.1176  0.2709
  174MOL    C1534961   1.459   2.434   1.289 -0.0795  0.0620 -0.6589
  174MOL    H1634962   1.163   2.687   1.191 -1.0860 -1.3571  0.6299
  174MOL    H1734963   1.087   2.590   1.073  0.0418 -0.6003  1.4613
  174MOL    H1834964   1.292   2.464   1.053  0.6756  0.6006  0.0519
  174MOL    H1934965   1.332   2.608   1.324  2.0043 -0.6320  1.4046
  174MOL    H2034966   1.521   2.431   1.199  1.4646  2.0435  0.2994
  174MOL    H2134967   1.405   2.341   1.311 -0.5743  0.3998 -0.4369
  174MOL    C2234968   1.552   2.493   1.392 -0.4373 -0.6012 -0.1999
  174MOL    C2334969   1.674   2.394   1.417 -0.2964 -0.5831 -0.3594
  174MOL    C2434970   1.795   2.441   1.396 -0.4886  0.1026  0.1988
  174MOL    C2534971   1.917   2.358   1.402  0.4765 -0.4484 -0.2252
  174MOL    H2634972   1.601   2.585   1.362 -0.3371 -0.7552 -0.5028
  174MOL    H2734973   1.502   2.521   1.485 -0.6921  1.7723 -1.0162
  174MOL    H2834974   1.656   2.289   1.434 -1.5121 -0.3722 -0.3058
  174MOL    H2934975   1.807   2.545   1.372 -3.3805  0.4953  0.2964
  174MOL    H3034976   1.969   2.359   1.306  3.8861  0.0404  1.5334
  174MOL    H3134977   1.891   2.253   1.416 -1.7654  0.3188  1.6283
  174MOL    C3234978   2.021   2.411   1.503 -0.0473  0.1185  0.0479
  174MOL    C3334979   2.144   2.329   1.519  0.2884  0.2546 -0.5044
  174MOL    C3434980   2.180   2.287   1.642  0.4351  0.6671 -0.8160
  174MOL    C3534981   2.295   2.197   1.673 -0.9081  0.1906 -0.8495
  174MOL    H3634982   2.051   2.516   1.493  0.6493 -0.3509 -3.1144
  174MOL    H3734983   1.974   2.405   1.602 -0.6902  1.4206 -0.1565
  174MOL    H3834984   2.196   2.307   1.427 -0.3655  1.0715 -1.0757
  174MOL    H3934985   2.119   2.317   1.727 -1.0805 -0.7530 -1.3744
  174MOL    H4034986   2.354   2.254   1.745  0.9581 -0.8856 -1.4714
  174MOL    H4134987   2.359   2.190   1.585 -0.2962  1.9868 -0.5732
  174MOL    C4234988   2.262   2.072   1.742 -0.7053  0.6044 -0.0001
  174MOL    C4334989   2.374   1.968   1.742 -0.1946  0.1775 -0.0051
  174MOL    C4434990   2.406   1.895   1.854  0.3455  0.4479 -0.6811
  174MOL    C4534991   2.498   1.778   1.847  0.6451  0.1324  0.8572
  174MOL    H4634992   2.214   2.110   1.832 -2.0689  0.7561 -0.7815
  174MOL    H4734993   2.182   2.021   1.689  0.4879 -2.3483  0.9404
  174MOL    H4834994   2.424   1.942   1.649 -3.5118 -3.0666 -0.9823
  174MOL    H4934995   2.363   1.925   1.948  2.6484  0.4512  0.4217
  174MOL    H5034996   2.578   1.791   1.920  0.0263  0.8711  1.4105
  174MOL    H5134997   2.554   1.768   1.754  1.0854  0.6394  1.0683
  174MOL    C5234998   2.424   1.644   1.868  0.4046 -0.3246  0.0750
  174MOL    C5334999   2.509   1.523   1.839 -0.2490 -0.1206  0.5080
  174MOL    C5435000   2.642   1.530   1.818 -0.1762 -0.0024 -0.4628
  174MOL    C5535001   2.735   1.417   1.782 -0.3563 -0.2840 -0.1210
  174MOL    H5635002   2.397   1.640   1.974 -0.6082 -2.6442 -0.2257
  174MOL    H5735003   2.343   1.626   1.798  0.6282 -0.9151 -0.0342
  174MOL    H5835004   2.459   1.428   1.834  1.2923 -0.8711 -1.8874
  174MOL    H5935005   2.690   1.626   1.826  0.6543 -0.5567  1.6095
  174MOL    H6035006   2.773   1.448   1.685 -2.1939  0.4118 -0.6312
  174MOL    H6135007   2.675   1.327   1.779  0.9817 -1.3231  2.3590
  174MOL    C6235008   2.844   1.399   1.891  0.0044 -0.4455  0.1824
  174MOL    C6335009   2.926   1.275   1.888 -0.2505 -0.0763  0.5284
  174MOL    C6435010   2.955   1.193   1.992 -0.0856 -0.2150  0.2768
  174MOL    C6535011   3.043   1.066   2.003  0.2556 -0.5327 -0.3154
  174MOL    H6635012   2.901   1.492   1.887 -1.2074  0.3946  1.6959
  174MOL    H6735013   2.801   1.407   1.991  0.2699  1.7491  0.1455
  174MOL    H6835014   2.947   1.261   1.783 -0.9100  3.0270 -0.0691
  174MOL    H6935015   2.898   1.212   2.082 -0.4257 -1.0657  0.2551
  174MOL    H7035016   3.060   1.012   1.910 -0.4011 -0.5556 -0.4262
  174MOL    H7135017   2.983   0.992   2.055 -1.7360 -0.0220 -1.8169
  174MOL    C7235018   3.175   1.113   2.076  0.7166 -1.0134 -0.5541
  174MOL    C7335019   3.246   0.987   2.125 -0.1423  0.7421  0.1034
  174MOL    C7435020   3.367   0.950   2.080  0.3091 -0.1287 -0.0708
  174MOL    C7535021   3.433   0.818   2.119  0.6019  0.3277 -0.6897
  174MOL    H7635022   3.235   1.172   2.007 -2.7975  2.7319 -0.5975
  174MOL    H7735023   3.145   1.167   2.166  0.1998  0.3084 -1.5025
  174MOL    H7835024   3.183   0.930   2.193  2.0414  0.0195  1.5871
  174MOL    H7935025   3.426   1.019   2.021  0.3499 -3.9235 -4.7649
  174MOL    H8035026   3.384   0.786   2.211  0.9571 -0.7979 -0.8881
  174MOL    H8135027   3.535   0.841   2.149 -0.0031  0.2518  1.4781
  174MOL    C8235028   3.400   0.710   2.018 -0.0093  0.9243  0.0113
  174MOL    C8335029   3.247   0.684   2.000  0.0580 -0.4074  0.3163
  174MOL    C8435030   3.177   0.699   1.882 -0.1164  0.4269 -0.2194
  174MOL    C8535031   3.030   0.661   1.865 -0.7678  0.7069  1.1112
  174MOL    H8635032   3.457   0.729   1.927  1.6375  1.2531  1.0907
  174MOL    H8735033   3.436   0.614   2.054 -2.5748  0.3145  1.0211
  174MOL    H8835034   3.199   0.644   2.087  0.5072  0.4703  0.9770
  174MOL    H8935035   3.234   0.738   1.799  0.6891  0.6579  0.4384
  174MOL    H9035036   2.973   0.751   1.842 -0.8247  0.3205 -0.2810
  174MOL    H9135037   2.997   0.644   1.968  0.1078 -1.9114  1.0057
  174MOL    C9235038   3.001   0.526   1.790 -0.9008 -0.6379 -1.1705
  174MOL    C9335039   2.865   0.476   1.775  0.1394 -0.0443 -0.2355
  174MOL    C9435040   2.813   0.376   1.849 -0.4581  0.1249  0.6636
  174MOL    C9535041   2.667   0.355   1.846  0.3297  0.3211 -0.0256
  174MOL    H9635042   3.041   0.548   1.691  2.8162 -0.0475  0.3846
  174MOL    H9735043   3.065   0.446   1.826  0.5820  1.0689  0.0174
  174MOL    H9835044   2.800   0.537   1.714  0.1529 -1.2046 -1.4210
  174MOL    H9935045   2.869   0.322   1.925  0.6442 -1.3217 -1.1472
  174MOL   H10035046   2.647   0.281   1.769  0.3873 -1.5048  1.6814
  174MOL   H10135047   2.620   0.448   1.812 -1.0649 -0.1449  0.5896
  174MOL   C10235048   2.612   0.303   1.984  0.4220  0.0469 -0.0980
  174MOL   C10335049   2.477   0.235   1.967  0.2436 -0.2762  0.0661
  174MOL   C10435050   2.457   0.107   1.988 -0.2716  0.5907  0.1899
  174MOL   C10535051   2.328   0.027   1.967 -0.0207  0.1279 -0.5680
  174MOL   H10635052   2.678   0.229   2.029  1.5620 -0.2497 -2.1944
  174MOL   H10735053   2.606   0.385   2.056  0.5137 -0.9358  1.0591
  174MOL   H10835054   2.390   0.290   1.933 -1.0613 -0.3141  3.1542
  174MOL   H10935055   2.542   0.047   2.016 -0.1454 -0.9590 -3.1830
  174MOL   H11035056   2.365   7.906   1.935  1.1214  0.1042  0.7575
  174MOL   H11135057   2.257   0.071   1.897 -0.9909  1.5162  1.2597
  174MOL   C11235058   2.242   0.011   2.095  0.4887  0.0073 -0.3534
  174MOL   C11335059   2.138   7.883   2.065 -0.1862 -0.3947  0.5578
  174MOL   C11435060   2.004   7.893   2.079 -0.2641  0.1361  0.3295
  174MOL   C11535061   1.898   7.790   2.037 -0.0178  0.5251 -0.4635
  174MOL   H11635062   2.303   7.950   2.177  2.3593 -0.6255 -1.9918
  174MOL   H11735063   2.185   0.101   2.119  1.5535  0.7988 -0.7494
  174MOL   H11835064   2.163   7.788   2.021  2.3923 -0.2174  1.6036
  174MOL   H11935065   1.963   0.008   2.117 -0.2831  0.8328 -1.3196
  174MOL   H12035066   1.938   7.711   1.975  1.6823  1.6371 -0.8340
  174MOL   H12135067   1.823   7.832   1.969 -0.1593 -0.0927 -0.6870
  174MOL   C12235068   1.811   7.740   2.165 -0.8914 -0.6802 -0.4991
  174MOL   C12335069   1.687   7.669   2.115 -0.3661 -0.3013 -0.1751
  174MOL   C12435070   1.667   7.539   2.143  0.2005  1.0581  0.2442
  174MOL   C12535071   1.544   7.460   2.109 -0.3705  1.0003  0.0505
  174MOL   H12635072   1.871   7.673   2.227 -0.3805  0.1897 -0.0331
  174MOL   H12735073   1.783   7.837   2.206  0.4466 -0.7283  0.5774
  174MOL   H12835074   1.619   7.734   2.061 -2.1598 -0.2955  2.0445
  174MOL   H12935075   1.734   7.473   2.197 -0.3479  0.3338  0.0404
  174MOL   H13035076   1.576   7.360   2.082 -0.6517  0.7424  0.6807
  174MOL   H13135077   1.501   7.512   2.022 -1.6040 -0.5173 -0.2648
  174MOL   C13235078   1.448   7.470   2.231 -0.3185  0.2985  0.1850
  174MOL   C13335079   1.316   7.410   2.191 -0.0042  0.7269 -0.0679
  174MOL   C13435080   1.199   7.468   2.218  0.0712 -0.3204 -0.4484
  174MOL   C13535081   1.061   7.411   2.185  0.2123 -0.3728 -0.1960
  174MOL   H13635082   1.477   7.420   2.323  2.1138  1.9245  0.3313
  174MOL   H13735083   1.427   7.572   2.262  1.0611  0.1755  1.5570
  174MOL   H13835084   1.321   7.313   2.143 -1.4345  0.8444 -0.4611
  174MOL   H13935085   1.196   7.556   2.280 -2.0237 -0.9657  0.3861
  174MOL   H14035086   1.009   7.410   2.281 -0.3899  0.5351 -0.5041
  174MOL   H14135087   1.074   7.306   2.158  1.8887 -0.9836  2.7112
  174MOL   C14235088   0.983   7.492   2.083 -0.5467 -0.5220 -0.3913
  174MOL   C14335089   0.860   7.409   2.036  0.6349 -0.2279 -0.8806
  174MOL   C14435090   0.832   7.388   1.904 -0.1927  0.9260  0.4279
  174MOL   C14535091   0.703   7.326   1.861 -0.3680 -0.3169 -0.2404
  174MOL   H14635092   0.947   7.588   2.121 -1.0408 -0.9348  0.1954
  174MOL   H14735093   1.050   7.520   2.002 -0.1205 -0.3415  0.0281
  174MOL   H14835094   0.795   7.372   2.114  0.8972  1.5725  0.2312
  174MOL   H14935095   0.902   7.432   1.834  1.4247  1.2638  2.2124
  174MOL   H15035096   0.666   7.261   1.940  1.1521 -1.1987 -0.2377
  174MOL   H15135097   0.738   7.255   1.786  2.2160  2.2861 -1.6288
  174MOL   C15235098   0.608   7.434   1.806 -0.3359 -0.6589  0.1986
  174MOL   C15335099   0.498   7.378   1.727 -0.3213 -0.1499  0.1767
  174MOL   C15435100   0.510   7.309   1.614 -0.1030  0.6442 -0.3692
  174MOL   C15535101   0.392   7.254   1.536 -0.0042  0.0765  0.5026
  174MOL   H15635102   0.567   7.482   1.895 -1.9797  0.2206 -1.0060
  174MOL   H15735103   0.654   7.517   1.752 -0.0893 -0.2601  1.0081
  174MOL   H15835104   0.399   7.394   1.764  0.1637  0.9530  1.0101
  174MOL   H15935105   0.605   7.291   1.565  0.1343  1.8796 -0.3857
  174MOL   H16035106   0.294   7.278   1.577 -0.0767 -1.7498  1.4268
  174MOL   H16135107   0.405   7.146   1.540 -1.1488 -0.0336  1.5664
  174MOL   C16235108   0.399   7.316   1.398 -0.5205 -0.0474 -0.1201
  174MOL   C16335109   0.281   7.283   1.309 -0.6216 -0.4355 -0.4379
  174MOL   C16435110   0.193   7.376   1.258 -0.6835  0.4724  0.6909
  174MOL   C16535111   0.065   7.357   1.174  0.0668 -0.6128 -0.6809
  174MOL   H16635112   0.390   7.424   1.414  0.5509 -0.0742  0.7100
  174MOL   H16735113   0.496   7.299   1.351 -0.1782 -1.3177  1.0124
  174MOL   H16835114   0.257   7.178   1.308 -1.7870 -0.1808 -0.5573
  174MOL   H16935115   0.216   7.482   1.259 -1.6728  0.7000  0.1932
  174MOL   H17035116   0.077   7.412   1.080 -2.3355  1.2275  0.0407
  174MOL   H17135117   7.959   7.389   1.236 -1.4039 -4.0619 -0.7710
  174MOL   C17235118   0.044   7.209   1.134 -0.0934 -0.3538 -0.3594
  174MOL   C17335119   7.906   7.187   1.040 -0.3820  0.2656 -0.4271
  174MOL   C17435120   7.916   7.122   0.926 -0.2549  0.4678 -0.0561
  174MOL   C17535121   7.795   7.100   0.838  0.0333 -0.0021  0.0791
  174MOL   H17635122   0.140   7.174   1.095  1.0846  0.3729  1.8080
  174MOL   H17735123   0.024   7.152   1.224  0.5245  1.1447  0.7529
  174MOL   H17835124   7.813   7.228   1.075 -0.7057 -0.9276  0.1298
  174MOL   H17935125   0.028   7.069   0.895 -0.9067 -1.2102  0.8956
  174MOL   H18035126   7.731   7.182   0.868  1.2015  1.0897 -0.3358
  174MOL   H18135127   7.751   7.003   0.860  0.2955  0.0767  0.9820
  174MOL   C18235128   7.833   7.110   0.691 -0.6548  0.2517  0.2632
  174MOL   C18335129   7.746   7.015   0.609  0.1460  0.1296  0.2532
  174MOL   C18435130   7.684   7.053   0.494 -0.0074 -0.1821 -0.8299
  174MOL   C18535131   7.589   6.968   0.414  0.0967 -0.1299  0.7389
  174MOL   H18635132   7.824   7.211   0.650 -2.0103 -0.3418 -0.9440
  174MOL   H18735133   7.933   7.069   0.680 -1.1539 -0.8807 -0.0998
  174MOL   H18835134   7.741   6.912   0.641 -0.6030 -0.6644 -2.2438
  174MOL   H18935135   7.701   7.153   0.455  0.0517  0.6063  1.1565
  174MOL   H19035136   7.495   7.021   0.399  0.2375 -0.0232  0.2176
  174MOL   H19135137   7.559   6.884   0.477  1.4307 -0.6388  0.7211
  174MOL   C19235138   7.653   6.936   0.281  0.2126 -0.3323 -0.6120
  174MOL   C19335139   7.558   6.850   0.206  0.8909 -0.7466  0.5163
  174MOL   C19435140   7.513   6.865   0.082 -0.2889 -0.2664  0.6843
  174MOL   C19535141   7.416   6.767   0.018 -0.0399 -0.5164  0.1246
  174MOL   H19635142   7.700   7.020   0.230 -2.2785  0.8262 -1.0719
  174MOL   H19735143   7.744   6.878   0.294  0.6150  0.3882 -0.1767
  174MOL   H19835144   7.517   6.769   0.264  0.1931 -2.4976 -2.3108
  174MOL   H19935145   7.549   6.942   0.016  0.4532 -0.0601  1.3234
  174MOL   H20035146   7.326   6.823   7.970 -1.1579 -2.5854 -0.5842
  174MOL   H20135147   7.398   6.683   0.086 -0.2795 -0.3398  0.2808
  174MOL   H20235148   7.461   6.722   7.907 -2.8580 -1.6850 -0.7919
  175MOL     C135149   3.703   6.633   0.535  0.2527  0.2523 -0.0050
  175MOL     C235150   3.781   6.688   0.648 -0.3011 -0.2352  0.4214
  175MOL     C335151   3.765   6.672   0.776  0.3324  0.0963 -0.1231
  175MOL     C435152   3.855   6.729   0.886 -0.4142  0.0397 -0.0430
  175MOL     H535153   3.767   6.583   0.462 -0.6569 -1.7984  0.5814
  175MOL     H635154   3.646   6.719   0.500  0.7138  0.8703  0.7437
  175MOL     H735155   3.866   6.747   0.616 -1.8342  1.0736 -1.3921
  175MOL     H835156   3.687   6.607   0.812  0.1145 -0.0393 -0.8409
  175MOL     H935157   3.781   6.785   0.943  1.2027  0.8366  1.3011
  175MOL    H1035158   3.927   6.803   0.851  1.3330 -2.2492 -1.4255
  175MOL    H1135159   3.631   6.555   0.560  0.6926 -0.0748  0.2336
  175MOL    C1235160   3.928   6.626   0.975 -0.7089 -0.1072  0.5752
  175MOL    C1335161   4.071   6.665   0.988 -0.4095 -0.6737 -0.0495
  175MOL    C1435162   4.138   6.679   1.103 -0.2100 -0.2538  0.1270
  175MOL    C1535163   4.278   6.705   1.127 -0.2763  0.2151 -0.4455
  175MOL    H1635164   3.873   6.613   1.067 -2.8865 -0.1631 -0.7122
  175MOL    H1735165   3.924   6.527   0.930 -0.7275  0.5701 -0.9464
  175MOL    H1835166   4.130   6.645   0.900  2.7653 -0.3028  1.8773
  175MOL    H1935167   4.075   6.682   1.191  0.0734  1.4539  0.2960
  175MOL    H2035168   4.284   6.792   1.194  0.0901 -0.4916  0.4607
  175MOL    H2135169   4.313   6.739   1.030  1.9906  0.1687  0.3021
  175MOL    C2235170   4.345   6.574   1.170  0.6477  0.2218  0.5110
  175MOL    C2335171   4.498   6.574   1.199  0.2722  0.5317 -0.5963
  175MOL    C2435172   4.548   6.530   1.317 -0.0548 -0.0187 -0.3288
  175MOL    C2535173   4.683   6.541   1.368 -0.0414 -0.3178  0.4897
  175MOL    H2635174   4.290   6.521   1.248  1.5885 -3.0516 -0.9259
  175MOL    H2735175   4.321   6.501   1.092 -0.4012 -0.3373  1.3532
  175MOL    H2835176   4.560   6.634   1.134  0.7093 -0.2674 -0.9122
  175MOL    H2935177   4.488   6.479   1.392  2.2060 -0.7850  0.9974
  175MOL    H3035178   4.686   6.624   1.438  0.7447  0.9778 -1.0671
  175MOL    H3135179   4.745   6.576   1.286 -1.9332  1.2216 -0.3238
  175MOL    C3235180   4.733   6.412   1.436 -0.0729 -0.0152 -0.3146
  175MOL    C3335181   4.738   6.414   1.586 -0.0103  0.3763  0.7758
  175MOL    C3435182   4.829   6.479   1.668  0.0131  0.1014 -0.0125
  175MOL    C3535183   4.810   6.478   1.821  0.2116 -0.4702  0.1197
  175MOL    H3635184   4.661   6.333   1.416 -0.6866 -0.2271  2.5095
  175MOL    H3735185   4.825   6.377   1.390 -0.8165 -1.4775 -0.7222
  175MOL    H3835186   4.654   6.368   1.636  0.0962 -0.6501  0.0027
  175MOL    H3935187   4.903   6.548   1.630  0.8087 -0.2182  0.9400
  175MOL    H4035188   4.788   6.375   1.848 -1.6313  0.1871  1.2595
  175MOL    H4135189   4.716   6.526   1.846  1.4403  0.5769  2.9837
  175MOL    C4235190   4.915   6.553   1.906 -0.4029 -0.9090  0.1376
  175MOL    C4335191   4.874   6.593   2.044 -0.2015 -0.3554  0.0764
  175MOL    C4435192   4.936   6.554   2.153  0.5490  1.0657 -0.7730
  175MOL    C4535193   4.903   6.606   2.294 -0.5329  0.1841 -0.5505
  175MOL    H4635194   5.007   6.494   1.914  1.3039  1.5536 -0.7129
  175MOL    H4735195   4.941   6.642   1.849 -0.0230 -1.7977 -1.0935
  175MOL    H4835196   4.786   6.656   2.054 -0.3480 -0.6315  0.5139
  175MOL    H4935197   5.026   6.496   2.139  2.3622  3.7050 -0.3307
  175MOL    H5035198   4.915   6.521   2.362 -1.7081  0.7807  0.4221
  175MOL    H5135199   4.800   6.639   2.304 -0.7429 -0.6340  0.0655
  175MOL    C5235200   4.984   6.721   2.353 -0.7491 -0.7055  0.0562
  175MOL    C5335201   4.987   6.855   2.264 -0.7678  0.1954  0.1554
  175MOL    C5435202   4.977   6.977   2.325  0.2529 -0.6729 -0.2178
  175MOL    C5535203   4.966   7.109   2.241  0.0347  0.1686 -0.6386
  175MOL    H5635204   4.942   6.750   2.449 -2.0621  1.0999 -1.0335
  175MOL    H5735205   5.088   6.697   2.373 -0.3781  0.2055 -0.7409
  175MOL    H5835206   4.993   6.837   2.158  1.8767 -1.1855  0.5166
  175MOL    H5935207   4.969   6.976   2.432  2.2012  0.2901 -0.0477
  175MOL    H6035208   4.978   7.089   2.135  2.7493  0.0056 -0.3433
  175MOL    H6135209   5.051   7.170   2.274 -1.1658  1.4504  0.1564
  175MOL    C6235210   4.830   7.182   2.249  0.1324 -0.5458  0.1737
  175MOL    C6335211   4.824   7.297   2.159 -0.3411  0.0341  0.2287
  175MOL    C6435212   4.861   7.419   2.202 -0.5209  0.4446 -0.3031
  175MOL    C6535213   4.879   7.537   2.110 -0.2270 -0.2741  0.5825
  175MOL    H6635214   4.739   7.124   2.230  0.8384 -0.9039 -2.1696
  175MOL    H6735215   4.817   7.222   2.350  2.8821  3.5312 -0.9687
  175MOL    H6835216   4.816   7.276   2.054  0.4024 -0.2641  0.2301
  175MOL    H6935217   4.886   7.429   2.307  2.0806  0.9190 -0.9374
  175MOL    H7035218   4.786   7.593   2.118 -0.4815 -0.8118  1.4643
  175MOL    H7135219   4.901   7.510   2.007 -0.1145  0.2223  0.4740
  175MOL    C7235220   4.991   7.635   2.158  0.2289 -0.6707  0.3181
  175MOL    C7335221   5.005   7.769   2.088  1.1308  0.0122  0.2247
  175MOL    C7435222   4.982   7.887   2.148 -0.4056 -0.8132 -0.6520
  175MOL    C7535223   5.000   0.050   2.093 -0.2223  0.1845  1.1103
  175MOL    H7635224   4.979   7.656   2.264 -1.0438  0.1194  0.0313
  175MOL    H7735225   5.092   7.596   2.170  0.3938 -0.3927 -0.1385
  175MOL    H7835226   5.042   7.770   1.986 -2.1526  0.7197 -1.0416
  175MOL    H7935227   4.952   7.889   2.252  1.1239  0.5569 -0.2095
  175MOL    H8035228   4.912   0.114   2.087  0.4455  1.0148 -0.2903
  175MOL    H8135229   5.027   0.042   1.987 -2.7926 -0.3012  0.4755
  175MOL    C8235230   5.109   0.125   2.180 -0.7965 -0.5430  0.7291
  175MOL    C8335231   5.143   0.268   2.123 -0.1783  0.3467 -0.6736
  175MOL    C8435232   5.111   0.383   2.182 -0.0876  0.0982 -0.1895
  175MOL    C8535233   5.137   0.520   2.119  0.0852 -0.4906  0.0315
  175MOL    H8635234   5.066   0.134   2.280 -1.8150  0.8394  0.1878
  175MOL    H8735235   5.189   0.052   2.182 -0.0392  0.1762 -1.5388
  175MOL    H8835236   5.197   0.279   2.030 -0.3872  2.9734 -0.5225
  175MOL    H8935237   5.039   0.385   2.262 -2.4018 -0.0237 -2.1974
  175MOL    H9035238   5.153   0.580   2.209  0.6382  0.0707 -0.4350
  175MOL    H9135239   5.049   0.565   2.072 -0.7900 -1.5601  0.6268
  175MOL    C9235240   5.250   0.540   2.019  0.2724  0.2862 -0.3242
  175MOL    C9335241   5.275   0.681   1.987  0.1858 -0.1626  0.0913
  175MOL    C9435242   5.261   0.725   1.864  0.6276  0.0682  0.2578
  175MOL    C9535243   5.239   0.873   1.822  0.3682  0.2791 -0.3030
  175MOL    H9635244   5.337   0.484   2.055  1.4086  3.4879  2.1663
  175MOL    H9735245   5.213   0.495   1.927  0.3462 -0.8293  0.1781
  175MOL    H9835246   5.283   0.745   2.074  2.0778 -2.5950  1.7604
  175MOL    H9935247   5.250   0.656   1.781  0.9401  2.9391 -2.2625
  175MOL   H10035248   5.310   0.889   1.740  1.9117 -2.1048  0.5072
  175MOL   H10135249   5.266   0.944   1.900 -1.1400  0.2936  0.2245
  175MOL   C10235250   5.090   0.887   1.782  0.0578 -0.4664 -0.6935
  175MOL   C10335251   5.039   1.029   1.759  0.2419  0.4350  0.6078
  175MOL   C10435252   5.001   1.080   1.636 -0.2167  0.6101 -0.6275
  175MOL   C10535253   4.930   1.210   1.607 -0.8340 -0.7381 -0.5093
  175MOL   H10635254   5.074   0.835   1.687  3.4390  2.3956 -2.9772
  175MOL   H10735255   5.019   0.842   1.852  1.2565 -2.2878 -0.5929
  175MOL   H10835256   5.007   1.078   1.850 -3.5244 -1.5057  0.4138
  175MOL   H10935257   5.021   1.019   1.548 -1.7854  0.6593 -1.0251
  175MOL   H11035258   4.917   1.283   1.687 -0.0136 -0.9066 -0.2191
  175MOL   H11135259   4.835   1.181   1.561 -1.1489 -2.2255  1.0021
  175MOL   C11235260   5.009   1.280   1.487  0.1987  0.3792 -0.0287
  175MOL   C11335261   4.942   1.413   1.457 -0.6178 -0.3915 -0.0380
  175MOL   C11435262   4.852   1.429   1.357 -0.2616 -0.3517  0.0856
  175MOL   C11535263   4.805   1.566   1.316 -0.6209 -0.5555 -0.5237
  175MOL   H11635264   5.114   1.301   1.511  0.6444  0.4496 -1.9594
  175MOL   H11735265   5.002   1.224   1.394  1.1812  0.1507  0.0265
  175MOL   H11835266   4.988   1.501   1.500  0.2995 -0.6515 -0.4668
  175MOL   H11935267   4.818   1.341   1.304 -1.5324 -1.7985  3.1938
  175MOL   H12035268   4.801   1.552   1.208 -0.2967 -2.2057 -0.3327
  175MOL   H12135269   4.882   1.640   1.336 -0.2398 -1.1958  0.3822
  175MOL   C12235270   4.671   1.607   1.373 -0.2206 -0.6334 -0.4987
  175MOL   C12335271   4.623   1.733   1.314  0.5206  0.5427 -0.5373
  175MOL   C12435272   4.629   1.854   1.369 -0.2860 -0.1689 -0.7774
  175MOL   C12535273   4.579   1.976   1.299  0.0185  0.1739  0.3245
  175MOL   H12635274   4.591   1.537   1.349 -1.1703  0.0220  0.7169
  175MOL   H12735275   4.662   1.605   1.481  0.6426 -1.5704 -0.4374
  175MOL   H12835276   4.600   1.722   1.209  1.2289 -2.2377 -0.4452
  175MOL   H12935277   4.666   1.868   1.470 -0.1861  0.2858 -0.8780
  175MOL   H13035278   4.550   1.953   1.197 -1.3270  0.9910  0.5095
  175MOL   H13135279   4.657   2.052   1.295  0.1307 -0.0523 -2.9651
  175MOL   C13235280   4.454   2.026   1.366 -0.2103  0.4667  0.3747
  175MOL   C13335281   4.430   2.174   1.344 -0.3453 -0.4291 -0.3529
  175MOL   C13435282   4.416   2.264   1.440  0.5698  0.3259 -0.0631
  175MOL   C13535283   4.381   2.409   1.411  0.6973 -1.1632  0.6133
  175MOL   H13635284   4.369   1.970   1.327 -0.3109  1.0783 -0.2971
  175MOL   H13735285   4.457   2.023   1.475  2.3491  1.2833  0.3704
  175MOL   H13835286   4.427   2.212   1.243  1.4132 -0.3113 -0.3815
  175MOL   H13935287   4.436   2.238   1.543 -2.7281  0.2288  0.5907
  175MOL   H14035288   4.393   2.447   1.310 -0.5584 -0.7234  0.6195
  175MOL   H14135289   4.439   2.475   1.476 -0.6985  0.3457  0.3675
  175MOL   C14235290   4.236   2.441   1.455 -0.2920 -0.2996  0.8409
  175MOL   C14335291   4.210   2.594   1.449  0.3779 -1.4128  0.7598
  175MOL   C14435292   4.150   2.668   1.540 -0.3422 -0.3287 -0.9928
  175MOL   C14535293   4.142   2.821   1.517 -0.1308  0.0767 -0.1125
  175MOL   H14635294   4.160   2.397   1.390  1.3155 -0.8605 -0.6890
  175MOL   H14735295   4.213   2.388   1.548 -2.2490 -0.2670  0.3926
  175MOL   H14835296   4.246   2.637   1.356 -1.1915  1.4336  1.4036
  175MOL   H14935297   4.117   2.625   1.634 -0.3880 -1.1171 -1.3639
  175MOL   H15035298   4.206   2.849   1.434 -0.6819  1.4344 -0.0968
  175MOL   H15135299   4.184   2.860   1.610  0.0145  1.2291 -0.6587
  175MOL   C15235300   3.998   2.873   1.489 -0.2042 -0.0676  0.2882
  175MOL   C15335301   3.981   3.017   1.437 -0.5424  0.5303  0.3122
  175MOL   C15435302   4.078   3.107   1.422 -0.4590 -0.3732  0.2200
  175MOL   C15535303   4.069   3.246   1.354 -0.0972 -0.2951  0.4712
  175MOL   H15635304   3.959   2.812   1.408  0.8667  1.7500 -1.6405
  175MOL   H15735305   3.932   2.862   1.576  1.1826 -0.4279  1.3102
  175MOL   H15835306   3.880   3.037   1.406 -0.4624  0.8359  0.2483
  175MOL   H15935307   4.178   3.075   1.448 -0.7736 -0.2585  1.6083
  175MOL   H16035308   3.972   3.295   1.351 -0.0081 -0.1121  0.5415
  175MOL   H16135309   4.099   3.238   1.250 -1.6566  2.2360 -0.2269
  175MOL   C16235310   4.167   3.350   1.427 -0.0038  0.3018  0.0539
  175MOL   C16335311   4.317   3.298   1.421  0.8315 -0.5219 -0.8373
  175MOL   C16435312   4.369   3.243   1.534  0.2873 -0.0094 -0.2283
  175MOL   C16535313   4.502   3.184   1.541  0.2176  0.4162 -0.2067
  175MOL   H16635314   4.158   3.445   1.375 -1.7372  0.8409  1.2524
  175MOL   H16735315   4.129   3.378   1.526 -1.6417  1.3584 -0.8433
  175MOL   H16835316   4.376   3.300   1.330  0.4952  0.0059 -1.0515
  175MOL   H16935317   4.301   3.225   1.617 -1.9407 -1.2022 -2.2329
  175MOL   H17035318   4.549   3.186   1.443 -0.2189 -1.5788 -0.4832
  175MOL   H17135319   4.492   3.080   1.573 -0.5263  0.6227  0.2441
  175MOL   C17235320   4.592   3.258   1.640  0.5174  0.3654  0.5586
  175MOL   C17335321   4.738   3.215   1.634  0.1443 -0.1429  1.0376
  175MOL   C17435322   4.823   3.182   1.740  1.2035 -0.4950 -0.3190
  175MOL   C17535323   4.955   3.105   1.736 -0.0695  0.2789  0.2475
  175MOL   H17635324   4.572   3.364   1.622  0.5159  0.1161 -0.9995
  175MOL   H17735325   4.559   3.253   1.744 -0.2526  0.6284  0.3285
  175MOL   H17835326   4.772   3.193   1.533  0.9561  0.9420  1.0677
  175MOL   H17935327   4.778   3.197   1.837  2.0416 -0.7682  0.1150
  175MOL   H18035328   4.963   3.046   1.645  0.9597  0.3958  0.2481
  175MOL   H18135329   4.957   3.037   1.822  2.0888 -0.4502 -0.3318
  175MOL   C18235330   5.078   3.192   1.733  0.0740  0.1284 -0.0050
  175MOL   C18335331   5.109   3.223   1.592  0.0432  0.3067  0.7653
  175MOL   C18435332   5.226   3.192   1.525  0.1149  0.2853 -0.4869
  175MOL   C18535333   5.241   3.227   1.381 -0.0387 -0.3087  0.2475
  175MOL   H18635334   5.078   3.278   1.801  0.4601 -0.3726  0.6297
  175MOL   H18735335   5.165   3.137   1.767 -1.7911 -1.7004  1.9549
  175MOL   H18835336   5.031   3.276   1.540  1.0023  0.7903 -0.2185
  175MOL   H18935337   5.302   3.139   1.580 -0.0373  2.3180  1.7867
  175MOL   H19035338   5.301   3.317   1.367 -0.4748 -0.4165 -2.6300
  175MOL   H19135339   5.145   3.256   1.339  1.8603 -1.3314 -5.1197
  175MOL   C19235340   5.300   3.099   1.304 -0.1866 -0.5765 -0.5296
  175MOL   C19335341   5.446   3.081   1.323  0.0384 -0.3400 -0.4535
  175MOL   C19435342   5.538   3.054   1.222  0.0287 -0.5973 -0.4308
  175MOL   C19535343   5.681   3.014   1.248  0.5009 -0.3056 -0.4226
  175MOL   H19635344   5.258   3.004   1.337  0.4872 -0.7092 -0.0527
  175MOL   H19735345   5.283   3.122   1.199  0.9472 -2.4432 -1.1435
  175MOL   H19835346   5.483   3.081   1.425 -1.6034  1.6548  0.1692
  175MOL   H19935347   5.512   3.037   1.119  0.8772 -0.4078 -0.6773
  175MOL   H20035348   5.690   2.914   1.290  0.4686 -0.1220  0.0319
  175MOL   H20135349   5.730   3.083   1.318 -0.8345  0.4624 -0.2234
  175MOL   H20235350   5.737   3.010   1.155  0.1813 -2.2253 -0.5422
  176MOL     C135351   0.603   4.232   5.776 -0.7089 -0.3946  0.4359
  176MOL     C235352   0.476   4.156   5.800 -0.6867 -0.4162  0.6244
  176MOL     C335353   0.391   4.176   5.900 -0.4806 -0.7880  0.6093
  176MOL     C435354   0.269   4.086   5.928  1.4129  0.8522  0.2821
  176MOL     H535355   0.630   4.236   5.671  1.1156 -0.9122  0.8646
  176MOL     H635356   0.680   4.162   5.809  1.2462  1.4161 -0.2418
  176MOL     H735357   0.463   4.077   5.727  1.6831 -1.3554  1.1776
  176MOL     H835358   0.423   4.256   5.965  0.2520  0.4578 -1.2494
  176MOL     H935359   0.220   4.062   5.834  1.3178 -0.3768  0.6288
  176MOL    H1035360   0.183   4.130   5.977  1.5002 -1.2714  2.4423
  176MOL    H1135361   0.615   4.330   5.822 -0.3886 -0.3732  0.3066
  176MOL    C1235362   0.306   3.964   6.017 -0.2699 -0.4509 -0.2159
  176MOL    C1335363   0.218   3.845   6.016  0.2397 -0.0840 -0.7145
  176MOL    C1435364   0.166   3.789   6.126  0.3569  1.1674  0.2848
  176MOL    C1535365   0.064   3.680   6.123 -0.2380  0.1649 -0.1281
  176MOL    H1635366   0.402   3.928   5.979 -0.6760  0.0420 -1.7333
  176MOL    H1735367   0.323   4.003   6.118  1.0366  2.1720 -1.3926
  176MOL    H1835368   0.188   3.794   5.926 -1.0562 -1.5837  0.5362
  176MOL    H1935369   0.200   3.836   6.218 -0.9231  0.4005  1.1590
  176MOL    H2035370   0.098   3.604   6.193  0.1388  1.9453  1.6395
  176MOL    H2135371   0.049   3.642   6.022  0.5628  0.7512 -0.4731
  176MOL    C2235372   7.904   3.734   6.166 -0.3034 -0.3370  0.9171
  176MOL    C2335373   7.785   3.633   6.168  0.1056  0.3925  0.2847
  176MOL    C2435374   7.756   3.552   6.271  0.4151  0.3049  1.1454
  176MOL    C2535375   7.649   3.443   6.267 -0.1926  0.8733 -0.3814
  176MOL    H2635376   7.910   3.783   6.263 -0.8784  0.5125  0.5250
  176MOL    H2735377   7.875   3.815   6.101  0.7638  0.5140  1.4782
  176MOL    H2835378   7.735   3.624   6.072  1.7585 -2.1845 -0.3945
  176MOL    H2935379   7.798   3.565   6.369 -0.4073 -2.7034  1.9490
  176MOL    H3035380   7.587   3.442   6.177 -0.5762  0.8070 -0.1214
  176MOL    H3135381   7.585   3.463   6.354 -2.1087 -1.3400 -1.2167
  176MOL    C3235382   7.721   3.311   6.302 -0.7914  0.6429 -0.2315
  176MOL    C3335383   7.648   3.198   6.227 -0.1791 -0.0410 -0.4580
  176MOL    C3435384   7.591   3.099   6.300 -0.2744  0.5989  0.8541
  176MOL    C3535385   7.524   2.979   6.233 -0.3061 -0.6959 -0.2478
  176MOL    H3635386   7.825   3.308   6.271 -0.4209 -1.4392  1.1567
  176MOL    H3735387   7.729   3.289   6.408 -1.5490 -0.7229 -0.4555
  176MOL    H3835388   7.649   3.190   6.119 -0.1866 -0.5997 -0.4184
  176MOL    H3935389   7.588   3.099   6.408  1.2181 -2.1316  0.9452
  176MOL    H4035390   7.518   3.008   6.128 -2.0962 -0.7780 -0.1781
  176MOL    H4135391   7.422   2.964   6.268  0.4811  0.9611  2.9606
  176MOL    C4235392   7.617   2.861   6.263 -0.9198 -0.1276 -0.6652
  176MOL    C4335393   7.568   2.727   6.201  0.0821  0.7216 -0.1790
  176MOL    C4435394   7.511   2.627   6.271  0.4476  0.3774 -0.7638
  176MOL    C4535395   7.460   2.496   6.208 -0.1907 -0.2144 -0.1418
  176MOL    H4635396   7.719   2.872   6.226 -0.4003  2.2349  1.3005
  176MOL    H4735397   7.624   2.848   6.371  1.5006 -0.5391 -0.8452
  176MOL    H4835398   7.578   2.719   6.094 -1.0186  5.5964 -0.7541
  176MOL    H4935399   7.502   2.629   6.378  2.6555 -1.4742 -0.5111
  176MOL    H5035400   7.432   2.520   6.105  1.3702 -1.2350 -0.8233
  176MOL    H5135401   7.365   2.468   6.252  0.9982 -2.7223  0.9223
  176MOL    C5235402   7.566   2.382   6.223 -0.1367 -0.2891 -0.1736
  176MOL    C5335403   7.505   2.255   6.175 -0.2004  0.3251  0.5151
  176MOL    C5435404   7.554   2.171   6.083  0.0762 -0.2457 -0.4445
  176MOL    C5535405   7.473   2.066   6.023 -0.4303  0.6119  0.0145
  176MOL    H5635406   7.653   2.404   6.162  2.7685 -2.8955  2.8003
  176MOL    H5735407   7.602   2.379   6.326 -1.4917  2.8176  0.4558
  176MOL    H5835408   7.402   2.245   6.204 -0.9870  0.3128 -2.2014
  176MOL    H5935409   7.650   2.188   6.036 -1.4542 -0.1779 -3.6988
  176MOL    H6035410   7.462   2.079   5.916 -2.0674  3.3435  0.4806
  176MOL    H6135411   7.372   2.065   6.064 -0.1507  0.7199  0.7227
  176MOL    C6235412   7.543   1.931   6.022 -0.3188 -0.3333  0.1282
  176MOL    C6335413   7.650   1.914   5.921 -0.1692 -0.2123 -0.1133
  176MOL    C6435414   7.779   1.911   5.932  0.1620  0.0993  0.2873
  176MOL    C6535415   7.874   1.881   5.826  0.4165 -0.4518 -0.6011
  176MOL    H6635416   7.587   1.910   6.119  1.6716  1.6333 -0.3165
  176MOL    H6735417   7.472   1.848   6.014 -0.1017 -0.4465 -0.6491
  176MOL    H6835418   7.604   1.902   5.824  1.3890  2.4929 -1.2658
  176MOL    H6935419   7.818   1.932   6.031  0.0207 -2.7236  0.9781
  176MOL    H7035420   7.891   1.965   5.758 -0.4706 -0.6048 -1.0238
  176MOL    H7135421   7.839   1.811   5.750 -1.1050 -0.4618  0.0844
  176MOL    C7235422   0.024   1.823   5.891 -0.6737 -0.3806  0.1549
  176MOL    C7335423   0.106   1.762   5.777  0.7722 -0.1300  0.1551
  176MOL    C7435424   0.229   1.810   5.740 -0.1996  0.0561  0.2795
  176MOL    C7535425   0.301   1.740   5.622  0.3971 -0.2421  0.4045
  176MOL    H7635426   0.079   1.898   5.948 -1.2252 -0.8783  1.3453
  176MOL    H7735427   0.002   1.736   5.952 -2.7730 -1.8389 -2.5814
  176MOL    H7835428   0.054   1.680   5.732  0.1565  0.1714  0.3081
  176MOL    H7935429   0.279   1.897   5.780  0.5225  0.0776 -0.6523
  176MOL    H8035430   0.324   1.812   5.544  1.8021  0.6819  1.6284
  176MOL    H8135431   0.228   1.671   5.580  1.5645 -1.6176  0.5999
  176MOL    C8235432   0.438   1.679   5.658 -1.2424  0.3437  0.1528
  176MOL    C8335433   0.495   1.603   5.547  0.6228 -0.6702  0.2265
  176MOL    C8435434   0.546   1.480   5.557  0.1501  0.4355 -0.4051
  176MOL    C8535435   0.601   1.395   5.446  0.6550 -0.5080 -0.6675
  176MOL    H8635436   0.513   1.752   5.689 -1.3279  0.1398  0.8569
  176MOL    H8735437   0.420   1.618   5.747 -0.7449  0.3416  0.2537
  176MOL    H8835438   0.496   1.658   5.454 -0.6997  0.8528  1.0890
  176MOL    H8935439   0.541   1.438   5.657  1.6544  0.5572 -0.2757
  176MOL    H9035440   0.579   1.447   5.352  0.1469  1.4457  0.5094
  176MOL    H9135441   0.528   1.315   5.433  0.3875 -0.0319 -2.2369
  176MOL    C9235442   0.738   1.339   5.465 -0.2325 -0.3689  0.2242
  176MOL    C9335443   0.778   1.252   5.350  0.2962 -0.6585 -0.6272
  176MOL    C9435444   0.783   1.115   5.354 -0.2206 -0.4222 -0.1182
  176MOL    C9535445   0.820   1.026   5.237  0.2021 -0.7835 -0.4145
  176MOL    H9635446   0.808   1.422   5.470 -1.5725  0.7554  0.6437
  176MOL    H9735447   0.737   1.280   5.556 -0.0179 -2.0706 -0.8563
  176MOL    H9835448   0.809   1.291   5.254  1.4648 -1.4753 -0.5918
  176MOL    H9935449   0.760   1.065   5.447 -3.8093 -0.4379 -0.9388
  176MOL   H10035450   0.800   1.076   5.142  2.1626 -0.5485 -0.7113
  176MOL   H10135451   0.747   0.946   5.249 -1.8765  1.2296  0.7631
  176MOL   C10235452   0.964   0.980   5.255 -0.0941  0.5059  0.1178
  176MOL   C10335453   1.016   0.920   5.121 -0.5853  0.4695  0.9839
  176MOL   C10435454   1.030   0.790   5.099 -0.1962  0.1518  0.0215
  176MOL   C10535455   1.089   0.731   4.973 -0.3949 -1.0216 -0.4532
  176MOL   H10635456   1.022   1.063   5.294  2.3759 -1.7373  1.3515
  176MOL   H10735457   0.966   0.901   5.330  0.8247 -1.4215 -1.8991
  176MOL   H10835458   1.047   0.993   5.048 -0.8907 -1.9639 -1.6251
  176MOL   H10935459   0.996   0.732   5.184  1.4690  1.8440  1.9245
  176MOL   H11035460   1.155   0.648   5.000 -0.4790 -1.3511 -1.2525
  176MOL   H11135461   1.153   0.797   4.913 -0.1058  0.0563  1.0221
  176MOL   C11235462   0.980   0.658   4.893  0.6497  0.2323  0.8599
  176MOL   C11335463   1.046   0.596   4.768  0.0957 -0.4669  0.1552
  176MOL   C11435464   0.999   0.618   4.646 -0.1433 -0.6483 -0.5626
  176MOL   C11535465   1.066   0.573   4.526 -1.0050 -0.2398  0.8805
  176MOL   H11635466   0.938   0.571   4.944 -0.9705 -0.0086 -0.8715
  176MOL   H11735467   0.896   0.722   4.866 -0.4752 -2.3161 -1.9463
  176MOL   H11835468   1.140   0.544   4.779  0.9227  0.5847 -1.8153
  176MOL   H11935469   0.911   0.680   4.633  0.9202  1.0496  0.1656
  176MOL   H12035470   1.026   0.482   4.481  2.1503 -2.1398  1.7655
  176MOL   H12135471   1.169   0.544   4.547  0.0205  0.0617 -3.2088
  176MOL   C12235472   1.090   0.686   4.426  0.7043  0.4794  0.0183
  176MOL   C12335473   1.183   0.650   4.314  0.3658  0.7095 -0.6414
  176MOL   C12435474   1.312   0.689   4.317  0.2341 -0.1743  0.5180
  176MOL   C12535475   1.416   0.639   4.230 -0.8368  0.4751 -0.2228
  176MOL   H12635476   0.993   0.710   4.383  0.1172  0.1812  1.1680
  176MOL   H12735477   1.117   0.774   4.484  1.9589 -0.2259  0.5225
  176MOL   H12835478   1.145   0.579   4.242 -3.0680  1.7883  0.0269
  176MOL   H12935479   1.346   0.750   4.400  2.8538  1.1088 -1.4070
  176MOL   H13035480   1.368   0.577   4.154  2.1624 -1.5175 -0.5840
  176MOL   H13135481   1.465   0.558   4.284 -2.3596 -0.4837 -0.2457
  176MOL   C13235482   1.502   0.753   4.190  0.5242 -0.1110  0.6767
  176MOL   C13335483   1.590   0.719   4.067 -0.4052  0.7428  0.5890
  176MOL   C13435484   1.552   0.745   3.939 -0.1778 -0.3413 -0.6184
  176MOL   C13535485   1.635   0.694   3.812  0.0058  0.2748 -0.1131
  176MOL   H13635486   1.428   0.823   4.153 -0.2372 -1.1391  0.2196
  176MOL   H13735487   1.566   0.785   4.273 -1.9079 -1.3538  3.1172
  176MOL   H13835488   1.685   0.669   4.085 -1.9019 -2.1258  0.9067
  176MOL   H13935489   1.460   0.799   3.925 -0.3039 -0.4739 -0.3009
  176MOL   H14035490   1.565   0.648   3.743 -0.0728 -1.4824  1.1221
  176MOL   H14135491   1.711   0.620   3.834  1.3146  1.1608 -1.5336
  176MOL   C14235492   1.711   0.803   3.732 -0.3968  0.4473 -0.1355
  176MOL   C14335493   1.801   0.893   3.815 -1.2088 -0.1245  0.3202
  176MOL   C14435494   1.799   1.029   3.821 -0.0542 -0.0370 -0.3011
  176MOL   C14535495   1.878   1.117   3.913  0.2169 -0.0089  0.1740
  176MOL   H14635496   1.765   0.739   3.662  0.8618  0.2782  0.9639
  176MOL   H14735497   1.647   0.873   3.677  1.0066  1.1363 -0.9219
  176MOL   H14835498   1.874   0.855   3.884 -1.4704 -0.9507  0.1409
  176MOL   H14935499   1.719   1.077   3.766 -0.7279 -2.4701 -1.4912
  176MOL   H15035500   1.932   1.193   3.858  0.5066  1.3282  2.2754
  176MOL   H15135501   1.960   1.066   3.964 -0.9849 -0.3797  1.8021
  176MOL   C15235502   1.782   1.184   4.012  0.3782 -0.5302 -0.3170
  176MOL   C15335503   1.837   1.314   4.067 -0.0902 -0.3563 -0.5728
  176MOL   C15435504   1.851   1.353   4.194 -0.2918 -0.8256  0.6468
  176MOL   C15535505   1.912   1.491   4.220  1.0673 -0.2860  0.2502
  176MOL   H15635506   1.691   1.197   3.953  0.3145 -0.3190 -0.1714
  176MOL   H15735507   1.767   1.115   4.095  1.5542  2.0788  2.0969
  176MOL   H15835508   1.882   1.372   3.988 -0.7287 -0.9429 -1.3719
  176MOL   H15935509   1.807   1.291   4.271  0.1876 -0.4561  1.2285
  176MOL   H16035510   1.984   1.498   4.138  0.3743 -0.1200 -0.3493
  176MOL   H16135511   1.968   1.485   4.313 -0.4605  0.9363  1.2675
  176MOL   C16235512   1.808   1.603   4.228  0.1499 -0.0281 -0.0629
  176MOL   C16335513   1.730   1.585   4.354 -0.1631 -0.0173  0.1078
  176MOL   C16435514   1.610   1.645   4.360  1.2834 -0.7002  0.8229
  176MOL   C16535515   1.522   1.654   4.484  0.2616  0.0230  0.1994
  176MOL   H16635516   1.857   1.699   4.239 -0.3958  0.1949  0.4381
  176MOL   H16735517   1.752   1.614   4.135  1.1857  0.4839 -0.6286
  176MOL   H16835518   1.777   1.532   4.436  3.1370 -0.1950 -1.8004
  176MOL   H16935519   1.582   1.703   4.274  0.1983 -0.7102  1.1486
  176MOL   H17035520   1.579   1.653   4.577  0.0088  1.2603  0.3812
  176MOL   H17135521   1.457   1.568   4.475 -2.2346  1.6805  1.7279
  176MOL   C17235522   1.435   1.779   4.494  1.4808  0.1647 -0.3661
  176MOL   C17335523   1.305   1.780   4.416  0.1260 -0.4402  0.0107
  176MOL   C17435524   1.187   1.816   4.471  0.4207  0.6298 -0.0475
  176MOL   C17535525   1.056   1.822   4.390 -0.4127  0.4163 -0.3472
  176MOL   H17635526   1.427   1.809   4.598 -0.1844 -0.6664 -0.2502
  176MOL   H17735527   1.488   1.866   4.453  1.9035 -0.2455 -0.7004
  176MOL   H17835528   1.311   1.765   4.310 -2.3639 -1.3426 -0.0276
  176MOL   H17935529   1.175   1.848   4.573  0.7802  0.4952  0.0393
  176MOL   H18035530   0.970   1.789   4.448  1.7947 -2.6935  1.2750
  176MOL   H18135531   1.076   1.764   4.300  1.3616 -2.1186  1.6118
  176MOL   C18235532   1.010   1.964   4.363  0.1323  0.2857 -0.4940
  176MOL   C18335533   0.886   1.965   4.276 -0.5611  0.4698 -0.0893
  176MOL   C18435534   0.766   1.992   4.325 -0.4518 -0.1074  0.5505
  176MOL   C18535535   0.637   2.027   4.244 -0.4039 -0.5834  0.7528
  176MOL   H18635536   0.994   2.021   4.454 -4.4425 -1.1886 -0.2236
  176MOL   H18735537   1.092   2.005   4.304 -1.2025  0.5952 -2.1675
  176MOL   H18835538   0.908   1.964   4.171 -0.1871  1.2515 -0.0239
  176MOL   H18935539   0.756   1.986   4.432  0.1153 -0.9936  0.5562
  176MOL   H19035540   0.556   1.980   4.301 -1.3067  1.4472  1.2036
  176MOL   H19135541   0.640   1.971   4.151  0.7763  0.3658  0.2107
  176MOL   C19235542   0.615   2.175   4.223 -0.4400 -0.1080 -1.0827
  176MOL   C19335543   0.504   2.212   4.130  0.2534  0.4651  0.1472
  176MOL   C19435544   0.427   2.127   4.054  0.2995 -0.3228  0.1225
  176MOL   C19535545   0.326   2.175   3.958  0.3636 -0.1489  0.1769
  176MOL   H19635546   0.584   2.222   4.316  0.3020  2.6582 -2.2014
  176MOL   H19735547   0.706   2.231   4.205 -1.3328  2.3768  1.7526
  176MOL   H19835548   0.475   2.316   4.127 -0.1015  0.3802  0.5501
  176MOL   H19935549   0.449   2.021   4.053  3.5431  0.2886  0.4168
  176MOL   H20035550   0.239   2.113   3.976  0.8304 -0.9017 -0.1437
  176MOL   H20135551   0.365   2.137   3.863  1.1793  0.3691  0.2927
  176MOL   H20235552   0.302   2.282   3.958 -3.3097 -0.9080  0.2415
  177MOL     C135553   2.477   4.644   7.775 -0.3704 -0.2509 -0.5924
  177MOL     C235554   2.372   4.550   7.835 -1.1765  0.6426 -0.2165
  177MOL     C335555   2.273   4.596   7.899  0.4239 -0.4369 -0.6807
  177MOL     C435556   2.170   4.497   7.956 -0.0494 -0.0288  0.6141
  177MOL     H535557   2.473   4.742   7.822 -0.1879 -0.6473  0.2464
  177MOL     H635558   2.470   4.657   7.667  0.1623 -0.8776 -0.6998
  177MOL     H735559   2.374   4.446   7.809  2.5074  0.8941 -1.3045
  177MOL     H835560   2.263   4.704   7.902 -0.0471 -0.4180 -2.2710
  177MOL     H935561   2.104   4.456   7.878 -0.1895  0.8778  0.2504
  177MOL    H1035562   2.106   4.552   0.048 -0.8615  0.3786 -0.4519
  177MOL    H1135563   2.577   4.615   7.805 -0.5968  0.6945  1.1704
  177MOL    C1235564   2.232   4.387   0.052 -0.2868  0.0345 -0.3592
  177MOL    C1335565   2.145   4.294   0.124  0.3300  0.3881 -0.6717
  177MOL    C1435566   2.177   4.164   0.145  0.4472  0.5031 -0.9302
  177MOL    C1535567   2.094   4.076   0.240 -0.1362  0.1662  0.6017
  177MOL    H1635568   2.281   4.321   7.957  0.2202 -0.5051  0.4695
  177MOL    H1735569   2.316   4.416   0.115 -0.0542 -2.5015  0.5736
  177MOL    H1835570   2.067   4.337   0.185  1.5476  0.0970  1.1018
  177MOL    H1935571   2.267   4.125   0.100  1.2023  1.0914  0.0599
  177MOL    H2035572   2.001   4.130   0.255 -0.1278  0.7938 -1.4386
  177MOL    H2135573   2.138   4.068   0.340 -2.1162  1.0260  1.5790
  177MOL    C2235574   2.083   3.929   0.186  0.1763  0.5978 -0.3711
  177MOL    C2335575   1.983   3.860   0.278  0.8324 -0.2302 -0.9489
  177MOL    C2435576   2.019   3.752   0.345 -0.2071 -0.2404 -0.8672
  177MOL    C2535577   1.924   3.676   0.435  0.1826 -0.7607 -0.2053
  177MOL    H2635578   2.047   3.926   0.083  0.3175  0.1246 -0.4087
  177MOL    H2735579   2.176   3.872   0.182 -0.2130 -0.0798  0.0547
  177MOL    H2835580   1.892   3.916   0.291  0.5395 -0.1455 -3.2088
  177MOL    H2935581   2.110   3.699   0.325  0.8752  0.4687  1.8853
  177MOL    H3035582   1.843   3.743   0.464  0.9899  0.9857 -1.8705
  177MOL    H3135583   1.986   3.657   0.524 -0.2666 -3.6477 -0.4562
  177MOL    C3235584   1.882   3.548   0.362  0.3357  0.0995 -0.0988
  177MOL    C3335585   1.792   3.459   0.448  0.1325 -0.1023  0.0843
  177MOL    C3435586   1.670   3.411   0.418  0.1191 -0.1498  0.8117
  177MOL    C3535587   1.589   3.312   0.501 -0.5955 -0.0402  0.0471
  177MOL    H3635588   1.823   3.569   0.274  0.3705 -3.3460 -1.0208
  177MOL    H3735589   1.972   3.496   0.328  0.4801  0.4673 -0.2832
  177MOL    H3835590   1.837   3.412   0.534  0.9594 -0.1173 -0.3502
  177MOL    H3935591   1.638   3.444   0.320  3.8486  1.9584  0.2130
  177MOL    H4035592   1.658   3.253   0.562 -0.5520 -0.4985 -0.4387
  177MOL    H4135593   1.537   3.255   0.424  2.3309  0.8012 -2.6474
  177MOL    C4235594   1.481   3.383   0.580  0.6552 -0.6831  0.1288
  177MOL    C4335595   1.381   3.280   0.633  0.3385  0.9733 -0.4087
  177MOL    C4435596   1.382   3.144   0.630  0.0987 -0.2294 -0.2256
  177MOL    C4535597   1.280   3.050   0.695 -0.2789 -0.1136  0.0136
  177MOL    H4635598   1.528   3.438   0.662  0.0075 -0.6200  0.4654
  177MOL    H4735599   1.423   3.454   0.521 -0.7125 -0.0516  2.1611
  177MOL    H4835600   1.295   3.326   0.679  1.0149  0.3443  1.5662
  177MOL    H4935601   1.470   3.096   0.590  0.5706  2.8173 -3.0785
  177MOL    H5035602   1.202   3.101   0.751  0.2923  1.6794 -0.7575
  177MOL    H5135603   1.341   3.004   0.772  1.8987  0.7602 -1.1217
  177MOL    C5235604   1.206   2.952   0.602  0.1517  0.4874  0.2812
  177MOL    C5335605   1.143   3.033   0.487  0.4716 -0.3710 -0.4341
  177MOL    C5435606   1.153   3.010   0.359 -0.5677  0.0550 -0.4211
  177MOL    C5535607   1.093   3.089   0.246  0.4727 -0.2504 -0.1743
  177MOL    H5635608   1.275   2.880   0.559 -0.2956 -0.7506  1.6067
  177MOL    H5735609   1.134   2.890   0.655  1.4631 -1.3079  0.0033
  177MOL    H5835610   1.089   3.117   0.528  0.3403 -0.6646  0.0051
  177MOL    H5935611   1.212   2.926   0.324  0.5118  0.9466 -0.7710
  177MOL    H6035612   1.031   3.164   0.295  1.3559  1.0261 -1.0000
  177MOL    H6135613   1.021   3.034   0.185  1.5704  0.2911 -1.9849
  177MOL    C6235614   1.202   3.155   0.151  0.2374  0.1823  0.0369
  177MOL    C6335615   1.272   3.274   0.216  0.6442 -0.5602  0.1525
  177MOL    C6435616   1.267   3.395   0.153  0.0712  0.2607  0.5233
  177MOL    C6535617   1.339   3.521   0.206  0.3162 -0.3391 -0.6524
  177MOL    H6635618   1.274   3.081   0.116  0.2312 -1.5079  3.4127
  177MOL    H6735619   1.154   3.200   0.065 -2.2021  0.9490  1.7582
  177MOL    H6835620   1.330   3.250   0.303  0.5224 -1.6184 -0.0585
  177MOL    H6935621   1.221   3.419   0.058 -2.7350  4.1490  2.7644
  177MOL    H7035622   1.370   3.500   0.308 -1.4179 -1.9839 -0.4207
  177MOL    H7135623   1.262   3.597   0.212  1.3289  0.5665  1.0400
  177MOL    C7235624   1.456   3.571   0.122  0.0419 -0.7406 -0.3460
  177MOL    C7335625   1.532   3.682   0.182  0.2816  0.4623  0.4284
  177MOL    C7435626   1.557   3.799   0.118 -0.5551 -0.2606 -0.0476
  177MOL    C7535627   1.638   3.925   0.163  0.2637 -0.1756  0.1518
  177MOL    H7635628   1.518   3.484   0.104  0.6790 -0.2252 -0.6678
  177MOL    H7735629   1.416   3.610   0.028 -0.0902  1.0613  0.4444
  177MOL    H7835630   1.559   3.660   0.284  1.8485  1.4610  0.2459
  177MOL    H7935631   1.525   3.805   0.015 -1.0066  1.9446  0.1890
  177MOL    H8035632   1.737   3.935   0.118  0.5007  2.6129  1.2112
  177MOL    H8135633   1.649   3.902   0.269 -1.2132 -0.2454  0.2970
  177MOL    C8235634   1.565   4.063   0.143  0.3185  0.7212  0.5179
  177MOL    C8335635   1.635   4.178   0.215 -0.2196  0.0403  0.0231
  177MOL    C8435636   1.585   4.243   0.318 -0.7409  0.3737 -0.0089
  177MOL    C8535637   1.638   4.372   0.373 -0.0058  0.6066  0.2372
  177MOL    H8635638   1.545   4.105   0.045 -0.1593  2.2021  1.2299
  177MOL    H8735639   1.465   4.061   0.187 -0.1365 -0.2534 -0.5556
  177MOL    H8835640   1.722   4.217   0.165  0.5394  0.4444  1.6189
  177MOL    H8935641   1.493   4.206   0.362 -0.1526  0.1959  1.1059
  177MOL    H9035642   1.546   4.429   0.390 -0.1774  0.6978 -0.9638
  177MOL    H9135643   1.706   4.416   0.300 -1.8054  0.6996 -1.3997
  177MOL    C9235644   1.710   4.362   0.510 -0.2992  0.9055  0.4922
  177MOL    C9335645   1.709   4.489   0.592  0.7271  0.6120 -0.0134
  177MOL    C9435646   1.635   4.517   0.699 -0.8261 -0.1054 -0.2473
  177MOL    C9535647   1.645   4.649   0.774 -0.7123  0.4052 -0.3406
  177MOL    H9635648   1.662   4.283   0.569  0.3384 -0.0508 -0.2576
  177MOL    H9735649   1.812   4.329   0.491 -0.1289  2.4013 -1.4109
  177MOL    H9835650   1.775   4.563   0.550  1.3959  0.5048  0.8515
  177MOL    H9935651   1.563   4.451   0.746 -0.1497  0.7900  2.1378
  177MOL   H10035652   1.551   4.675   0.824 -0.9453 -0.6875 -0.1793
  177MOL   H10135653   1.658   4.727   0.699  0.7511 -0.0835 -0.5937
  177MOL   C10235654   1.750   4.630   0.879  0.3328 -0.2458 -0.1643
  177MOL   C10335655   1.887   4.672   0.830  0.0288  0.2078 -0.3803
  177MOL   C10435656   1.955   4.778   0.882  0.1464  0.0455  0.3203
  177MOL   C10535657   2.088   4.833   0.833  0.2008  0.3139 -0.1424
  177MOL   H10635658   1.727   4.687   0.969 -1.4544 -0.8220 -0.2252
  177MOL   H10735659   1.769   4.532   0.923 -1.7321  0.2835  1.9732
  177MOL   H10835660   1.936   4.610   0.755  0.9510  2.3670 -1.6115
  177MOL   H10935661   1.910   4.835   0.962 -0.0380  2.6687 -1.5817
  177MOL   H11035662   2.140   4.759   0.772 -1.4509 -0.9379 -0.0434
  177MOL   H11135663   2.152   4.862   0.916  0.1855  2.8615 -0.9915
  177MOL   C11235664   2.059   4.954   0.747  0.4010 -0.5979  0.1542
  177MOL   C11335665   2.172   5.051   0.738 -0.1656  0.1868  0.3727
  177MOL   C11435666   2.269   5.059   0.646 -0.0613  0.2321 -0.1976
  177MOL   C11535667   2.380   5.154   0.642 -0.3733  0.0835  0.0031
  177MOL   H11635668   2.043   4.933   0.641 -0.9862 -1.1591  0.4680
  177MOL   H11735669   1.973   5.015   0.775  0.8095 -0.8439  1.9839
  177MOL   H11835670   2.185   5.125   0.815 -1.1876  0.9402 -0.1664
  177MOL   H11935671   2.281   4.979   0.574 -0.5555  1.3093 -1.4920
  177MOL   H12035672   2.463   5.084   0.626 -1.1625 -0.6368 -1.0046
  177MOL   H12135673   2.401   5.211   0.732  0.4157  1.2930 -0.9328
  177MOL   C12235674   2.376   5.252   0.530 -0.3570 -0.6779  0.1601
  177MOL   C12335675   2.506   5.329   0.515  0.3792 -0.0139 -0.3824
  177MOL   C12435676   2.574   5.340   0.404  0.5039  0.4005  0.3135
  177MOL   C12535677   2.696   5.424   0.380 -0.0392 -0.6934  0.4298
  177MOL   H12635678   2.337   5.206   0.439 -0.3261 -1.0997  0.3599
  177MOL   H12735679   2.310   5.332   0.564  1.1759  0.8838 -0.4604
  177MOL   H12835680   2.528   5.382   0.607 -2.2316  0.2632  0.1232
  177MOL   H12935681   2.540   5.285   0.317  3.8222 -0.6077 -0.4408
  177MOL   H13035682   2.706   5.490   0.466 -3.2961 -0.6479  0.8497
  177MOL   H13135683   2.689   5.486   0.291  0.4902  1.4417  1.8371
  177MOL   C13235684   2.820   5.332   0.384 -0.1924  0.3864 -0.0028
  177MOL   C13335685   2.945   5.422   0.378 -0.6421  0.2136 -0.1412
  177MOL   C13435686   3.052   5.390   0.306 -0.1703  0.2753  0.2046
  177MOL   C13535687   3.177   5.471   0.298  0.1961  0.3829  0.9768
  177MOL   H13635688   2.823   5.288   0.484  0.5147 -0.0801 -0.2282
  177MOL   H13735689   2.828   5.248   0.315  1.9563  0.0626  0.6131
  177MOL   H13835690   2.952   5.509   0.442  0.0403 -1.0083  1.4612
  177MOL   H13935691   3.054   5.300   0.246  0.4487  0.1571  0.4064
  177MOL   H14035692   3.193   5.544   0.378  0.9467  0.1333  1.0620
  177MOL   H14135693   3.178   5.529   0.206  1.0996 -0.7066  0.2792
  177MOL   C14235694   3.300   5.371   0.287  0.1858  0.1174  0.0353
  177MOL   C14335695   3.435   5.441   0.302  0.2306 -0.0640  0.6333
  177MOL   C14435696   3.542   5.382   0.366  0.6352  0.0026 -0.1396
  177MOL   C14535697   3.683   5.425   0.359 -0.5059 -0.0487  0.1609
  177MOL   H14635698   3.300   5.284   0.353  3.1467  1.0908  1.3655
  177MOL   H14735699   3.292   5.336   0.184  2.3101  0.8101 -0.3907
  177MOL   H14835700   3.454   5.530   0.244 -0.7585  0.2204  0.7485
  177MOL   H14935701   3.527   5.283   0.405  0.2460  0.0251 -0.2356
  177MOL   H15035702   3.720   5.449   0.459  0.7509 -1.8972  0.1648
  177MOL   H15135703   3.680   5.520   0.305 -1.8996 -0.1480  0.0422
  177MOL   C15235704   3.779   5.319   0.300 -0.0713  0.2283  0.2043
  177MOL   C15335705   3.922   5.374   0.292  0.3810  0.3343 -0.1076
  177MOL   C15435706   3.988   5.409   0.184 -0.2728  0.5090  0.7355
  177MOL   C15535707   4.136   5.439   0.181 -0.1482 -0.8505  0.0848
  177MOL   H15635708   3.780   5.223   0.351  0.8480 -0.0011 -0.2479
  177MOL   H15735709   3.756   5.283   0.200  0.1674  1.8407 -0.4391
  177MOL   H15835710   3.979   5.366   0.384  1.1841 -1.4361 -0.7398
  177MOL   H15935711   3.926   5.420   0.096 -0.5823 -1.0288  0.7512
  177MOL   H16035712   4.188   5.361   0.126 -0.9489 -2.3777  1.4197
  177MOL   H16135713   4.174   5.446   0.283 -0.8721 -1.2984  0.3958
  177MOL   C16235714   4.176   5.579   0.107 -0.4414  0.3780  0.0691
  177MOL   C16335715   4.322   5.612   0.104 -0.3927  0.0958 -0.1093
  177MOL   C16435716   4.369   5.719   0.158 -0.4905 -0.3835 -0.0877
  177MOL   C16535717   4.512   5.760   0.161  0.5433  0.1445 -0.3410
  177MOL   H16635718   4.144   5.570   0.003 -2.5816  2.1089  0.5271
  177MOL   H16735719   4.114   5.661   0.143 -1.9580 -0.0708 -1.4375
  177MOL   H16835720   4.391   5.537   0.066  0.3635  0.1501  1.1155
  177MOL   H16935721   4.303   5.783   0.214  1.3650 -0.3453  2.1359
  177MOL   H17035722   4.507   5.860   0.119 -0.4073 -0.0889 -0.8112
  177MOL   H17135723   4.566   5.702   0.087 -0.3186 -1.0076 -0.0824
  177MOL   C17235724   4.568   5.752   0.302 -0.6006 -0.1615  0.2870
  177MOL   C17335725   4.722   5.759   0.300  0.5556  0.4258  0.8442
  177MOL   C17435726   4.799   5.649   0.290  0.3655 -0.4426  0.5765
  177MOL   C17535727   4.946   5.653   0.276  0.5009 -0.9124  0.3905
  177MOL   H17635728   4.517   5.822   0.368  1.1181  3.0151 -1.5969
  177MOL   H17735729   4.551   5.651   0.339  0.1597 -0.2968  0.2680
  177MOL   H17835730   4.761   5.859   0.304 -2.2813  1.5817  0.8803
  177MOL   H17935731   4.752   5.552   0.281  0.3558 -0.5422  1.6308
  177MOL   H18035732   4.966   5.760   0.277 -1.0315 -0.5970  2.3063
  177MOL   H18135733   4.987   5.618   0.182  0.4203  1.9202 -0.7187
  177MOL   C18235734   5.008   5.588   0.398  0.5774  0.3274  0.2908
  177MOL   C18335735   5.160   5.611   0.405 -0.3397 -0.5425  0.0601
  177MOL   C18435736   5.225   5.618   0.521 -0.3263 -0.2035  0.4523
  177MOL   C18535737   5.380   5.613   0.528 -0.1348  0.1779 -0.4029
  177MOL   H18635738   4.970   5.636   0.488 -0.2179  2.0130 -0.9316
  177MOL   H18735739   5.002   5.480   0.413  0.0993  0.6168  2.3686
  177MOL   H18835740   5.220   5.625   0.315  0.1202 -0.9652  0.2959
  177MOL   H18935741   5.181   5.610   0.619 -1.2373  0.1542  0.0782
  177MOL   H19035742   5.415   5.577   0.431 -0.3427  1.0037 -0.7897
  177MOL   H19135743   5.407   5.537   0.601 -0.8912 -0.8265 -1.1500
  177MOL   C19235744   5.447   5.744   0.546  0.3271  0.3967  0.1020
  177MOL   C19335745   5.600   5.734   0.551 -0.2270 -0.0124 -0.1062
  177MOL   C19435746   5.687   5.767   0.451  0.2464  0.3340  0.3166
  177MOL   C19535747   5.839   5.765   0.455 -0.1251 -0.7955 -0.2421
  177MOL   H19635748   5.429   5.802   0.456 -0.7149 -1.3422 -0.8246
  177MOL   H19735749   5.421   5.804   0.634  0.6270  2.8551 -1.4233
  177MOL   H19835750   5.640   5.702   0.646 -0.7618 -2.6172 -0.7067
  177MOL   H19935751   5.644   5.803   0.358  2.2763  2.7972  0.2990
  177MOL   H20035752   5.880   5.760   0.556  0.2277  2.6914 -0.1539
  177MOL   H20135753   5.879   5.863   0.430  2.0827 -1.1858  1.5662
  177MOL   H20235754   5.881   5.697   0.380 -2.2558 -2.1698 -0.2374
  178MOL     C135755   3.911   1.123   3.416  0.0536  0.5693  0.5370
  178MOL     C235756   3.771   1.072   3.437  0.5481 -0.0509  0.7283
  178MOL     C335757   3.682   1.115   3.526  0.7681 -0.0402 -0.8677
  178MOL     C435758   3.536   1.075   3.525 -0.2139  0.0362  0.1542
  178MOL     H535759   3.977   1.038   3.433 -0.7998  0.0062  1.1508
  178MOL     H635760   3.947   1.205   3.478  1.4230 -0.7790  1.5620
  178MOL     H735761   3.734   1.013   3.355 -0.3252  0.4764  0.7377
  178MOL     H835762   3.721   1.182   3.601  0.5618 -0.7772 -0.0935
  178MOL     H935763   3.499   1.068   3.422 -1.3233  1.8333  0.4112
  178MOL    H1035764   3.490   1.159   3.578  0.0499  1.5952 -2.0071
  178MOL    H1135765   3.930   1.146   3.312  2.9949 -1.8908  0.4846
  178MOL    C1235766   3.503   0.948   3.605 -0.5789 -0.0728  0.8882
  178MOL    C1335767   3.375   0.886   3.579  0.1048 -0.1774  0.0881
  178MOL    C1435768   3.358   0.750   3.559  0.3224 -0.1048 -0.4920
  178MOL    C1535769   3.227   0.674   3.541 -0.5095 -0.3599  0.7831
  178MOL    H1635770   3.581   0.874   3.584  0.4101  0.5963  2.1727
  178MOL    H1735771   3.516   0.962   3.712 -3.0077 -1.6299  1.4160
  178MOL    H1835772   3.284   0.943   3.582 -0.6842 -1.4827  3.8154
  178MOL    H1935773   3.444   0.685   3.558  0.8099  0.5155  0.3114
  178MOL    H2035774   3.142   0.742   3.543  0.4563  0.9798 -1.6346
  178MOL    H2135775   3.225   0.609   3.629 -0.8905  1.1212  1.8886
  178MOL    C2235776   3.222   0.600   3.415 -0.5299 -0.3211 -0.4063
  178MOL    C2335777   3.106   0.506   3.400 -0.0145  0.0203 -0.5300
  178MOL    C2435778   3.006   0.519   3.311  0.0241 -0.2248 -0.2448
  178MOL    C2535779   2.880   0.448   3.310  0.2097  0.3717  0.4752
  178MOL    H2635780   3.209   0.678   3.339 -1.8592  0.1836  0.3232
  178MOL    H2735781   3.321   0.556   3.401 -0.5168 -0.4099 -0.0301
  178MOL    H2835782   3.096   0.429   3.476 -2.6519 -0.2637 -1.1196
  178MOL    H2935783   3.002   0.599   3.240  0.1085 -1.5464 -1.7639
  178MOL    H3035784   2.812   0.500   3.376 -0.1939  2.1394 -1.2849
  178MOL    H3135785   2.907   0.353   3.357 -0.1953  0.8463  1.6881
  178MOL    C3235786   2.826   0.441   3.171  0.3194  0.3504 -0.2895
  178MOL    C3335787   2.711   0.341   3.157 -0.3225 -0.3968  0.1901
  178MOL    C3435788   2.594   0.361   3.090  0.5671  0.2792  1.0002
  178MOL    C3535789   2.494   0.258   3.061 -0.0032 -0.1756 -0.4969
  178MOL    H3635790   2.792   0.540   3.141 -0.4890  0.7349  1.8090
  178MOL    H3735791   2.911   0.404   3.112  0.6683  1.8232 -0.7311
  178MOL    H3835792   2.722   0.241   3.196 -0.6655 -0.2647  0.6205
  178MOL    H3935793   2.570   0.461   3.054  0.2235  0.0582  0.5983
  178MOL    H4035794   2.432   0.233   3.146 -1.1680  1.3586 -0.8896
  178MOL    H4135795   2.548   0.168   3.032  1.1777 -0.4996  2.5112
  178MOL    C4235796   2.397   0.310   2.955 -0.0922  1.0194  0.0508
  178MOL    C4335797   2.325   0.203   2.874 -0.2941 -1.0858 -0.2727
  178MOL    C4435798   2.195   0.182   2.881  0.1053 -0.0245  0.6911
  178MOL    C4535799   2.122   0.068   2.805  0.0684 -0.6319 -0.0218
  178MOL    H4635800   2.326   0.376   3.004  0.1834 -0.2724  2.2312
  178MOL    H4735801   2.454   0.363   2.878  1.3475  1.1373  1.1825
  178MOL    H4835802   2.390   0.153   2.803 -0.0448 -1.4931  0.2384
  178MOL    H4935803   2.127   0.233   2.947 -0.9130  1.6135 -1.5376
  178MOL    H5035804   2.196   0.000   2.763  1.8459  0.2563  1.6143
  178MOL    H5135805   2.068   0.113   2.722 -0.1378 -0.7166  0.0651
  178MOL    C5235806   2.022   7.960   2.894 -0.5753  0.2405 -0.1622
  178MOL    C5335807   2.096   7.847   2.969  0.7452 -0.5359  0.4386
  178MOL    C5435808   2.189   7.761   2.929  0.1310  0.1518  0.1993
  178MOL    C5535809   2.242   7.657   3.025  0.3819 -0.4326 -0.3491
  178MOL    H5635810   1.973   0.047   2.968 -0.8652  1.6993 -1.5746
  178MOL    H5735811   1.939   7.916   2.838  0.5890 -1.7228 -0.3752
  178MOL    H5835812   2.052   7.818   3.063 -0.9133  0.8822  0.1231
  178MOL    H5935813   2.230   7.774   2.830 -2.6351 -2.5997 -1.4089
  178MOL    H6035814   2.245   7.564   2.969  0.5189  0.0607 -1.1605
  178MOL    H6135815   2.169   7.657   3.107  0.2672  1.4494 -0.4400
  178MOL    C6235816   2.378   7.707   3.078 -0.1108  0.2449 -0.0683
  178MOL    C6335817   2.468   7.743   2.960 -0.0354 -0.3620  0.6523
  178MOL    C6435818   2.531   7.861   2.954  0.0012 -0.0551  0.1091
  178MOL    C6535819   2.647   7.886   2.860 -0.5893  0.0424 -0.5364
  178MOL    H6635820   2.360   7.783   3.154 -1.0387  0.1379 -0.1764
  178MOL    H6735821   2.432   7.626   3.128 -0.3622 -0.1724 -0.4670
  178MOL    H6835822   2.510   7.668   2.894  2.1167  2.4906 -1.3236
  178MOL    H6935823   2.513   7.932   3.033  0.9901  0.9425 -0.5421
  178MOL    H7035824   2.613   7.969   2.797 -0.0267 -0.7375 -1.8881
  178MOL    H7135825   2.663   7.802   2.793 -0.0230 -0.6304  0.4382
  178MOL    C7235826   2.776   7.928   2.932  0.4654  0.1340  0.5492
  178MOL    C7335827   2.889   7.954   2.831  0.2677  0.0135  0.5317
  178MOL    C7435828   2.890   0.014   2.696 -0.2274 -0.4495  0.2348
  178MOL    C7535829   3.016   0.039   2.611 -0.1210 -0.6964  1.0512
  178MOL    H7635830   2.771   0.048   2.982 -0.0688  1.1402 -1.4147
  178MOL    H7735831   2.812   7.851   3.000  0.1804  1.9633  2.8525
  178MOL    H7835832   2.983   7.918   2.872  0.1947  0.3996  1.0473
  178MOL    H7935833   2.800   0.040   2.642  1.0415 -0.0518 -1.7200
  178MOL    H8035834   3.095   0.036   2.686 -0.4603 -0.7371  1.4062
  178MOL    H8135835   3.020   0.142   2.574 -2.5872 -0.5040  1.2343
  178MOL    C8235836   3.032   7.918   2.494 -0.4068 -0.1262 -0.6577
  178MOL    C8335837   2.913   7.920   2.398  0.3812  0.0122 -0.4924
  178MOL    C8435838   2.809   7.837   2.395  0.8782 -0.0077 -0.4953
  178MOL    C8535839   2.710   7.828   2.282 -0.0026 -0.0276  0.8456
  178MOL    H8635840   3.121   7.953   2.443 -0.9975 -0.6180 -2.0314
  178MOL    H8735841   3.052   7.818   2.534  1.8874  0.2856 -0.7241
  178MOL    H8835842   2.916   0.023   2.325  1.3719 -0.1194 -0.6078
  178MOL    H8935843   2.787   7.761   2.468  1.1699 -1.9466 -2.3609
  178MOL    H9035844   2.713   7.921   2.224 -3.8681  1.6380  3.0722
  178MOL    H9135845   2.610   7.820   2.324 -0.2047  1.7609  0.7378
  178MOL    C9235846   2.750   7.717   2.180 -0.1013 -0.4424  0.7214
  178MOL    C9335847   2.688   7.730   2.039 -0.4380 -0.0914  0.5821
  178MOL    C9435848   2.749   7.803   1.946  0.0334  1.3975  0.2525
  178MOL    C9535849   2.685   7.844   1.822 -0.1153  0.0850  0.2549
  178MOL    H9635850   2.856   7.728   2.159 -0.6686  1.2999 -1.3637
  178MOL    H9735851   2.733   7.619   2.224 -2.1196  0.5438  2.2001
  178MOL    H9835852   2.591   7.688   2.021 -0.2932  1.1849 -3.6712
  178MOL    H9935853   2.849   7.840   1.963  0.8757  1.1248 -3.7688
  178MOL   H10035854   2.704   7.947   1.792 -1.3379  0.4191  0.6112
  178MOL   H10135855   2.577   7.848   1.836 -0.0628  0.1460  0.6506
  178MOL   C10235856   2.712   7.752   1.703 -0.0480 -0.1021  0.1350
  178MOL   C10335857   2.630   7.621   1.717 -0.1818  0.1253  0.6187
  178MOL   C10435858   2.559   7.568   1.621  0.5794  0.3474  0.0019
  178MOL   C10535859   2.485   7.437   1.622  0.5752 -0.0134 -0.8491
  178MOL   H10635860   2.678   7.797   1.610 -0.1633 -0.0918  0.1824
  178MOL   H10735861   2.815   7.718   1.688 -0.5187 -0.7707 -1.7184
  178MOL   H10835862   2.642   7.561   1.806 -0.8461  1.5417  1.6740
  178MOL   H10935863   2.551   7.619   1.526  2.9770  0.5949 -0.1120
  178MOL   H11035864   2.389   7.481   1.591 -0.2498 -1.1712  0.0344
  178MOL   H11135865   2.488   7.402   1.725 -0.9900  1.3985 -0.2877
  178MOL   C11235866   2.547   7.332   1.538 -0.3242  0.0262  0.3029
  178MOL   C11335867   2.583   7.203   1.609 -0.0128  0.7484  0.3473
  178MOL   C11435868   2.691   7.134   1.581  0.4920  0.3703  0.6443
  178MOL   C11535869   2.723   7.003   1.644 -0.1614 -0.6635 -0.3551
  178MOL   H11635870   2.492   7.304   1.447  0.1585 -1.3587  0.4323
  178MOL   H11735871   2.637   7.373   1.493 -0.0888 -0.4481  0.3456
  178MOL   H11835872   2.513   7.156   1.676 -1.6046  0.3915 -1.5286
  178MOL   H11935873   2.759   7.168   1.505  2.0529 -2.5816  0.6216
  178MOL   H12035874   2.678   6.980   1.740  0.5224  0.9308  0.3688
  178MOL   H12135875   2.831   7.003   1.662 -0.3363  1.0947  0.8198
  178MOL   C12235876   2.680   6.891   1.547 -0.0934 -0.3407  0.1550
  178MOL   C12335877   2.528   6.884   1.545  0.1908 -0.1031 -0.1683
  178MOL   C12435878   2.450   6.895   1.437 -0.0787 -0.4375  0.4965
  178MOL   C12535879   2.298   6.881   1.438 -0.4562 -0.4990  0.3466
  178MOL   H12635880   2.711   6.930   1.450  0.4924 -1.0485  0.0515
  178MOL   H12735881   2.726   6.798   1.582 -0.1062 -1.0318 -1.6200
  178MOL   H12835882   2.480   6.864   1.640 -0.7314  1.3567 -0.3123
  178MOL   H12935883   2.498   6.911   1.342 -2.0464 -1.9306 -0.7924
  178MOL   H13035884   2.259   6.839   1.530  0.3733  1.0075  1.4037
  178MOL   H13135885   2.272   6.824   1.348  3.3455 -0.4414 -0.8921
  178MOL   C13235886   2.230   7.014   1.397  0.2948  0.2356  0.1249
  178MOL   C13335887   2.078   7.009   1.388 -0.3401 -0.2235  0.6394
  178MOL   C13435888   1.986   7.069   1.465  0.1047 -0.3796  0.2304
  178MOL   C13535889   1.843   7.098   1.418 -0.6796  0.4800 -0.2361
  178MOL   H13635890   2.266   7.103   1.449  0.9587  1.0997 -1.7678
  178MOL   H13735891   2.260   7.051   1.299 -0.4157 -0.0471 -0.1997
  178MOL   H13835892   2.038   6.971   1.295 -1.0960 -1.2514  1.3705
  178MOL   H13935893   2.022   7.122   1.552 -2.7363  0.7247  0.8053
  178MOL   H14035894   1.778   7.043   1.485  3.7726 -1.1173  3.0378
  178MOL   H14135895   1.825   7.065   1.316  3.6673  0.9223 -1.2613
  178MOL   C14235896   1.818   7.251   1.432  0.7384 -0.1157 -0.4520
  178MOL   C14335897   1.890   7.336   1.336 -0.5386 -0.3255 -0.3881
  178MOL   C14435898   2.004   7.399   1.367 -0.4810 -0.6582 -0.6102
  178MOL   C14535899   2.072   7.501   1.272  0.2691  0.2104 -0.1574
  178MOL   H14635900   1.711   7.270   1.427  1.1681  2.2875 -1.0625
  178MOL   H14735901   1.841   7.283   1.534  0.5084 -0.8882 -0.1493
  178MOL   H14835902   1.843   7.349   1.240 -0.8493 -0.7983 -0.3006
  178MOL   H14935903   2.053   7.397   1.464  2.0682  0.4625 -1.8130
  178MOL   H15035904   2.018   7.595   1.281  0.1166  0.4637 -3.3572
  178MOL   H15135905   2.070   7.481   1.165  3.0828 -1.6872  0.0867
  178MOL   C15235906   2.217   7.540   1.309  0.5073  0.2061  0.5124
  178MOL   C15335907   2.297   7.417   1.301  0.4752  0.0991 -0.4288
  178MOL   C15435908   2.379   7.389   1.201 -0.9396  0.1443  0.5597
  178MOL   C15535909   2.462   7.267   1.184  0.1496 -0.4324 -0.3736
  178MOL   H15635910   2.258   7.622   1.251 -0.9375  0.7624  0.2631
  178MOL   H15735911   2.225   7.575   1.412  1.4825  1.1335  0.1348
  178MOL   H15835912   2.289   7.355   1.388 -1.4980  2.4736  1.1416
  178MOL   H15935913   2.397   7.452   1.115 -0.5607  0.8085  1.1177
  178MOL   H16035914   2.433   7.195   1.260 -0.0589  0.7543  0.6758
  178MOL   H16135915   2.561   7.300   1.217  0.2252 -2.0123  1.0222
  178MOL   C16235916   2.445   7.218   1.041  0.4315  0.3064 -0.1586
  178MOL   C16335917   2.510   7.082   1.023 -0.0940 -0.3155 -0.7636
  178MOL   C16435918   2.607   7.062   0.933 -0.3253 -0.7877 -0.2987
  178MOL   C16535919   2.686   6.933   0.919 -0.3795  0.1127 -0.4333
  178MOL   H16635920   2.339   7.212   1.017  0.4010  0.8912 -0.1689
  178MOL   H16735921   2.489   7.291   0.973 -1.9371  0.8571 -1.1231
  178MOL   H16835922   2.483   7.002   1.090 -2.1507  1.8619  1.0979
  178MOL   H16935923   2.644   7.142   0.870 -1.5831 -0.6521 -0.8948
  178MOL   H17035924   2.768   6.933   0.991  1.1872 -1.0290 -2.1891
  178MOL   H17135925   2.736   6.947   0.823  1.5046 -1.2817  0.3127
  178MOL   C17235926   2.602   6.804   0.921  0.3655  0.0172  0.1479
  178MOL   C17335927   2.658   6.692   0.827 -0.2221  0.2126 -0.1493
  178MOL   C17435928   2.673   6.564   0.869 -0.0009  0.6064  0.1619
  178MOL   C17535929   2.691   6.441   0.780  0.0357 -0.9896  0.0609
  178MOL   H17635930   2.573   6.767   1.020  2.7068  0.7622  1.1480
  178MOL   H17735931   2.514   6.835   0.864  0.8009  3.5492  1.2413
  178MOL   H17835932   2.703   6.713   0.731 -1.3015  1.2172 -0.4391
  178MOL   H17935933   2.638   6.532   0.966  0.3629 -1.2456 -0.2855
  178MOL   H18035934   2.715   6.470   0.677 -0.1511 -0.4427  0.1693
  178MOL   H18135935   2.589   6.408   0.764 -0.1372 -0.1049 -0.7468
  178MOL   C18235936   2.786   6.347   0.834 -0.5463 -0.1599  0.0238
  178MOL   C18335937   2.810   6.238   0.733 -0.1503  0.0029  0.1945
  178MOL   C18435938   2.790   6.111   0.763  0.1928  0.9515  0.1549
  178MOL   C18535939   2.803   6.005   0.660  0.1923  0.7147 -0.5339
  178MOL   H18635940   2.878   6.402   0.857 -0.3185  0.4884 -2.3397
  178MOL   H18735941   2.753   6.302   0.927 -0.9021 -0.9966 -0.5076
  178MOL   H18835942   2.843   6.275   0.637 -1.1144 -0.1172 -0.1812
  178MOL   H18935943   2.749   6.081   0.858 -2.0324  0.9685 -0.7842
  178MOL   H19035944   2.896   5.952   0.678  0.7515  0.8056 -3.0160
  178MOL   H19135945   2.804   6.061   0.566  0.0202  0.6259 -0.5892
  178MOL   C19235946   2.677   5.916   0.651  0.0410  1.1437 -0.0998
  178MOL   C19335947   2.686   5.800   0.745  0.1138 -0.0304  0.1546
  178MOL   C19435948   2.783   5.709   0.729  0.3066 -0.0602 -0.2011
  178MOL   C19535949   2.811   5.589   0.815  0.3232 -0.0537 -0.6275
  178MOL   H19635950   2.581   5.968   0.654 -1.6101 -1.7314 -1.7843
  178MOL   H19735951   2.679   5.877   0.550  1.8605 -2.2896  1.1674
  178MOL   H19835952   2.604   5.787   0.814  0.2828 -0.4448  0.2781
  178MOL   H19935953   2.847   5.729   0.644 -0.6268  1.7859 -0.4945
  178MOL   H20035954   2.851   5.506   0.757 -1.4830 -1.6537  0.3604
  178MOL   H20135955   2.717   5.548   0.854  1.0388 -0.1203  1.0599
  178MOL   H20235956   2.882   5.606   0.895  0.9260  0.5969 -1.2896
  179MOL     C135957   1.323   1.585   4.043  0.0641  0.0840  0.2949
  179MOL     C235958   1.283   1.712   3.972 -0.5245  0.1978  0.5980
  179MOL     C335959   1.284   1.732   3.841  0.5055 -0.7382 -0.2133
  179MOL     C435960   1.257   1.869   3.778  0.0665  0.0777 -0.8445
  179MOL     H535961   1.429   1.584   4.070 -0.2669 -1.6848  1.5949
  179MOL     H635962   1.307   1.507   3.970  1.6128  0.3747 -0.3845
  179MOL     H735963   1.243   1.791   4.034 -0.0217  1.8680 -1.1452
  179MOL     H835964   1.324   1.654   3.778 -1.0186 -2.9657  1.5252
  179MOL     H935965   1.226   1.948   3.847 -1.3393 -1.0897 -0.1227
  179MOL    H1035966   1.167   1.854   3.718 -1.0525  1.4376  0.4678
  179MOL    H1135967   1.255   1.558   4.124 -0.8335 -0.8101 -0.7430
  179MOL    C1235968   1.382   1.915   3.698  0.4119  0.3253 -0.5807
  179MOL    C1335969   1.385   2.063   3.665  0.1832  0.3082 -0.5391
  179MOL    C1435970   1.371   2.113   3.540  0.2588  0.4942 -0.5817
  179MOL    C1535971   1.349   2.259   3.495 -1.1927  0.1973  0.2727
  179MOL    H1635972   1.471   1.888   3.754  0.6207 -0.0827 -1.1103
  179MOL    H1735973   1.393   1.859   3.606  0.3175 -0.1833 -0.2845
  179MOL    H1835974   1.392   2.132   3.748  0.7776 -0.4006  0.0026
  179MOL    H1935975   1.362   2.036   3.465 -0.2326 -1.1669  1.1499
  179MOL    H2035976   1.369   2.263   3.388 -2.3732 -0.8478  0.0093
  179MOL    H2135977   1.442   2.304   3.532 -1.2639  0.8318 -0.3131
  179MOL    C2235978   1.216   2.322   3.547 -0.4744 -0.0294 -0.4099
  179MOL    C2335979   1.210   2.462   3.516  0.0296 -0.3375  0.3917
  179MOL    C2435980   1.128   2.529   3.434  0.5979 -0.9239 -0.5582
  179MOL    C2535981   1.142   2.674   3.387 -0.2839  0.3707  0.4484
  179MOL    H2635982   1.139   2.260   3.502 -1.1651  1.0607 -0.7290
  179MOL    H2735983   1.200   2.307   3.654 -0.0084  0.6257 -0.2487
  179MOL    H2835984   1.286   2.526   3.558 -0.6717 -0.5003  1.9197
  179MOL    H2935985   1.053   2.463   3.393  0.5133 -1.2933  0.1887
  179MOL    H3035986   1.236   2.711   3.428  1.7083 -2.5781 -1.3152
  179MOL    H3135987   1.053   2.721   3.431  0.6500  0.2070  2.5695
  179MOL    C3235988   1.134   2.689   3.231 -0.2440 -0.0133 -0.0265
  179MOL    C3335989   1.164   2.831   3.202 -0.1970  0.5372 -0.1793
  179MOL    C3435990   1.070   2.914   3.153 -0.8081 -0.1965  0.2984
  179MOL    C3535991   1.107   3.059   3.133  0.3985 -0.2957  0.2212
  179MOL    H3635992   1.209   2.624   3.186  0.1060  1.2090 -1.2788
  179MOL    H3735993   1.035   2.655   3.202 -0.0769 -0.8075  0.3393
  179MOL    H3835994   1.263   2.861   3.233 -0.9310  0.0528  2.8197
  179MOL    H3935995   0.971   2.876   3.134 -1.1613  1.1020 -0.5060
  179MOL    H4035996   1.202   3.087   3.179  0.5550  0.8412 -0.7606
  179MOL    H4135997   1.032   3.119   3.184  0.0931  0.7964 -1.4669
  179MOL    C4235998   1.115   3.093   2.983 -0.1264  0.7800 -0.0816
  179MOL    C4335999   1.155   3.227   2.944  0.5737  0.4911  0.5753
  179MOL    C4436000   1.080   3.307   2.880 -0.2038 -0.2906 -0.0918
  179MOL    C4536001   1.108   3.456   2.846 -0.2052 -0.2264  0.1057
  179MOL    H4636002   1.186   3.032   2.927  0.8366  0.4098  1.5020
  179MOL    H4736003   1.023   3.058   2.937 -0.7845 -1.0113  2.4455
  179MOL    H4836004   1.253   3.255   2.980  0.6075  1.1641 -0.0498
  179MOL    H4936005   0.983   3.267   2.854  0.5586 -0.9598 -2.0194
  179MOL    H5036006   1.056   3.522   2.915  2.0570  1.2928  0.3993
  179MOL    H5136007   1.047   3.456   2.755 -0.5830  1.7854  0.3398
  179MOL    C5236008   1.250   3.500   2.810  0.0132 -0.4343 -0.1565
  179MOL    C5336009   1.310   3.424   2.693 -0.1663 -0.5314 -0.0713
  179MOL    C5436010   1.398   3.324   2.704 -0.4050  0.3606 -0.1433
  179MOL    C5536011   1.451   3.234   2.591  0.3449 -0.0298 -0.3327
  179MOL    H5636012   1.239   3.603   2.777 -1.9577 -0.2001  1.1981
  179MOL    H5736013   1.328   3.499   2.886 -1.2869 -2.0505  1.1673
  179MOL    H5836014   1.291   3.459   2.593  1.2356  1.9739  0.5089
  179MOL    H5936015   1.430   3.280   2.797 -1.2936  0.1940  0.0927
  179MOL    H6036016   1.559   3.250   2.600  0.2084 -0.4803  2.5481
  179MOL    H6136017   1.412   3.267   2.495 -1.3737 -1.3365 -0.1055
  179MOL    C6236018   1.426   3.085   2.628  0.3619  0.0599  0.1694
  179MOL    C6336019   1.519   2.987   2.559 -0.0464  0.1593 -1.2851
  179MOL    C6436020   1.591   2.898   2.629 -0.5418  0.0632  0.0959
  179MOL    C6536021   1.690   2.793   2.574 -0.2164  0.3580 -0.8115
  179MOL    H6636022   1.443   3.070   2.734 -0.9505  0.0713  0.3888
  179MOL    H6736023   1.324   3.050   2.614  0.9392 -1.7597  0.2590
  179MOL    H6836024   1.532   2.994   2.452  1.1113  1.0544 -1.0937
  179MOL    H6936025   1.587   2.892   2.737 -1.2589 -2.5985 -0.0487
  179MOL    H7036026   1.700   2.802   2.466  1.7245 -3.9404 -1.0998
  179MOL    H7136027   1.647   2.696   2.594  0.0548  0.4905  0.5189
  179MOL    C7236028   1.825   2.813   2.649 -0.0630  0.4507  0.2491
  179MOL    C7336029   1.928   2.702   2.617 -0.5631  0.5971 -0.9612
  179MOL    C7436030   1.968   2.618   2.713  0.7050  0.4059 -0.0800
  179MOL    C7536031   2.062   2.500   2.700 -0.1462 -0.0537  0.4437
  179MOL    H7636032   1.870   2.912   2.638  1.3570 -0.5255 -3.5784
  179MOL    H7736033   1.800   2.804   2.755  3.8861  0.7236  1.2696
  179MOL    H7836034   1.951   2.682   2.513  4.4955  0.6404 -0.0141
  179MOL    H7936035   1.936   2.636   2.815  1.3990  0.7833  0.0738
  179MOL    H8036036   2.150   2.509   2.765  0.8423  1.1682 -1.0182
  179MOL    H8136037   2.096   2.498   2.597  0.1144 -0.0810  0.5288
  179MOL    C8236038   1.998   2.361   2.720  0.0604 -0.4352 -0.1048
  179MOL    C8336039   2.083   2.254   2.654 -0.0334 -0.3506  0.1772
  179MOL    C8436040   2.127   2.151   2.723  0.4954  0.2925  0.2522
  179MOL    C8536041   2.188   2.030   2.664 -0.4122  0.1228 -0.1307
  179MOL    H8636042   1.976   2.344   2.825 -0.6540 -2.8567 -0.6149
  179MOL    H8736043   1.901   2.364   2.670  0.1386 -0.4714 -0.2589
  179MOL    H8836044   2.107   2.252   2.549 -0.9365 -1.6341 -0.0193
  179MOL    H8936045   2.099   2.141   2.827  0.5215 -0.3686  0.1957
  179MOL    H9036046   2.224   2.044   2.562  1.8400 -3.6805  0.0468
  179MOL    H9136047   2.112   1.951   2.666 -2.1604  1.8256  2.0716
  179MOL    C9236048   2.307   1.980   2.749 -0.5381 -0.5698  0.3276
  179MOL    C9336049   2.369   1.852   2.691  0.4792  0.3350  0.5145
  179MOL    C9436050   2.374   1.736   2.759 -0.5597  0.3838  0.7128
  179MOL    C9536051   2.404   1.599   2.699 -0.6744  0.1121  0.4106
  179MOL    H9636052   2.379   2.060   2.764 -1.0690 -0.0769  0.2581
  179MOL    H9736053   2.287   1.954   2.853  2.0574 -2.1715  0.4438
  179MOL    H9836054   2.401   1.862   2.588  0.2251  0.1487  0.4149
  179MOL    H9936055   2.350   1.736   2.864 -0.9421 -0.3356  0.6322
  179MOL   H10036056   2.502   1.569   2.736 -0.8123 -1.3203 -0.3043
  179MOL   H10136057   2.407   1.611   2.590 -2.6017  1.5936  0.4969
  179MOL   C10236058   2.304   1.492   2.739  0.0721 -0.4106  0.6637
  179MOL   C10336059   2.299   1.461   2.890  0.1599  0.1944  0.0427
  179MOL   C10436060   2.186   1.477   2.958 -0.3412  0.6719 -0.8619
  179MOL   C10536061   2.168   1.456   3.100 -0.4884 -0.2850 -0.2610
  179MOL   H10636062   2.202   1.506   2.702 -0.7953  0.6494  3.3939
  179MOL   H10736063   2.333   1.401   2.685  0.4182 -0.1739  0.4556
  179MOL   H10836064   2.392   1.429   2.934  1.8568  3.9713 -0.6566
  179MOL   H10936065   2.101   1.513   2.902  0.1444  0.4681 -1.7489
  179MOL   H11036066   2.239   1.378   3.126  0.8878  1.7699  2.3395
  179MOL   H11136067   2.072   1.403   3.101 -0.5409 -0.1876  0.9272
  179MOL   C11236068   2.187   1.586   3.182  0.1692 -1.7719  0.2322
  179MOL   C11336069   2.084   1.692   3.140  0.3159  0.5560 -0.3017
  179MOL   C11436070   2.109   1.800   3.068 -0.2407  0.6456  0.5673
  179MOL   C11536071   2.016   1.911   3.032  0.6901  0.3044 -0.0198
  179MOL   H11636072   2.167   1.564   3.286  1.6850 -2.2172  0.4367
  179MOL   H11736073   2.290   1.618   3.171 -0.0703 -0.6005  1.2723
  179MOL   H11836074   1.987   1.666   3.180 -0.3930  1.1534 -1.6178
  179MOL   H11936075   2.208   1.815   3.028 -0.2554  0.9524  0.6432
  179MOL   H12036076   1.913   1.888   3.061  0.9897  0.6531  1.3697
  179MOL   H12136077   2.014   1.932   2.925  0.0320 -2.8652 -0.6712
  179MOL   C12236078   2.042   2.043   3.110 -0.3214  0.0148 -0.5179
  179MOL   C12336079   1.945   2.151   3.078 -0.0193  0.4201  0.3999
  179MOL   C12436080   1.883   2.228   3.174 -0.1564 -0.1756  0.2009
  179MOL   C12536081   1.777   2.325   3.151  0.2428 -0.0409  0.2362
  179MOL   H12636082   2.029   2.010   3.213 -0.4400 -1.5738 -1.0354
  179MOL   H12736083   2.143   2.083   3.104 -0.3197  0.1114  0.1768
  179MOL   H12836084   1.911   2.154   2.975  1.2518 -1.3576 -0.1006
  179MOL   H12936085   1.929   2.221   3.271  1.0089  0.6532 -0.2751
  179MOL   H13036086   1.754   2.338   3.045  0.9634 -1.3570 -0.1001
  179MOL   H13136087   1.808   2.423   3.184  1.5497 -0.6444  0.8200
  179MOL   C13236088   1.642   2.279   3.216  0.1460  0.1092  0.0476
  179MOL   C13336089   1.602   2.148   3.159 -0.1020 -0.0180  0.3335
  179MOL   C13436090   1.480   2.111   3.114 -0.5443  0.1770  0.1280
  179MOL   C13536091   1.449   1.971   3.068  0.1089  0.5047 -0.2409
  179MOL   H13636092   1.653   2.264   3.324 -2.4503 -3.6979 -0.1114
  179MOL   H13736093   1.572   2.359   3.192 -0.8695 -0.5067  0.8899
  179MOL   H13836094   1.686   2.080   3.151  0.3354  0.5004  0.5157
  179MOL   H13936095   1.398   2.181   3.119 -1.0377 -0.2234 -1.8081
  179MOL   H14036096   1.544   1.918   3.081  0.3291  0.9153 -0.1555
  179MOL   H14136097   1.424   1.972   2.962  2.5202 -0.6341 -0.8488
  179MOL   C14236098   1.336   1.909   3.139 -0.2913 -0.8495  0.5901
  179MOL   C14336099   1.346   1.763   3.132 -0.2596  0.6716  0.4771
  179MOL   C14436100   1.243   1.671   3.130 -0.1190 -0.0985  1.1186
  179MOL   C14536101   1.259   1.522   3.144 -0.2727 -0.0596  0.6294
  179MOL   H14636102   1.337   1.925   3.246 -0.4523 -0.9355  0.6056
  179MOL   H14736103   1.245   1.942   3.088  1.8335  2.4984 -1.2049
  179MOL   H14836104   1.444   1.719   3.132 -0.9647 -0.9371 -1.1330
  179MOL   H14936105   1.141   1.703   3.142 -1.0293 -1.9844 -1.0478
  179MOL   H15036106   1.175   1.463   3.178 -2.2874  1.3984 -1.6271
  179MOL   H15136107   1.336   1.518   3.221  0.5269 -1.1988 -0.2054
  179MOL   C15236108   1.321   1.471   3.012  0.5909 -0.0297  0.1291
  179MOL   C15336109   1.356   1.323   3.031  0.2922  0.0531  0.1801
  179MOL   C15436110   1.328   1.218   2.957 -0.5267  0.0244 -0.1518
  179MOL   C15536111   1.372   1.082   3.005  0.3536  0.4102  0.4946
  179MOL   H15636112   1.266   1.486   2.919 -1.5319 -2.4952  0.9162
  179MOL   H15736113   1.420   1.515   2.995 -0.6596  3.2031  0.8579
  179MOL   H15836114   1.409   1.301   3.122 -0.7677 -0.0991  0.7635
  179MOL   H15936115   1.267   1.233   2.869  0.3176 -0.0678 -0.7609
  179MOL   H16036116   1.283   1.020   3.015  1.0757 -1.0735 -1.8883
  179MOL   H16136117   1.418   1.083   3.104  2.0372 -1.9682 -0.2186
  179MOL   C16236118   1.474   1.010   2.910 -0.1618  0.0610  0.2371
  179MOL   C16336119   1.525   0.887   2.969  0.1593  0.4157 -0.3783
  179MOL   C16436120   1.503   0.761   2.931 -0.3037  0.5690  0.3102
  179MOL   C16536121   1.539   0.631   3.008  0.3488 -0.7587 -0.3188
  179MOL   H16636122   1.439   0.991   2.809 -3.3195  4.3296  0.3806
  179MOL   H16736123   1.565   1.069   2.899 -1.1261  1.4666 -0.3076
  179MOL   H16836124   1.584   0.904   3.057 -0.8903 -2.3025  0.8954
  179MOL   H16936125   1.438   0.746   2.846  0.8065  0.1743 -0.4794
  179MOL   H17036126   1.598   0.659   3.096  0.7005  1.9545 -1.3894
  179MOL   H17136127   1.611   0.577   2.947  1.3221  0.7128 -0.5035
  179MOL   C17236128   1.414   0.551   3.031  0.3638  0.1928 -0.4603
  179MOL   C17336129   1.308   0.627   3.111 -0.1496 -0.3781  0.1654
  179MOL   C17436130   1.231   0.567   3.211 -0.8726  0.3922 -0.1749
  179MOL   C17536131   1.116   0.632   3.287 -0.4122  0.3182 -0.3605
  179MOL   H17636132   1.377   0.528   2.932 -1.7313  0.1662  0.3085
  179MOL   H17736133   1.449   0.453   3.063 -0.0761  0.3264  0.4557
  179MOL   H17836134   1.290   0.731   3.089  1.2214  0.3533  2.3398
  179MOL   H17936135   1.244   0.465   3.244 -2.0681  0.4675  0.5845
  179MOL   H18036136   1.152   0.644   3.389 -0.0367 -2.4623 -0.1229
  179MOL   H18136137   1.034   0.563   3.303  0.8031 -1.0062  0.3468
  179MOL   C18236138   1.065   0.759   3.227 -0.4253 -0.1380  0.0213
  179MOL   C18336139   0.928   0.785   3.279  0.0817  0.1283  0.3021
  179MOL   C18436140   0.825   0.807   3.194  0.1669 -0.3571 -0.4670
  179MOL   C18536141   0.689   0.844   3.246  0.1919 -0.2000  0.3612
  179MOL   H18636142   1.132   0.839   3.261 -0.2445 -0.6972  1.0083
  179MOL   H18736143   1.074   0.758   3.119  1.2162 -0.1419  0.1479
  179MOL   H18836144   0.922   0.798   3.386  1.6118 -0.9111  0.5331
  179MOL   H18936145   0.854   0.790   3.092  2.6018 -0.7872  0.2533
  179MOL   H19036146   0.655   0.934   3.196  0.3537 -0.0577  0.5083
  179MOL   H19136147   0.694   0.863   3.353  2.5336  0.6646  0.1262
  179MOL   C19236148   0.577   0.748   3.221 -0.1051 -0.7924  0.1278
  179MOL   C19336149   0.443   0.811   3.260  0.5579  0.0781 -0.0880
  179MOL   C19436150   0.342   0.811   3.173 -0.2267  1.0701 -0.2318
  179MOL   C19536151   0.201   0.868   3.196  0.4312  0.4327  0.4817
  179MOL   H19636152   0.576   0.719   3.116 -1.6120 -0.6935  0.1035
  179MOL   H19736153   0.597   0.662   3.285 -0.8442  0.9385  2.7715
  179MOL   H19836154   0.441   0.853   3.359  1.6635  1.9539 -0.8357
  179MOL   H19936155   0.364   0.768   3.076 -0.4640 -0.2767  0.2885
  179MOL   H20036156   0.153   0.904   3.105 -1.2228  1.4818  1.7247
  179MOL   H20136157   0.200   0.959   3.257 -2.0276  0.9141 -0.2293
  179MOL   H20236158   0.138   0.787   3.233  1.5491 -1.1013 -0.8983
  180MOL     C136159   5.324   2.831   0.010  0.6692  0.5495 -0.2142
  180MOL     C236160   5.379   2.740   7.882  0.1842  0.3031  0.2876
  180MOL     C336161   5.379   2.609   7.895 -0.0943  0.5129  0.3649
  180MOL     C436162   5.443   2.524   7.779 -0.5604  0.3769  0.1947
  180MOL     H536163   5.407   2.854   0.078 -1.1588 -2.4147  3.2026
  180MOL     H636164   5.241   2.789   0.067  0.9533  0.0768 -0.1478
  180MOL     H736165   5.416   2.786   7.791  0.7276  2.0955  1.3900
  180MOL     H836166   5.343   2.561   0.008  0.3903 -0.8357 -0.1496
  180MOL     H936167   5.470   2.596   7.701  0.4275  0.5077  0.6424
  180MOL    H1036168   5.369   2.458   7.735 -1.4379  0.2587  1.7905
  180MOL    H1136169   5.292   2.928   7.949 -0.1132 -0.1885 -1.4564
  180MOL    C1236170   5.566   2.434   7.822 -0.1165  0.2655  0.0429
  180MOL    C1336171   5.594   2.329   7.716 -0.7606  0.1468 -0.1853
  180MOL    C1436172   5.707   2.323   7.645 -0.2877 -0.0391 -0.2518
  180MOL    C1536173   5.713   2.222   7.531 -0.0889  0.6990 -0.0633
  180MOL    H1636174   5.659   2.489   7.838  0.6107 -0.5032 -1.5014
  180MOL    H1736175   5.538   2.375   7.909 -0.6451  3.3108  2.0420
  180MOL    H1836176   5.510   2.276   7.673  0.7986 -3.3307  0.8063
  180MOL    H1936177   5.796   2.372   7.682 -1.7053  1.8649  0.7469
  180MOL    H2036178   5.635   2.151   7.559 -0.6442  1.1578 -0.4428
  180MOL    H2136179   5.798   2.155   7.540  0.2574  1.1471  0.0099
  180MOL    C2236180   5.711   2.281   7.390  0.4899 -0.0869  0.4677
  180MOL    C2336181   5.705   2.186   7.267  0.0519 -0.1750 -0.4324
  180MOL    C2436182   5.609   2.186   7.179 -0.1555 -0.4703  0.6237
  180MOL    C2536183   5.615   2.091   7.060  0.3136 -0.2119  0.6123
  180MOL    H2636184   5.639   2.360   7.372  0.4167  0.0795  1.4193
  180MOL    H2736185   5.805   2.332   7.366  0.3379 -0.9249 -1.9344
  180MOL    H2836186   5.791   2.123   7.257  1.5089  1.4512  1.4598
  180MOL    H2936187   5.528   2.256   7.193  1.1333  1.1716  0.0839
  180MOL    H3036188   5.692   2.014   7.070  1.6765  1.1948  1.0055
  180MOL    H3136189   5.634   2.157   6.976 -0.1511  2.1442  2.3062
  180MOL    C3236190   5.469   2.030   7.059  0.5535 -0.0519 -0.4593
  180MOL    C3336191   5.380   2.124   6.979 -0.3744 -0.8319  0.2686
  180MOL    C3436192   5.264   2.183   7.029 -0.2818 -0.5511  0.5566
  180MOL    C3536193   5.183   2.286   6.956  0.1440 -0.5012  0.1401
  180MOL    H3636194   5.465   1.938   7.001 -0.4306 -0.7146  0.6401
  180MOL    H3736195   5.432   2.015   7.160  2.8287 -0.8457  0.2741
  180MOL    H3836196   5.408   2.149   6.877  0.8861 -1.6209  0.4064
  180MOL    H3936197   5.233   2.151   7.127  2.5846  0.0711  1.7118
  180MOL    H4036198   5.227   2.300   6.858  1.2233 -1.4156  0.4835
  180MOL    H4136199   5.193   2.387   6.995  0.8366 -0.4113 -0.2710
  180MOL    C4236200   5.033   2.243   6.947  0.7044  0.7330  0.3854
  180MOL    C4336201   4.976   2.230   7.083 -0.1110 -0.0957 -0.4716
  180MOL    C4436202   4.851   2.276   7.108 -0.1058 -0.3049 -0.0344
  180MOL    C4536203   4.766   2.254   7.235  0.2556  1.2233 -0.4685
  180MOL    H4636204   4.975   2.321   6.897 -0.6710  0.0005  0.8106
  180MOL    H4736205   5.021   2.153   6.888 -1.4673  0.5951  0.9931
  180MOL    H4836206   5.036   2.178   7.156 -0.5171  1.8869  1.3353
  180MOL    H4936207   4.799   2.315   7.022  0.0594  0.8876  0.3947
  180MOL    H5036208   4.732   2.348   7.277  0.7762  1.3339 -0.2876
  180MOL    H5136209   4.837   2.214   7.308  0.9188  1.1063 -1.1660
  180MOL    C5236210   4.670   2.138   7.211  0.3780 -0.1476  0.4556
  180MOL    C5336211   4.569   2.103   7.314 -0.7420  0.0090 -0.1405
  180MOL    C5436212   4.571   1.996   7.394  0.1634  0.1286  0.5090
  180MOL    C5536213   4.465   1.961   7.502 -0.4300 -0.8791 -0.0255
  180MOL    H5636214   4.611   2.142   7.119  0.8905 -0.8150  0.0928
  180MOL    H5736215   4.727   2.050   7.181  0.5791  1.1466 -3.2095
  180MOL    H5836216   4.500   2.187   7.318 -1.8237 -0.7739 -1.7673
  180MOL    H5936217   4.647   1.922   7.379 -0.6752 -0.4040 -1.2347
  180MOL    H6036218   4.409   1.868   7.489 -1.5950 -0.1929  0.0677
  180MOL    H6136219   4.390   2.040   7.497  1.0890  0.6900  1.2486
  180MOL    C6236220   4.521   1.966   7.646 -0.2498  0.5471 -0.5170
  180MOL    C6336221   4.585   2.094   7.698 -0.5867  0.4282  0.0462
  180MOL    C6436222   4.568   2.219   7.650 -0.3306  0.0206  0.5412
  180MOL    C6536223   4.634   2.346   7.708  0.0108 -0.4341  0.6940
  180MOL    H6636224   4.440   1.938   7.713  0.3044 -0.0908 -0.1022
  180MOL    H6736225   4.591   1.883   7.661  1.7052  1.8531 -2.0706
  180MOL    H6836226   4.638   2.073   7.789  2.8585  0.2375 -1.8968
  180MOL    H6936227   4.504   2.232   7.563  0.9964 -0.8230 -0.5797
  180MOL    H7036228   4.705   2.381   7.633 -1.9227  1.5198 -0.2498
  180MOL    H7136229   4.693   2.325   7.798  1.0340 -2.3136 -0.3711
  180MOL    C7236230   4.526   2.454   7.749  0.0856 -0.4698  0.1439
  180MOL    C7336231   4.563   2.538   7.865 -0.2822  0.5497  0.4166
  180MOL    C7436232   4.574   2.667   7.857 -0.3608 -0.6795 -0.0120
  180MOL    C7536233   4.602   2.749   0.009 -0.2581 -0.1374 -0.1362
  180MOL    H7636234   4.515   2.519   7.663  0.0792 -2.1541 -1.1658
  180MOL    H7736235   4.426   2.415   7.769 -0.6422  1.9830  1.3839
  180MOL    H7836236   4.575   2.482   7.957 -0.9975  1.3944  1.0306
  180MOL    H7936237   4.573   2.725   7.766  0.3787 -1.5326 -0.5752
  180MOL    H8036238   4.698   2.798   7.972 -0.5312  0.4343 -0.0332
  180MOL    H8136239   4.600   2.683   0.095 -3.0891 -0.7912 -0.6513
  180MOL    C8236240   4.492   2.857   0.031  0.1736 -0.3489  0.0337
  180MOL    C8336241   4.530   2.947   0.144  0.9227  0.0196  0.1053
  180MOL    C8436242   4.523   3.082   0.128  0.2286 -0.0292  0.2375
  180MOL    C8536243   4.570   3.186   0.222  0.1118 -0.2090 -0.5944
  180MOL    H8636244   4.455   2.914   7.923 -1.3481  0.3708  1.1784
  180MOL    H8736245   4.405   2.801   0.063  0.4961 -1.0955 -0.3757
  180MOL    H8836246   4.549   2.903   0.241  0.9765 -1.9960 -0.8017
  180MOL    H8936247   4.490   3.127   0.035 -2.0276  2.8084  2.3416
  180MOL    H9036248   4.494   3.232   0.286  0.0102  0.5458 -1.2406
  180MOL    H9136249   4.602   3.273   0.165  2.4233 -0.7356 -0.1654
  180MOL    C9236250   4.692   3.147   0.296  0.3781  0.1870  0.3647
  180MOL    C9336251   4.760   3.249   0.375  0.1503 -0.1996  0.7823
  180MOL    C9436252   4.857   3.329   0.337 -0.5239 -0.0137 -0.5101
  180MOL    C9536253   4.928   3.421   0.429  0.1035  0.6721  0.0550
  180MOL    H9636254   4.650   3.069   0.360 -0.5742 -0.0247 -0.5044
  180MOL    H9736255   4.770   3.095   0.240  1.2000  1.9000 -0.1062
  180MOL    H9836256   4.723   3.245   0.476 -0.6570  0.4047  0.5141
  180MOL    H9936257   4.892   3.333   0.235  0.9248  1.1301  0.0106
  180MOL   H10036258   4.894   3.402   0.531 -0.4692  1.4056  0.0017
  180MOL   H10136259   4.903   3.524   0.402 -0.9554 -0.0199 -1.5934
  180MOL   C10236260   5.083   3.405   0.433 -0.4527 -0.2230  0.1406
  180MOL   C10336261   5.140   3.528   0.499 -0.0430  0.4586 -0.5028
  180MOL   C10436262   5.231   3.613   0.448  0.0747  0.8159  0.0629
  180MOL   C10536263   5.304   3.727   0.529  0.5999 -0.5984 -0.3484
  180MOL   H10636264   5.118   3.313   0.479 -1.3134  0.4005  2.0835
  180MOL   H10736265   5.111   3.406   0.327 -2.3665  2.0738 -0.4008
  180MOL   H10836266   5.098   3.540   0.598  0.0585 -0.5566 -0.3347
  180MOL   H10936267   5.268   3.597   0.348 -0.6386 -2.4654  0.2767
  180MOL   H11036268   5.280   3.716   0.635  1.7055 -0.1066 -0.0446
  180MOL   H11136269   5.251   3.819   0.505 -1.7457 -1.3901  1.5631
  180MOL   C11236270   5.452   3.736   0.511  0.0212  0.2776 -0.1567
  180MOL   C11336271   5.502   3.705   0.374  0.5255 -0.2105  0.5830
  180MOL   C11436272   5.551   3.802   0.288 -0.4768  0.6297  0.0301
  180MOL   C11536273   5.592   3.754   0.146 -0.5600 -0.7729  0.2753
  180MOL   H11636274   5.485   3.834   0.547 -1.0595  1.0679 -1.2619
  180MOL   H11736275   5.503   3.669   0.580  1.2349 -0.1627 -1.4472
  180MOL   H11836276   5.502   3.603   0.340 -0.5993 -0.3036  0.8159
  180MOL   H11936277   5.542   3.908   0.310 -0.3303  0.7140 -0.3087
  180MOL   H12036278   5.617   3.648   0.144  0.7154 -0.5772  2.8738
  180MOL   H12136279   5.685   3.805   0.119 -0.8514 -0.3974 -0.0197
  180MOL   C12236280   5.490   3.805   0.044 -0.0083 -0.3033 -0.0244
  180MOL   C12336281   5.384   3.704   0.014  1.6378 -0.2346 -0.0208
  180MOL   C12436282   5.252   3.740   0.004  0.3737  0.7448 -0.1713
  180MOL   C12536283   5.148   3.643   7.936 -0.2936  0.0033 -0.2232
  180MOL   H12636284   5.451   3.898   0.085 -1.6186 -0.2680 -1.5844
  180MOL   H12736285   5.542   3.839   7.932  1.0934  0.0764  0.7608
  180MOL   H12836286   5.428   3.609   7.964  2.0833 -0.2805  0.8639
  180MOL   H12936287   5.229   3.841   0.033  0.6886  0.9648 -0.6720
  180MOL   H13036288   5.183   3.540   7.934 -1.8968 -0.5261 -2.7590
  180MOL   H13136289   5.107   3.672   7.839 -0.2125 -1.4689 -0.6998
  180MOL   C13236290   5.023   3.638   0.046  0.3476 -0.1187  0.1533
  180MOL   C13336291   4.920   3.543   7.964  0.3681  0.1075 -0.0845
  180MOL   C13436292   4.810   3.574   7.888 -0.2237 -0.9224  0.1004
  180MOL   C13536293   4.729   3.472   7.815  0.2171 -0.4755 -0.8603
  180MOL   H13636294   5.040   3.616   0.151  3.0461 -0.5695 -0.3386
  180MOL   H13736295   4.988   3.742   0.048  0.3507 -0.0889 -0.9226
  180MOL   H13836296   4.946   3.439   7.969 -0.1479  0.0589  3.3843
  180MOL   H13936297   4.795   3.679   7.870  1.0262 -0.7226  0.1917
  180MOL   H14036298   4.746   3.370   7.848  1.7298  0.0082 -0.1393
  180MOL   H14136299   4.772   3.466   7.715  3.6012  0.1885  0.5042
  180MOL   C14236300   4.577   3.510   7.825  0.0313  0.7274 -0.1714
  180MOL   C14336301   4.501   3.402   7.748 -0.1493 -0.2855 -0.3049
  180MOL   C14436302   4.423   3.313   7.804  0.3863  0.5990  0.5867
  180MOL   C14536303   4.344   3.210   7.724  0.7760 -0.6017 -0.1988
  180MOL   H14636304   4.554   3.506   7.932 -0.8819  0.4037 -0.3820
  180MOL   H14736305   4.556   3.613   7.799 -0.1208  1.1819  1.6505
  180MOL   H14836306   4.521   3.412   7.642 -0.6191  0.2231 -0.3496
  180MOL   H14936307   4.395   3.314   7.908 -1.4231 -0.2992  0.1385
  180MOL   H15036308   4.396   3.116   7.739 -0.0025 -1.2621 -1.6051
  180MOL   H15136309   4.324   3.246   7.623 -1.1065 -0.8504  0.0629
  180MOL   C15236310   4.203   3.189   7.762 -0.2481 -0.4779 -0.5346
  180MOL   C15336311   4.178   3.179   7.908 -0.0803  1.0216 -0.1119
  180MOL   C15436312   4.078   3.249   7.973 -0.0563  0.8200  0.4380
  180MOL   C15536313   4.058   3.255   0.144  0.5344  0.3927  0.4371
  180MOL   H15636314   4.141   3.271   7.725 -0.0844 -0.1911 -0.1738
  180MOL   H15736315   4.175   3.099   7.707 -1.9797  0.0071 -0.4881
  180MOL   H15836316   4.242   3.118   7.971 -1.1926 -2.0933 -1.8550
  180MOL   H15936317   4.025   3.318   7.909 -0.9784  0.1877  0.5221
  180MOL   H16036318   4.096   3.353   0.174 -0.0004  1.2010 -1.4103
  180MOL   H16136319   4.120   3.176   0.184 -0.1347  0.0051  0.7133
  180MOL   C16236320   3.909   3.238   0.175 -0.6838 -0.3050 -0.0902
  180MOL   C16336321   3.883   3.207   0.325 -0.4681  0.4893 -0.8078
  180MOL   C16436322   3.801   3.282   0.407  0.6748  0.3207  0.4674
  180MOL   C16536323   3.766   3.238   0.549 -0.1379  0.2399  0.3691
  180MOL   H16636324   3.862   3.331   0.142  0.1435  0.7214  1.5253
  180MOL   H16736325   3.887   3.152   0.112 -1.0530 -0.4177  0.1931
  180MOL   H16836326   3.940   3.125   0.366  1.4660  2.0429 -0.3399
  180MOL   H16936327   3.758   3.370   0.362 -0.8460 -1.4212 -1.5745
  180MOL   H17036328   3.773   3.319   0.621 -2.4794  0.8156  0.0182
  180MOL   H17136329   3.835   3.165   0.591  1.9222  0.8311 -1.8678
  180MOL   C17236330   3.622   3.177   0.552 -0.1923 -0.3869 -0.3736
  180MOL   C17336331   3.619   3.041   0.487 -0.8331 -0.6527  0.4463
  180MOL   C17436332   3.608   2.924   0.552 -0.5603 -0.4308  0.3876
  180MOL   C17536333   3.590   2.793   0.474 -1.2859 -0.5167 -0.5009
  180MOL   H17636334   3.604   3.169   0.659  0.0421  0.1078 -0.2917
  180MOL   H17736335   3.544   3.236   0.503  0.6308  0.0423 -1.2038
  180MOL   H17836336   3.630   3.045   0.380 -0.0229  1.3438  0.5811
  180MOL   H17936337   3.602   2.910   0.659 -0.6149 -2.0072  0.1769
  180MOL   H18036338   3.570   2.818   0.370  1.3476  2.8062 -0.3100
  180MOL   H18136339   3.516   2.733   0.527 -1.3826  0.1318  0.1053
  180MOL   C18236340   3.710   2.699   0.495  0.2222 -0.4510 -0.5160
  180MOL   C18336341   3.683   2.578   0.414 -0.1234 -0.5792 -0.1634
  180MOL   C18436342   3.738   2.559   0.291 -0.0661  0.0854  0.0346
  180MOL   C18536343   3.706   2.456   0.189 -0.6281 -0.0462  0.1712
  180MOL   H18636344   3.799   2.757   0.468  1.0028 -1.7971 -0.8621
  180MOL   H18736345   3.708   2.682   0.602  3.0707 -1.8571 -0.6284
  180MOL   H18836346   3.608   2.508   0.446  0.1501 -1.5133 -1.5216
  180MOL   H18936347   3.797   2.636   0.246 -0.3526  0.5476  0.4469
  180MOL   H19036348   3.631   2.503   0.126 -0.8112 -0.4748  0.0661
  180MOL   H19136349   3.652   2.384   0.250 -0.4734 -0.5389 -0.2701
  180MOL   C19236350   3.831   2.402   0.115 -0.5883 -0.0111 -0.0646
  180MOL   C19336351   3.791   2.347   7.956 -0.1319  0.2666 -0.3103
  180MOL   C19436352   3.830   2.414   7.844 -0.3605  0.2744  0.4414
  180MOL   C19536353   3.794   2.375   7.705  0.3960 -0.2617  0.7820
  180MOL   H19636354   3.904   2.482   0.103 -2.6352  1.8754 -0.2859
  180MOL   H19736355   3.877   2.319   0.168 -2.6482 -0.1547  1.5539
  180MOL   H19836356   3.732   2.257   7.945  0.3247 -0.2053  1.0210
  180MOL   H19936357   3.885   2.506   7.857 -1.2449  1.0103 -0.8490
  180MOL   H20036358   3.871   2.411   7.635  0.0871  1.9362  1.5358
  180MOL   H20136359   3.697   2.412   7.672  0.6139 -0.8931 -0.6117
  180MOL   H20236360   3.788   2.266   7.713 -0.1407 -0.3781 -0.9734
  181MOL     C136361   5.026   2.608   4.452  0.6851  0.4358 -0.2878
  181MOL     C236362   5.114   2.628   4.334  0.0998  0.7642 -0.2991
  181MOL     C336363   5.168   2.746   4.299 -0.4667 -0.0573 -0.5372
  181MOL     C436364   5.271   2.772   4.191 -0.0802  0.0209  0.5151
  181MOL     H536365   4.965   2.693   4.482 -2.3317 -1.0831 -1.7856
  181MOL     H636366   5.087   2.570   4.534  1.1575 -0.9076 -1.2497
  181MOL     H736367   5.135   2.545   4.268  2.0831  2.3726 -1.7322
  181MOL     H836368   5.140   2.830   4.361  1.9294  0.4255 -0.0866
  181MOL     H936369   5.220   2.820   4.108  0.8341  0.4678  0.2111
  181MOL    H1036370   5.312   2.678   4.155  0.5561 -0.3072  2.0420
  181MOL    H1136371   4.956   2.534   4.413 -1.6862  2.5326 -0.1585
  181MOL    C1236372   5.392   2.857   4.229  1.0471  0.2029 -0.0711
  181MOL    C1336373   5.462   2.907   4.107 -0.5372  0.3565  0.1437
  181MOL    C1436374   5.484   3.036   4.079 -0.2804  0.5233  0.3517
  181MOL    C1536375   5.552   3.078   3.949 -0.4400 -0.3256 -0.3609
  181MOL    H1636376   5.360   2.938   4.295 -2.7708 -1.5134  0.3293
  181MOL    H1736377   5.465   2.807   4.293 -0.4446 -2.4034 -0.3646
  181MOL    H1836378   5.485   2.834   4.031  2.6784 -0.2809  1.6328
  181MOL    H1936379   5.453   3.113   4.149  0.8116  0.9827  0.3420
  181MOL    H2036380   5.486   3.149   3.900 -0.3091  0.4797  0.6036
  181MOL    H2136381   5.574   2.995   3.882  0.1930 -1.9890  1.8490
  181MOL    C2236382   5.677   3.155   3.956 -0.3678  0.0901 -0.1864
  181MOL    C2336383   5.739   3.196   3.821 -0.2803  0.2985 -0.1391
  181MOL    C2436384   5.854   3.144   3.770 -0.6584 -0.2008 -0.3708
  181MOL    C2536385   5.925   3.192   3.644  0.4553  0.2636  0.0831
  181MOL    H2636386   5.661   3.240   4.023  2.3708 -0.5121  1.3088
  181MOL    H2736387   5.762   3.106   4.004 -0.1395  1.7929  1.2034
  181MOL    H2836388   5.687   3.279   3.776 -0.5208  0.2641  0.0742
  181MOL    H2936389   5.910   3.073   3.828  3.2537 -0.1717 -3.9421
  181MOL    H3036390   5.939   3.105   3.581  1.1701 -0.0568  0.6782
  181MOL    H3136391   6.029   3.213   3.668  0.6422 -0.9905  0.3875
  181MOL    C3236392   5.872   3.310   3.559  0.4316 -0.1765 -0.3607
  181MOL    C3336393   5.949   3.315   3.427 -0.5896  0.0274  0.1718
  181MOL    C3436394   5.894   3.339   3.307  0.0017  0.2043  0.5151
  181MOL    C3536395   5.975   3.376   3.181  0.0365  0.1455 -0.4248
  181MOL    H3636396   5.765   3.300   3.542  0.2200  0.2063  0.7018
  181MOL    H3736397   5.892   3.409   3.599  1.3911 -0.2847 -0.5633
  181MOL    H3836398   6.057   3.315   3.431 -0.5939  0.6246  0.4111
  181MOL    H3936399   5.787   3.357   3.305 -0.1512 -0.6892  0.6113
  181MOL    H4036400   5.914   3.358   3.092 -2.8795 -0.2898  1.5732
  181MOL    H4136401   6.064   3.315   3.165  0.7605  1.2943 -0.7917
  181MOL    C4236402   6.012   3.528   3.181 -0.5921  0.3528  0.5318
  181MOL    C4336403   6.093   3.564   3.056 -0.0822  0.3918  0.1240
  181MOL    C4436404   6.220   3.599   3.069 -0.3321  0.1998 -0.0747
  181MOL    C4536405   6.305   3.638   2.949 -1.0245  0.0551 -0.6161
  181MOL    H4636406   5.922   3.589   3.178  0.8673  2.5226 -0.0103
  181MOL    H4736407   6.058   3.564   3.273 -1.9825  0.0585  1.3496
  181MOL    H4836408   6.048   3.580   2.959  0.2912 -0.5307 -0.1995
  181MOL    H4936409   6.271   3.608   3.164 -1.0291  1.5087  0.1854
  181MOL    H5036410   6.314   3.747   2.955  1.8697 -0.1664 -0.3936
  181MOL    H5136411   6.251   3.608   2.859 -1.9184  1.0633 -0.4263
  181MOL    C5236412   6.443   3.568   2.958  0.0492 -0.3811 -0.3221
  181MOL    C5336413   6.521   3.592   2.828  0.9342  0.3018 -0.2045
  181MOL    C5436414   6.642   3.651   2.827 -0.1444 -0.3218 -0.1014
  181MOL    C5536415   6.735   3.676   2.708 -0.5945 -0.1267 -0.8933
  181MOL    H5636416   6.499   3.606   3.044 -1.5971 -1.2792  1.1936
  181MOL    H5736417   6.426   3.461   2.970  2.4222 -0.6020  1.4355
  181MOL    H5836418   6.477   3.561   2.735  1.5231  1.0638 -0.7392
  181MOL    H5936419   6.677   3.696   2.919 -2.1570 -0.0899  0.5708
  181MOL    H6036420   6.820   3.608   2.712 -0.1622  0.4068 -0.8585
  181MOL    H6136421   6.783   3.772   2.726 -0.3605 -0.1114 -1.5799
  181MOL    C6236422   6.677   3.680   2.566  0.3062  0.4562 -0.4617
  181MOL    C6336423   6.784   3.678   2.457 -0.5215 -0.9677  0.1526
  181MOL    C6436424   6.763   3.724   2.333  0.0400 -0.1748 -0.8740
  181MOL    C6536425   6.872   3.744   2.221  0.3104 -0.0339  0.4222
  181MOL    H6636426   6.607   3.597   2.550  0.1077  0.2386  1.4567
  181MOL    H6736427   6.611   3.764   2.544 -1.2237 -0.5399  0.2260
  181MOL    H6836428   6.880   3.633   2.475 -0.3518 -1.2385 -1.3835
  181MOL    H6936429   6.667   3.765   2.305  0.1881  1.3938  0.8309
  181MOL    H7036430   6.822   3.738   2.125 -1.1503  1.0977  1.0932
  181MOL    H7136431   6.945   3.662   2.221  0.6214  0.2363 -0.5408
  181MOL    C7236432   6.940   3.881   2.234 -0.2468  0.5493 -0.1089
  181MOL    C7336433   7.002   3.916   2.374 -0.2462 -0.5166  0.0014
  181MOL    C7436434   6.981   4.028   2.451  0.0203  0.0183 -0.1015
  181MOL    C7536435   7.045   4.045   2.589  0.3574 -0.3116  0.2164
  181MOL    H7636436   7.024   3.883   2.164 -0.2335  1.7993 -0.0565
  181MOL    H7736437   6.863   3.951   2.204 -0.1257  1.1556  0.9707
  181MOL    H7836438   7.063   3.839   2.417 -2.7280 -1.0872  2.6940
  181MOL    H7936439   6.924   4.111   2.411  2.3848  0.9731 -1.6032
  181MOL    H8036440   7.126   3.975   2.607 -0.4526 -1.6688 -1.2239
  181MOL    H8136441   6.967   4.010   2.657  1.1560 -0.5572  1.0112
  181MOL    C8236442   7.094   4.191   2.616  0.1825  0.1849 -0.5869
  181MOL    C8336443   6.984   4.286   2.617  0.3480  0.1326 -0.4870
  181MOL    C8436444   6.987   4.400   2.554 -0.1989 -0.5199 -0.2407
  181MOL    C8536445   6.886   4.509   2.562 -0.0607  0.5967  0.1226
  181MOL    H8636446   7.134   4.178   2.716  0.8292 -0.1766 -0.8890
  181MOL    H8736447   7.178   4.227   2.556  1.3247  0.5963  1.2335
  181MOL    H8836448   6.917   4.269   2.700  0.6217 -0.2123 -0.3355
  181MOL    H8936449   7.072   4.426   2.492 -0.5999 -1.6233 -1.2646
  181MOL    H9036450   6.934   4.602   2.593  1.8101 -0.1003 -0.5645
  181MOL    H9136451   6.815   4.470   2.634  0.5803  0.5759  0.7558
  181MOL    C9236452   6.818   4.536   2.429  0.5012  0.5914 -0.2313
  181MOL    C9336453   6.703   4.624   2.454  0.7844 -0.5157 -0.3409
  181MOL    C9436454   6.658   4.710   2.364 -0.1150 -0.2962 -0.2251
  181MOL    C9536455   6.524   4.787   2.367 -0.4327 -0.1363  0.3030
  181MOL    H9636456   6.897   4.573   2.364  2.3657 -2.3085  0.2899
  181MOL    H9736457   6.779   4.441   2.393  1.4577  0.0308  0.1982
  181MOL    H9836458   6.634   4.608   2.536 -1.1701 -1.3617 -2.0786
  181MOL    H9936459   6.717   4.728   2.276  0.6670 -0.8750  0.1784
  181MOL   H10036460   6.499   4.842   2.276  1.6346  1.0413  0.4026
  181MOL   H10136461   6.534   4.867   2.440 -0.8968 -0.2196  0.4623
  181MOL   C10236462   6.403   4.707   2.410 -0.1823  0.8531  0.0684
  181MOL   C10336463   6.298   4.799   2.452  0.7383  0.2821  0.0006
  181MOL   C10436464   6.183   4.823   2.382 -0.1317  0.0089  0.0439
  181MOL   C10536465   6.088   4.939   2.419 -0.2674 -0.1890  0.4781
  181MOL   H10636466   6.362   4.646   2.330  2.0476  0.7488 -1.0294
  181MOL   H10736467   6.420   4.645   2.499  1.2533  2.1160  0.6957
  181MOL   H10836468   6.320   4.863   2.536 -1.1419  0.2174  0.5726
  181MOL   H10936469   6.158   4.771   2.291 -2.9506 -2.2514  2.0016
  181MOL   H11036470   6.100   5.019   2.346 -0.7496 -2.1561 -1.8545
  181MOL   H11136471   6.102   4.981   2.518  0.4422  2.0970 -0.5402
  181MOL   C11236472   5.942   4.897   2.407  1.4614 -0.0176 -0.3644
  181MOL   C11336473   5.844   5.023   2.419  0.6751  0.1846  0.0514
  181MOL   C11436474   5.724   5.031   2.362 -1.1575  0.1747 -0.1343
  181MOL   C11536475   5.628   5.144   2.352 -0.7143 -0.0929 -0.0568
  181MOL   H11636476   5.919   4.841   2.317 -1.0989 -1.4825  1.1392
  181MOL   H11736477   5.926   4.822   2.484 -0.7242 -1.1258 -1.8353
  181MOL   H11836478   5.891   5.109   2.465 -0.5726  1.4756 -1.0464
  181MOL   H11936479   5.687   4.941   2.317 -1.0011 -0.1972  0.4792
  181MOL   H12036480   5.589   5.143   2.251 -2.0918 -2.6105  0.4488
  181MOL   H12136481   5.688   5.234   2.364  1.2200 -1.1580 -1.4210
  181MOL   C12236482   5.509   5.122   2.446  0.3680  0.0937 -0.4820
  181MOL   C12336483   5.388   5.202   2.407 -0.1313 -0.2887  0.1489
  181MOL   C12436484   5.343   5.301   2.485 -0.1215 -0.2789 -0.1573
  181MOL   C12536485   5.219   5.387   2.460  0.3185 -0.1689  0.0769
  181MOL   H12636486   5.483   5.016   2.447 -3.1105  0.8717 -0.8062
  181MOL   H12736487   5.538   5.151   2.547 -0.1193  0.8384 -0.5496
  181MOL   H12836488   5.346   5.168   2.314 -2.0805  3.0453 -0.2699
  181MOL   H12936489   5.392   5.332   2.576 -0.6238 -0.5000  0.1865
  181MOL   H13036490   5.202   5.388   2.353  0.8532 -2.4554 -0.0600
  181MOL   H13136491   5.241   5.491   2.481 -2.4447  0.9281 -2.2007
  181MOL   C13236492   5.096   5.345   2.537  0.0504 -0.1060  0.0382
  181MOL   C13336493   4.972   5.422   2.493  0.3275 -0.4283 -0.3655
  181MOL   C13436494   4.900   5.503   2.579  0.2055  0.5011 -0.2156
  181MOL   C13536495   4.761   5.558   2.541 -0.0942  0.3011  0.6538
  181MOL   H13636496   5.063   5.243   2.519 -1.4638  0.0219  1.8745
  181MOL   H13736497   5.113   5.354   2.644 -1.1765  0.2433  0.2205
  181MOL   H13836498   4.931   5.416   2.393  1.1548  0.7635 -0.7792
  181MOL   H13936499   4.938   5.520   2.678  2.2594  1.5399 -1.1343
  181MOL   H14036500   4.698   5.504   2.613  0.3877  1.0050  1.6191
  181MOL   H14136501   4.741   5.516   2.442  1.8283  0.5159  0.1666
  181MOL   C14236502   4.735   5.707   2.551 -0.2947 -0.0155  0.1318
  181MOL   C14336503   4.589   5.739   2.523  0.0968 -0.1444  0.2434
  181MOL   C14436504   4.537   5.823   2.432 -0.6368  0.0086 -0.2480
  181MOL   C14536505   4.390   5.847   2.418 -0.3948 -0.6639  0.4675
  181MOL   H14636506   4.763   5.745   2.649 -3.4495  0.6465  0.8172
  181MOL   H14736507   4.796   5.768   2.483  1.6480 -0.9236  1.0327
  181MOL   H14836508   4.515   5.678   2.572 -1.0385 -0.6426 -2.0031
  181MOL   H14936509   4.599   5.886   2.370  0.7847 -1.1922 -0.0829
  181MOL   H15036510   4.324   5.789   2.482  2.0576 -2.2525  1.6000
  181MOL   H15136511   4.375   5.808   2.317 -2.5160  1.2389 -0.0062
  181MOL   C15236512   4.356   5.994   2.438 -0.6079 -0.3575 -0.3859
  181MOL   C15336513   4.207   6.025   2.432  0.4458 -0.8404  0.2111
  181MOL   C15436514   4.147   6.089   2.533  0.3699  0.2780  0.5492
  181MOL   C15536515   3.998   6.118   2.548  0.6133 -0.0760  0.0357
  181MOL   H15636516   4.404   6.038   2.525  1.0092 -2.9168  0.0862
  181MOL   H15736517   4.413   6.043   2.360  0.8634 -1.2663  0.1029
  181MOL   H15836518   4.151   5.982   2.350  0.3750  1.5285 -1.0465
  181MOL   H15936519   4.214   6.134   2.605  2.4617 -0.5713 -0.8025
  181MOL   H16036520   3.964   6.053   2.628  0.6197  0.1782  0.2459
  181MOL   H16136521   3.940   6.102   2.458 -0.8215  4.6821 -0.0347
  181MOL   C16236522   3.952   6.262   2.584  0.0723 -0.3098  1.1692
  181MOL   C16336523   3.982   6.365   2.472 -0.4763 -0.2503 -0.8670
  181MOL   C16436524   3.889   6.442   2.411  0.1844  0.7006  0.3269
  181MOL   C16536525   3.909   6.547   2.302 -0.5593 -0.3750  0.9497
  181MOL   H16636526   3.847   6.264   2.610 -0.8068  3.6962 -2.0727
  181MOL   H16736527   3.988   6.298   2.680  0.8841 -0.7118  1.0221
  181MOL   H16836528   4.086   6.376   2.445 -0.9373  3.5661 -1.3298
  181MOL   H16936529   3.786   6.432   2.441  0.3983  1.7666  1.4568
  181MOL   H17036530   3.913   6.646   2.348 -1.2813 -0.1747  0.5888
  181MOL   H17136531   3.814   6.539   2.248 -1.5296  1.7273  2.2596
  181MOL   C17236532   4.027   6.528   2.211  0.2127  0.0178 -0.5852
  181MOL   C17336533   4.046   6.635   2.112  0.1891 -0.5240  0.1468
  181MOL   C17436534   3.965   6.735   2.088 -0.2990  0.3175  0.0949
  181MOL   C17536535   3.984   6.835   1.971 -0.4911 -0.5153 -0.0350
  181MOL   H17636536   4.114   6.508   2.273 -0.7061 -0.7149  0.4817
  181MOL   H17736537   4.021   6.445   2.140 -1.6562 -0.1005 -0.3140
  181MOL   H17836538   4.132   6.617   2.049 -1.2523 -1.6933 -1.5057
  181MOL   H17936539   3.890   6.756   2.163  1.5277  1.8311  1.5361
  181MOL   H18036540   3.886   6.852   1.926 -0.6130 -1.8671 -0.2878
  181MOL   H18136541   4.042   6.787   1.892  1.8142  1.5191  0.3511
  181MOL   C18236542   4.055   6.968   2.010 -0.9743  0.1784 -0.9161
  181MOL   C18336543   4.045   7.078   1.911 -0.1123 -0.5076 -0.3782
  181MOL   C18436544   4.152   7.117   1.839 -0.8809  0.2241  1.3799
  181MOL   C18536545   4.162   7.216   1.722 -0.7387 -0.6665 -1.2156
  181MOL   H18636546   4.024   7.007   2.107 -1.9881  1.3379 -1.6840
  181MOL   H18736547   4.158   6.937   2.030 -0.3949  1.3106 -2.0567
  181MOL   H18836548   3.945   7.119   1.910 -0.3720 -1.0333  1.6822
  181MOL   H18936549   4.244   7.061   1.851 -0.7283  0.1475 -0.0650
  181MOL   H19036550   4.252   7.272   1.747 -0.7961 -1.1449  0.1344
  181MOL   H19136551   4.071   7.276   1.720 -0.2761  0.0356 -1.1637
  181MOL   C19236552   4.166   7.125   1.596  0.1152  0.0333  0.5440
  181MOL   C19336553   4.159   7.204   1.471 -0.0434 -0.3874 -0.1341
  181MOL   C19436554   4.255   7.214   1.379 -0.4360 -0.4461 -1.0949
  181MOL   C19536555   4.254   7.283   1.251 -1.0994 -0.0093 -0.0337
  181MOL   H19636556   4.248   7.054   1.594 -0.3676 -0.5316  0.6189
  181MOL   H19736557   4.074   7.067   1.596  0.0388  0.1273 -1.0709
  181MOL   H19836558   4.066   7.258   1.468 -0.4758 -1.0804  0.5379
  181MOL   H19936559   4.349   7.161   1.391  0.1773  0.9451  0.5422
  181MOL   H20036560   4.160   7.336   1.238 -1.6979 -1.5204 -2.1472
  181MOL   H20136561   4.255   7.209   1.171 -0.2516 -0.3336  0.2740
  181MOL   H20236562   4.341   7.345   1.228 -0.7286  0.2928  2.0704
  182MOL     C136563   0.169   6.431   7.761  0.0442 -0.1984  0.0864
  182MOL     C236564   0.037   6.457   7.696 -0.5386 -0.4898  0.2083
  182MOL     C336565   0.014   6.443   7.562  0.1652  0.4651  0.0647
  182MOL     C436566   7.864   6.471   7.486 -0.6290  0.1313 -0.1002
  182MOL     H536567   0.244   6.446   7.683  0.3551  1.5694  0.7058
  182MOL     H636568   0.174   6.327   7.794 -0.3008 -0.7672 -1.5897
  182MOL     H736569   7.928   6.484   7.755  0.2882 -1.5161  1.9123
  182MOL     H836570   0.095   6.404   7.501 -1.3800 -3.4357  0.3796
  182MOL     H936571   7.789   6.483   7.564 -0.1090  0.9838  0.2602
  182MOL    H1036572   7.835   6.385   7.424  0.7259  0.2302 -0.8881
  182MOL    H1136573   0.197   6.498   7.842  1.2299 -1.4476  0.7275
  182MOL    C1236574   7.870   6.589   7.395  0.1324  0.1626  0.1353
  182MOL    C1336575   7.771   6.586   7.282  0.0967 -0.7792 -0.2399
  182MOL    C1436576   7.772   6.494   7.185  0.4390  0.0475  0.2729
  182MOL    C1536577   7.674   6.493   7.063  0.1199 -0.6673 -0.4950
  182MOL    H1636578   7.871   6.684   7.449  1.1269 -0.3877  1.1209
  182MOL    H1736579   7.969   6.592   7.348 -0.4088 -0.4144 -1.0432
  182MOL    H1836580   7.692   6.659   7.281  1.2417  0.6200  3.4496
  182MOL    H1936581   7.841   6.411   7.187  2.4676  1.7305  0.7124
  182MOL    H2036582   7.736   6.475   6.976 -1.3418  0.6905 -1.8459
  182MOL    H2136583   7.632   6.591   7.041  1.3960 -0.1985 -0.8727
  182MOL    C2236584   7.557   6.393   7.080  0.8766 -0.2994  0.0190
  182MOL    C2336585   7.467   6.384   6.955 -1.1233 -0.0083  0.0890
  182MOL    C2436586   7.469   6.283   6.866  0.2242  0.1609  0.0189
  182MOL    C2536587   7.390   6.285   6.735  0.1904  0.6682  0.0556
  182MOL    H2636588   7.595   6.292   7.098  2.7315  0.4810  0.5967
  182MOL    H2736589   7.509   6.426   7.172  1.7087  0.4202  0.1968
  182MOL    H2836590   7.409   6.472   6.933 -1.5100 -1.2280 -4.1092
  182MOL    H2936591   7.534   6.197   6.872  1.2128  0.8818 -0.2048
  182MOL    H3036592   7.313   6.363   6.740  0.1402  0.5527  1.1861
  182MOL    H3136593   7.335   6.191   6.729  1.2877  0.0785 -0.9737
  182MOL    C3236594   7.475   6.291   6.603 -0.2339  0.5386 -0.2092
  182MOL    C3336595   7.394   6.298   6.470  0.0128  0.1357 -0.0486
  182MOL    C3436596   7.402   6.394   6.375 -0.5259  0.4688 -0.5496
  182MOL    C3536597   7.311   6.399   6.256  0.4869  0.0947 -0.0393
  182MOL    H3636598   7.540   6.377   6.617  0.1474  0.1404  0.5289
  182MOL    H3736599   7.542   6.205   6.603  0.2445  0.9125  0.2161
  182MOL    H3836600   7.317   6.224   6.453  1.0867 -0.9654 -0.1833
  182MOL    H3936601   7.474   6.473   6.391 -0.8315  0.5649  0.4393
  182MOL    H4036602   7.273   6.501   6.253  0.5139  0.1179  0.4170
  182MOL    H4136603   7.219   6.341   6.265  0.5957 -0.0294  0.2718
  182MOL    C4236604   7.398   6.354   6.142  0.2149  0.3922  1.0404
  182MOL    C4336605   7.326   6.349   6.015  0.0896 -0.1890  0.2403
  182MOL    C4436606   7.334   6.256   5.922 -0.0567  0.7342 -0.2489
  182MOL    C4536607   7.273   6.267   5.776  0.5766  0.2508  0.1347
  182MOL    H4636608   7.490   6.410   6.127 -0.5410  1.2190 -0.7332
  182MOL    H4736609   7.431   6.254   6.168  0.9182  0.4226  0.2957
  182MOL    H4836610   7.262   6.435   6.002  1.5371  0.9364  0.3785
  182MOL    H4936611   7.392   6.167   5.943 -2.2692 -0.6670  0.0608
  182MOL    H5036612   7.221   6.362   5.767 -0.8573 -0.7690 -3.1511
  182MOL    H5136613   7.190   6.196   5.767 -1.3171  2.5229 -0.7881
  182MOL    C5236614   7.375   6.250   5.662 -0.1134 -0.2367 -0.1595
  182MOL    C5336615   7.336   6.315   5.530 -0.2177  0.2940  0.3439
  182MOL    C5436616   7.230   6.388   5.501 -0.4720 -0.6164  0.0374
  182MOL    C5536617   7.207   6.457   5.372 -0.4275 -0.1772 -0.2263
  182MOL    H5636618   7.465   6.297   5.701 -0.3306 -1.1166  1.4660
  182MOL    H5736619   7.410   6.147   5.655 -0.5066 -0.5238  1.7591
  182MOL    H5836620   7.408   6.298   5.452 -0.1847 -0.9316  0.6188
  182MOL    H5936621   7.156   6.407   5.577  2.0651 -0.0030  2.4086
  182MOL    H6036622   7.291   6.435   5.307 -0.5055  1.1717 -0.8040
  182MOL    H6136623   7.218   6.564   5.392  3.4541 -0.7550  1.0596
  182MOL    C6236624   7.068   6.427   5.321 -0.1874  0.2548 -0.1443
  182MOL    C6336625   7.054   6.484   5.188 -0.4588  0.3520 -0.5714
  182MOL    C6436626   7.047   6.414   5.078 -0.1709 -0.0288  0.0893
  182MOL    C6536627   7.060   6.472   4.943 -0.4124 -0.6825 -0.3774
  182MOL    H6636628   7.063   6.318   5.321  0.9379  0.1932  0.4951
  182MOL    H6736629   6.994   6.470   5.388 -0.6431 -2.1889  1.0041
  182MOL    H6836630   7.063   6.592   5.188  1.7087  0.2083  0.9747
  182MOL    H6936631   7.041   6.307   5.086 -2.6688  0.1909  1.6034
  182MOL    H7036632   7.013   6.570   4.937 -1.4544 -1.1714 -0.2488
  182MOL    H7136633   6.997   6.406   4.884  0.7482 -2.5325  0.3973
  182MOL    C7236634   7.211   6.465   4.890 -0.2128  0.0430  0.0204
  182MOL    C7336635   7.307   6.547   4.986 -0.6581  0.1042  0.8952
  182MOL    C7436636   7.420   6.500   5.045  0.3262 -0.0738  0.1540
  182MOL    C7536637   7.517   6.585   5.128  0.0130  0.5139  0.0324
  182MOL    H7636638   7.240   6.360   4.881  0.9755  0.1895  1.9183
  182MOL    H7736639   7.226   6.494   4.786  0.9786  2.1354  0.7492
  182MOL    H7836640   7.267   6.645   5.009 -1.4715 -0.0531  0.1829
  182MOL    H7936641   7.452   6.398   5.029  0.5217  0.0254 -0.0827
  182MOL    H8036642   7.547   6.513   5.204 -1.2428 -0.5737 -0.4732
  182MOL    H8136643   7.457   6.659   5.182  0.8857  0.6090  0.8881
  182MOL    C8236644   7.630   6.633   5.045 -0.4414  0.5123  0.0385
  182MOL    C8336645   7.743   6.692   5.128 -0.4192 -0.7224 -0.0238
  182MOL    C8436646   7.780   6.823   5.121  0.4960  0.0045 -0.1485
  182MOL    C8536647   7.889   6.888   5.211  0.4124 -0.3405  0.4837
  182MOL    H8636648   7.671   6.565   4.971 -1.9432  0.1332 -0.4651
  182MOL    H8736649   7.587   6.720   4.994  1.8102  1.2280 -0.6860
  182MOL    H8836650   7.794   6.629   5.200 -1.4399 -0.9576  0.5100
  182MOL    H8936651   7.713   6.896   5.078 -2.1575 -1.6872  0.9541
  182MOL    H9036652   7.949   6.947   5.141  0.5173  0.2350  1.0517
  182MOL    H9136653   7.970   6.826   5.251  0.1330 -0.7045  0.4826
  182MOL    C9236654   7.831   6.973   5.330 -0.6432 -0.1903  0.3458
  182MOL    C9336655   7.932   7.063   5.395 -0.0256 -0.0499  0.0591
  182MOL    C9436656   7.928   7.199   5.390 -1.3767 -0.3255  0.2876
  182MOL    C9536657   0.058   7.297   5.448  0.5105  0.7812  0.2882
  182MOL    H9636658   7.750   7.035   5.293  0.2344  0.2446 -0.9138
  182MOL    H9736659   7.799   6.913   5.415  3.0792  0.2525  2.1666
  182MOL    H9836660   0.032   7.015   5.454  1.6978  3.0110  0.4391
  182MOL    H9936661   7.847   7.241   5.333 -0.5974 -0.8222 -1.2168
  182MOL   H10036662   0.074   7.268   5.552  0.2201 -0.8454 -0.1091
  182MOL   H10136663   0.014   7.397   5.448 -1.9148 -0.2214 -1.1686
  182MOL   C10236664   0.200   7.296   5.381 -0.7058 -0.0452 -0.0693
  182MOL   C10336665   0.299   7.373   5.469  0.1723 -0.0313 -1.0088
  182MOL   C10436666   0.421   7.331   5.510  0.3360 -0.4237  0.0690
  182MOL   C10536667   0.530   7.415   5.575  0.0555  0.6935 -0.0499
  182MOL   H10636668   0.251   7.200   5.371  3.0285  1.4586  3.3190
  182MOL   H10736669   0.197   7.356   5.290  0.8946  0.0906 -0.0472
  182MOL   H10836670   0.276   7.477   5.487 -1.6914 -0.6553  0.2949
  182MOL   H10936671   0.454   7.229   5.498  4.2997  0.9010 -0.7008
  182MOL   H11036672   0.539   7.381   5.678  1.2114 -0.1963 -0.4324
  182MOL   H11136673   0.489   7.515   5.588 -1.8086  0.0418 -0.7310
  182MOL   C11236674   0.662   7.423   5.497  0.0115  1.1994 -0.0065
  182MOL   C11336675   0.786   7.467   5.572  0.2533  0.1599 -0.2762
  182MOL   C11436676   0.797   7.517   5.697  0.3328 -0.2866  0.3819
  182MOL   C11536677   0.926   7.581   5.745 -0.2012 -0.6122  0.5711
  182MOL   H11636678   0.676   7.320   5.465  0.3404  1.3561 -0.3686
  182MOL   H11736679   0.657   7.475   5.402 -2.6706  1.3618  0.1823
  182MOL   H11836680   0.876   7.454   5.514  0.2043 -1.4177 -0.0254
  182MOL   H11936681   0.709   7.518   5.760  0.4285 -1.1780  0.5406
  182MOL   H12036682   0.928   7.689   5.728  0.3898 -0.4987  1.3257
  182MOL   H12136683   0.999   7.556   5.669 -1.5383 -1.8638 -0.3232
  182MOL   C12236684   0.959   7.549   5.886  0.0639  0.4837  0.2014
  182MOL   C12336685   1.034   7.413   5.880  0.3948 -0.5932  0.3536
  182MOL   C12436686   1.161   7.384   5.892  0.5058  0.1968  0.4701
  182MOL   C12536687   1.216   7.242   5.895 -0.3906 -1.2530 -0.0553
  182MOL   H12636688   1.028   7.625   5.920  1.7228 -0.2695 -1.3814
  182MOL   H12736689   0.874   7.549   5.954  2.4275  1.7038  3.2473
  182MOL   H12836690   0.967   7.330   5.862  1.3445 -1.1773 -0.4888
  182MOL   H12936691   1.239   7.458   5.901 -0.4541  1.3891 -0.6859
  182MOL   H13036692   1.282   7.231   5.809 -0.6889 -1.4369 -0.2568
  182MOL   H13136693   1.131   7.180   5.868 -0.1493 -1.1017 -1.1924
  182MOL   C13236694   1.291   7.224   6.028  0.2176  0.2664  0.8292
  182MOL   C13336695   1.354   7.089   6.042  0.4329  0.0042 -0.0327
  182MOL   C13436696   1.328   6.996   6.138 -0.7386 -0.5631 -1.2196
  182MOL   C13536697   1.400   6.862   6.163 -0.0000 -0.1809 -0.5341
  182MOL   H13636698   1.370   7.299   6.039  0.6515 -0.0696  0.0165
  182MOL   H13736699   1.226   7.246   6.112 -1.7215  0.2073 -0.6196
  182MOL   H13836700   1.426   7.058   5.968 -0.6543  1.2940 -1.6648
  182MOL   H13936701   1.262   7.025   6.218 -1.0081 -3.8586 -0.1684
  182MOL   H14036702   1.481   6.857   6.090  1.2096  2.6262  0.5487
  182MOL   H14136703   1.337   6.774   6.157  1.0957 -0.9409 -0.9460
  182MOL   C14236704   1.449   6.871   6.311  0.1073 -0.6538 -0.2572
  182MOL   C14336705   1.571   6.956   6.337  0.0576  0.1633  0.4586
  182MOL   C14436706   1.652   6.932   6.441 -0.5277  0.5471  0.3640
  182MOL   C14536707   1.772   7.027   6.466  0.2352 -0.3246  0.0422
  182MOL   H14636708   1.363   6.891   6.375 -0.0755 -1.3340 -0.2832
  182MOL   H14736709   1.487   6.771   6.330  0.1645 -0.7632 -0.9154
  182MOL   H14836710   1.594   7.041   6.274  0.1603 -1.4452 -1.7451
  182MOL   H14936711   1.639   6.851   6.512  1.3912 -0.5778 -0.5219
  182MOL   H15036712   1.738   7.078   6.556 -0.2936 -0.2395 -0.2070
  182MOL   H15136713   1.782   7.102   6.387 -3.0351  0.3563  0.2145
  182MOL   C15236714   1.906   6.969   6.502  0.1118 -0.0183  0.2485
  182MOL   C15336715   1.972   7.041   6.615 -0.9981  0.4552  0.8738
  182MOL   C15436716   2.036   6.966   6.712 -0.0302 -0.4187  0.0417
  182MOL   C15536717   2.125   7.034   6.817 -0.0423  0.2733 -0.7138
  182MOL   H15636718   1.890   6.866   6.532 -1.3086 -0.3288 -1.5476
  182MOL   H15736719   1.978   6.961   6.420 -0.7782  0.4758 -0.5922
  182MOL   H15836720   1.995   7.146   6.601  0.6066  0.0067 -0.0528
  182MOL   H15936721   2.025   6.859   6.708 -1.4136 -0.2218 -4.1207
  182MOL   H16036722   2.096   6.988   6.912  0.5513 -0.3028 -0.8114
  182MOL   H16136723   2.094   7.139   6.810  0.2269  0.3511 -0.7403
  182MOL   C16236724   2.266   7.021   6.785 -0.9791  0.2870 -0.4839
  182MOL   C16336725   2.353   7.070   6.900 -0.2632 -0.0852 -0.2214
  182MOL   C16436726   2.453   7.158   6.885  0.4567 -0.7003  0.4324
  182MOL   C16536727   2.563   7.182   6.987  0.0882 -0.2336  0.2558
  182MOL   H16636728   2.301   6.921   6.758 -1.1320  0.1559 -0.2033
  182MOL   H16736729   2.293   7.081   6.698  1.2230  0.1762  0.0731
  182MOL   H16836730   2.330   7.015   6.990 -3.2648 -0.6667 -1.2934
  182MOL   H16936731   2.471   7.202   6.788 -0.0519 -0.1779  0.5752
  182MOL   H17036732   2.523   7.158   7.085 -0.4837 -1.9567 -0.3716
  182MOL   H17136733   2.590   7.288   6.985 -0.9009  0.0615  1.9747
  182MOL   C17236734   2.686   7.096   6.954 -0.3752 -0.5728 -0.7444
  182MOL   C17336735   2.806   7.129   7.052 -0.0147  0.1873  0.3907
  182MOL   C17436736   2.932   7.105   7.013  0.2359 -0.5564 -0.5970
  182MOL   C17536737   3.060   7.121   7.094  0.1275 -0.1482  0.0622
  182MOL   H17636738   2.650   6.994   6.958  2.3458 -1.7446 -3.4889
  182MOL   H17736739   2.719   7.097   6.850 -1.9765 -3.0148 -1.3036
  182MOL   H17836740   2.784   7.160   7.154 -1.3777 -0.0990  0.1879
  182MOL   H17936741   2.938   7.069   6.911 -1.2561 -4.1864  0.5173
  182MOL   H18036742   3.041   7.153   7.196  1.8677  4.8038 -1.0315
  182MOL   H18136743   3.115   7.196   7.037  2.5558 -1.5106  0.5489
  182MOL   C18236744   3.133   6.983   7.093 -0.3441 -0.2464  0.0103
  182MOL   C18336745   3.275   6.981   7.159 -0.2135  0.2145  0.3420
  182MOL   C18436746   3.347   7.081   7.211 -0.2460  1.2287  0.4604
  182MOL   C18536747   3.482   7.058   7.277 -0.3902  0.1180 -0.2678
  182MOL   H18636748   3.071   6.916   7.152 -1.9102  0.5469 -0.7004
  182MOL   H18736749   3.138   6.941   6.992  1.9645  2.7829 -1.1950
  182MOL   H18836750   3.317   6.881   7.165 -1.3994 -0.2322  1.4530
  182MOL   H18936751   3.305   7.180   7.212  1.3077  1.9003  2.1943
  182MOL   H19036752   3.504   6.952   7.290  1.6500  0.5688  0.1776
  182MOL   H19136753   3.473   7.088   7.381  1.3772 -0.4193  0.0648
  182MOL   C19236754   3.611   7.127   7.227 -0.1891 -0.4798  0.3057
  182MOL   C19336755   3.721   7.117   7.334 -0.3820 -0.5694 -0.1287
  182MOL   C19436756   3.843   7.075   7.307 -0.5274 -0.1982 -0.3133
  182MOL   C19536757   3.955   7.065   7.412  0.0066  0.7804  0.5752
  182MOL   H19636758   3.635   7.083   7.130  0.8869  2.2504 -0.7214
  182MOL   H19736759   3.586   7.231   7.210  3.9661  0.5941  0.2240
  182MOL   H19836760   3.693   7.134   7.437 -2.0490 -0.3277 -0.6143
  182MOL   H19936761   3.875   7.044   7.208 -3.2543 -0.6910 -1.0790
  182MOL   H20036762   4.020   7.153   7.420  0.0483  0.9881 -1.8296
  182MOL   H20136763   4.008   6.974   7.384 -1.3437  0.4658 -1.0216
  182MOL   H20236764   3.911   7.072   7.512 -1.8703  0.8284 -0.2326
  183MOL     C136765   6.714   5.202   7.315 -0.8815 -0.1862 -0.8880
  183MOL     C236766   6.792   5.321   7.368  0.5810  0.6173  0.5705
  183MOL     C336767   6.908   5.359   7.313  0.0335  0.4624  0.2556
  183MOL     C436768   6.979   5.484   7.357  0.6977 -0.0958 -0.3201
  183MOL     H536769   6.705   5.136   7.401  2.0522  1.6358  0.8903
  183MOL     H636770   6.756   5.142   7.235 -1.3837  0.6844 -1.8314
  183MOL     H736771   6.749   5.377   7.450  1.0761  2.4811 -0.4030
  183MOL     H836772   6.955   5.308   7.230 -0.3986 -0.0636  0.3348
  183MOL     H936773   6.929   5.515   7.449  0.2467 -0.3984 -0.4631
  183MOL    H1036774   6.978   5.567   7.285 -0.7412  0.8554  0.7635
  183MOL    H1136775   6.616   5.245   7.293  0.0237  2.2169 -0.3779
  183MOL    C1236776   7.128   5.457   7.403  0.3447 -0.1931 -0.1242
  183MOL    C1336777   7.195   5.586   7.433  0.1803  0.1268  0.8065
  183MOL    C1436778   7.283   5.648   7.357  0.6728 -0.0776 -0.5058
  183MOL    C1536779   7.340   5.786   7.371 -0.0508 -0.0995 -0.0520
  183MOL    H1636780   7.139   5.411   7.501  0.9389  1.1943  0.4700
  183MOL    H1736781   7.196   5.402   7.338  0.2960 -0.4667  0.0539
  183MOL    H1836782   7.159   5.633   7.524 -2.2603 -1.0817  0.5202
  183MOL    H1936783   7.295   5.607   7.258 -0.0893  0.8143 -0.9679
  183MOL    H2036784   7.277   5.865   7.330 -1.0519 -2.0323 -2.4113
  183MOL    H2136785   7.423   5.781   7.300 -1.2899  2.1120 -1.7366
  183MOL    C2236786   7.384   5.823   7.508 -0.6038 -0.3746  0.5076
  183MOL    C2336787   7.265   5.857   7.599  0.0937  0.1792 -0.3929
  183MOL    C2436788   7.251   5.812   7.727  0.1632 -0.4096 -0.2461
  183MOL    C2536789   7.138   5.864   7.811  0.2120 -0.1073 -0.1133
  183MOL    H2636790   7.446   5.749   7.557  0.9196 -0.1309 -0.9897
  183MOL    H2736791   7.449   5.911   7.503 -0.1333 -0.7727 -0.5311
  183MOL    H2836792   7.202   5.940   7.572 -0.3909  0.2460  0.8831
  183MOL    H2936793   7.311   5.733   7.769  1.6426  1.6271  1.5978
  183MOL    H3036794   7.068   5.920   7.749 -0.4252 -0.8155 -0.0419
  183MOL    H3136795   7.167   5.934   7.890 -0.5376  1.4335 -1.1925
  183MOL    C3236796   7.061   5.742   7.868  0.3141 -0.3068  0.2949
  183MOL    C3336797   6.955   5.791   7.962  0.1710  0.2292 -0.7097
  183MOL    C3436798   6.970   5.797   0.121  0.0656 -0.4679  0.0124
  183MOL    C3536799   6.869   5.868   0.212  0.0507  0.1162  0.9259
  183MOL    H3636800   7.028   5.685   7.781  2.0670  0.9796 -1.2565
  183MOL    H3736801   7.126   5.674   7.923  1.3667  0.1920 -0.3032
  183MOL    H3836802   6.871   5.841   7.916 -0.5786 -0.0568  0.3394
  183MOL    H3936803   7.047   5.745   0.176  0.2805  1.4200  1.5738
  183MOL    H4036804   6.836   5.803   0.293 -3.8276 -1.5220 -1.8823
  183MOL    H4136805   6.783   5.894   0.152  1.1272  0.7404 -0.3699
  183MOL    C4236806   6.935   5.995   0.268  0.2423 -0.0283 -0.0670
  183MOL    C4336807   6.835   6.090   0.325 -0.6259 -0.4043 -0.7031
  183MOL    C4436808   6.718   6.063   0.387 -0.3588  0.3859  0.5869
  183MOL    C4536809   6.622   6.173   0.422 -0.9098  0.3157 -0.1669
  183MOL    H4636810   6.998   5.979   0.356  2.9053  4.4535 -1.0055
  183MOL    H4736811   6.991   6.048   0.191 -0.5344 -1.1315 -1.4183
  183MOL    H4836812   6.871   6.191   0.313  2.9409 -1.2432  2.2390
  183MOL    H4936813   6.675   5.964   0.382  0.3857  0.0207  1.4523
  183MOL    H5036814   6.554   6.194   0.339  0.3694 -0.6586 -1.4713
  183MOL    H5136815   6.673   6.269   0.437 -0.2696 -0.3545  2.2076
  183MOL    C5236816   6.545   6.149   0.555  0.0457 -0.1027 -0.1421
  183MOL    C5336817   6.423   6.242   0.562  0.0205  0.2085 -0.0950
  183MOL    C5436818   6.405   6.335   0.660  0.1114 -0.0548 -0.4590
  183MOL    C5536819   6.288   6.441   0.659  1.2733 -0.5300 -0.4850
  183MOL    H5636820   6.509   6.046   0.556 -1.0506  0.2285 -1.8835
  183MOL    H5736821   6.611   6.164   0.640  0.2516  0.6423 -0.4273
  183MOL    H5836822   6.344   6.245   0.488  2.1543 -0.9616 -2.4564
  183MOL    H5936823   6.481   6.329   0.736  0.6779  1.5048 -0.8892
  183MOL    H6036824   6.234   6.434   0.564 -1.0095 -0.2341  0.7572
  183MOL    H6136825   6.327   6.543   0.665  0.0505 -0.0161 -1.1320
  183MOL    C6236826   6.171   6.396   0.760  0.6235  0.2943 -0.5433
  183MOL    C6336827   6.194   6.429   0.907  0.1552  0.2981  0.7462
  183MOL    C6436828   6.187   6.346   1.012 -0.6664  0.1810 -0.4015
  183MOL    C6536829   6.232   6.378   1.152  0.8798 -0.3314  0.1373
  183MOL    H6636830   6.078   6.436   0.719  0.1833 -0.7786 -0.6013
  183MOL    H6736831   6.162   6.289   0.747 -0.4917  0.6105 -2.5693
  183MOL    H6836832   6.231   6.529   0.926 -1.6611  0.9324  1.0119
  183MOL    H6936833   6.153   6.244   1.003 -0.8737  0.2144 -0.0361
  183MOL    H7036834   6.241   6.484   1.172  0.3612 -0.2791  0.1003
  183MOL    H7136835   6.334   6.345   1.169  0.1732 -1.7336  1.9250
  183MOL    C7236836   6.128   6.314   1.248 -0.8470  0.1781  0.1263
  183MOL    C7336837   6.198   6.307   1.380 -0.0172  0.4928 -0.4531
  183MOL    C7436838   6.217   6.193   1.444  0.4021  0.6377 -0.4296
  183MOL    C7536839   6.286   6.171   1.576 -0.4206  0.4727 -0.6540
  183MOL    H7636840   6.036   6.373   1.254 -1.1278 -0.2135 -0.2965
  183MOL    H7736841   6.106   6.216   1.206  1.0158  0.7818 -2.3484
  183MOL    H7836842   6.220   6.403   1.424  2.8124 -0.3050 -0.0274
  183MOL    H7936843   6.188   6.100   1.397  0.3018  1.4786 -2.1030
  183MOL    H8036844   6.221   6.139   1.657  0.9851  0.7886  0.6258
  183MOL    H8136845   6.333   6.266   1.603  2.9356 -1.4451  0.6741
  183MOL    C8236846   6.406   6.072   1.556  0.0213  0.0925  0.1718
  183MOL    C8336847   6.477   6.031   1.686  0.1025  0.4601  0.0472
  183MOL    C8436848   6.609   6.023   1.704  0.1785 -0.1048 -0.3724
  183MOL    C8536849   6.684   5.986   1.834 -0.1078  0.2270  0.4432
  183MOL    H8636850   6.363   5.982   1.512  2.2422 -0.5417 -0.7879
  183MOL    H8736851   6.472   6.129   1.490  2.5115 -0.2312  2.3180
  183MOL    H8836852   6.417   6.005   1.772  0.7180 -1.4293 -0.0664
  183MOL    H8936853   6.671   6.054   1.622  1.4763 -1.4566  0.0812
  183MOL    H9036854   6.612   5.933   1.896 -0.2392 -1.3768 -1.0579
  183MOL    H9136855   6.715   6.075   1.889  1.3750  0.7334 -1.1968
  183MOL    C9236856   6.800   5.889   1.791 -0.1843 -0.6052  0.1430
  183MOL    C9336857   6.894   5.889   1.907 -0.3746  0.0278  0.3195
  183MOL    C9436858   6.932   5.780   1.968 -0.0995 -0.1540  0.3268
  183MOL    C9536859   7.045   5.787   2.075 -0.0189  0.8189  0.2408
  183MOL    H9636860   6.770   5.790   1.756 -0.5505 -0.3726 -0.2108
  183MOL    H9736861   6.860   5.921   1.707 -0.2724  1.1018  0.7104
  183MOL    H9836862   6.953   5.978   1.927  0.5528 -0.7475  1.1174
  183MOL    H9936863   6.890   5.687   1.933 -0.0146  0.4914 -1.5098
  183MOL   H10036864   7.078   5.890   2.089  2.0445  0.2681 -0.3531
  183MOL   H10136865   7.132   5.734   2.037 -2.1299 -1.4514 -1.5742
  183MOL   C10236866   7.011   5.733   2.217 -0.6085 -0.1040 -0.3897
  183MOL   C10336867   7.119   5.759   2.318 -0.4650 -0.2436  0.2257
  183MOL   C10436868   7.173   5.669   2.399 -0.3109 -0.6210  0.0255
  183MOL   C10536869   7.274   5.709   2.510 -1.2398  0.1656 -1.0019
  183MOL   H10636870   6.918   5.784   2.240  0.5068  2.0255 -0.5034
  183MOL   H10736871   6.999   5.624   2.211  1.4522 -0.3589 -0.3298
  183MOL   H10836872   7.145   5.864   2.324 -1.9974  0.0876  1.1306
  183MOL   H10936873   7.132   5.570   2.388 -3.7145  0.7563 -0.3508
  183MOL   H11036874   7.282   5.817   2.508 -0.4262  0.1116 -0.7016
  183MOL   H11136875   7.373   5.670   2.488 -0.2844  1.8599  0.2064
  183MOL   C11236876   7.243   5.649   2.645 -0.2032 -0.5161  0.1530
  183MOL   C11336877   7.115   5.713   2.707 -0.2898  0.2995 -0.0371
  183MOL   C11436878   6.994   5.648   2.706  0.1239 -0.0010  0.2442
  183MOL   C11536879   6.861   5.700   2.760  0.2873  0.6712  0.3523
  183MOL   H11636880   7.225   5.542   2.637  0.9989 -0.5132 -3.5663
  183MOL   H11736881   7.314   5.668   2.725 -0.0827  0.9152 -0.2792
  183MOL   H11836882   7.134   5.799   2.768 -2.0670 -0.6869  1.9551
  183MOL   H11936883   6.984   5.551   2.660 -0.5387 -0.2292  0.8518
  183MOL   H12036884   6.802   5.736   2.676 -1.4555  1.2954  1.8273
  183MOL   H12136885   6.879   5.787   2.824  1.1710  1.0215 -0.3598
  183MOL   C12236886   6.779   5.585   2.839  0.7837 -0.2694 -0.5495
  183MOL   C12336887   6.644   5.635   2.893 -0.4571  0.2623  0.0030
  183MOL   C12436888   6.531   5.610   2.836 -0.0515  0.3102  0.0836
  183MOL   C12536889   6.397   5.670   2.871  0.2341 -0.0032  1.2163
  183MOL   H12636890   6.755   5.495   2.783 -0.4649 -1.0770  1.2295
  183MOL   H12736891   6.844   5.549   2.920  1.7728  0.0141 -1.2044
  183MOL   H12836892   6.640   5.696   2.982 -0.2314  0.4291 -0.1028
  183MOL   H12936893   6.539   5.541   2.754 -2.7381  0.4442 -0.3249
  183MOL   H13036894   6.408   5.755   2.938 -1.3514  0.9772  0.2799
  183MOL   H13136895   6.326   5.599   2.914 -2.1531  1.5824  0.0094
  183MOL   C13236896   6.338   5.712   2.732 -0.1801  0.6777 -0.1956
  183MOL   C13336897   6.210   5.791   2.750 -0.3432 -0.5451  0.3687
  183MOL   C13436898   6.208   5.925   2.756 -0.2531 -0.3134 -0.0271
  183MOL   C13536899   6.078   6.004   2.774 -0.1266 -0.7574  0.4165
  183MOL   H13636900   6.419   5.776   2.697 -0.4650  0.4735 -1.2605
  183MOL   H13736901   6.321   5.634   2.658  2.1159 -0.2999  0.2661
  183MOL   H13836902   6.115   5.738   2.753  0.2457 -1.6807 -0.4040
  183MOL   H13936903   6.294   5.988   2.743 -0.0609 -0.7250 -0.7677
  183MOL   H14036904   5.994   5.935   2.789  1.6550 -3.3124 -0.9608
  183MOL   H14136905   6.062   6.053   2.678  1.1685  0.9275  1.0369
  183MOL   C14236906   6.078   6.104   2.895 -0.0943  0.4384 -0.6328
  183MOL   C14336907   5.971   6.207   2.869  0.2168 -0.1964 -0.0859
  183MOL   C14436908   5.997   6.334   2.835  0.2816 -1.2114 -0.2773
  183MOL   C14536909   5.894   6.431   2.796 -0.2791  0.4481 -0.3103
  183MOL   H14636910   6.072   6.060   2.995  1.6492 -0.2731 -0.8155
  183MOL   H14736911   6.170   6.159   2.877  0.4655  0.1864  1.2990
  183MOL   H14836912   5.871   6.167   2.872 -0.3432  1.1396 -0.2947
  183MOL   H14936913   6.100   6.364   2.823  0.7850 -1.7763  2.2663
  183MOL   H15036914   5.792   6.396   2.812 -0.3777  0.3464 -1.1355
  183MOL   H15136915   5.900   6.445   2.688 -0.4529  0.9342 -0.2589
  183MOL   C15236916   5.908   6.561   2.880  0.5217 -0.3546  0.0348
  183MOL   C15336917   5.813   6.676   2.845 -0.9875 -0.3026 -0.2102
  183MOL   C15436918   5.857   6.787   2.786  0.0523 -0.0382 -0.2594
  183MOL   C15536919   5.771   6.891   2.720  0.2875 -0.2129  0.3778
  183MOL   H15636920   5.889   6.539   2.985 -0.3179  0.5288  0.0717
  183MOL   H15736921   6.013   6.590   2.888  1.1896 -3.2558  3.0764
  183MOL   H15836922   5.705   6.672   2.854 -1.0415 -2.4668 -1.4495
  183MOL   H15936923   5.964   6.802   2.775 -0.1178  0.9227 -0.6771
  183MOL   H16036924   5.677   6.844   2.690  1.0622 -1.4649 -0.1013
  183MOL   H16136925   5.816   6.928   2.628 -0.7579 -1.6271 -0.7260
  183MOL   C16236926   5.734   6.998   2.816 -0.0302  0.0723  0.1110
  183MOL   C16336927   5.629   7.100   2.763 -0.3096 -0.1117 -0.2746
  183MOL   C16436928   5.631   7.231   2.778  0.0845  0.0570  0.4281
  183MOL   C16536929   5.522   7.329   2.726 -0.4927 -0.8135  0.0233
  183MOL   H16636930   5.690   6.947   2.902  0.4301 -1.3309 -0.4711
  183MOL   H16736931   5.821   7.049   2.857 -0.1374  0.6810 -0.4214
  183MOL   H16836932   5.533   7.067   2.726 -1.2821  0.5754  1.5464
  183MOL   H16936933   5.716   7.279   2.823 -0.3540  2.8068 -1.5590
  183MOL   H17036934   5.454   7.349   2.809 -0.4769 -1.2903  0.1492
  183MOL   H17136935   5.457   7.282   2.653  1.4025 -0.6901 -1.7743
  183MOL   C17236936   5.578   7.467   2.675  0.4101 -0.0756 -0.3409
  183MOL   C17336937   5.681   7.477   2.564  0.8165  0.1517  0.5453
  183MOL   C17436938   5.791   7.553   2.571 -0.3241 -0.1135 -0.2203
  183MOL   C17536939   5.895   7.579   2.459  0.2847  0.0949 -0.0067
  183MOL   H17636940   5.489   7.524   2.647 -0.0967  0.2376  1.8150
  183MOL   H17736941   5.611   7.534   2.755 -2.9578  0.2998  0.7943
  183MOL   H17836942   5.657   7.434   2.467  0.0274 -0.7803  1.1459
  183MOL   H17936943   5.802   7.616   2.659  0.1449  0.9245 -1.0088
  183MOL   H18036944   5.982   7.607   2.518  0.4423  0.9335 -0.6161
  183MOL   H18136945   5.842   7.664   2.415  1.4504  1.0014  0.3071
  183MOL   C18236946   5.917   7.472   2.352  0.1446 -0.1374 -0.4616
  183MOL   C18336947   6.028   7.503   2.256 -0.0457  0.2361 -0.3037
  183MOL   C18436948   6.153   7.469   2.259 -0.2925  0.3921 -0.0637
  183MOL   C18536949   6.256   7.505   2.153  0.1683 -0.0205 -0.2056
  183MOL   H18636950   5.940   7.385   2.414 -0.2029 -0.8580 -1.3338
  183MOL   H18736951   5.832   7.439   2.293  0.0214  0.1069 -0.4204
  183MOL   H18836952   5.990   7.557   2.171  1.8273  1.9084 -0.0948
  183MOL   H18936953   6.197   7.415   2.342  3.2487  0.2749 -1.8946
  183MOL   H19036954   6.341   7.557   2.197  0.0472 -1.8879  2.2953
  183MOL   H19136955   6.211   7.581   2.088  0.3542  0.0796 -0.2168
  183MOL   C19236956   6.304   7.391   2.064 -0.4195 -0.6855 -0.0619
  183MOL   C19336957   6.411   7.441   1.973  0.5753 -0.4491 -0.3365
  183MOL   C19436958   6.522   7.366   1.952  0.0585  0.5167 -0.2874
  183MOL   C19536959   6.642   7.404   1.868  0.3645  0.2759  0.2913
  183MOL   H19636960   6.336   7.312   2.132 -0.1091 -1.4565 -1.1035
  183MOL   H19736961   6.226   7.354   1.996  0.0064  0.1829 -1.0335
  183MOL   H19836962   6.412   7.538   1.927  2.5769  0.5328  1.6932
  183MOL   H19936963   6.525   7.268   1.997  0.6155  0.9918  0.7180
  183MOL   H20036964   6.664   7.325   1.797  1.2705 -0.0108  0.8863
  183MOL   H20136965   6.728   7.419   1.933 -0.1526  3.5535  0.3446
  183MOL   H20236966   6.620   7.492   1.807 -0.7208 -1.1386 -1.4094
  184MOL     C136967   7.696   4.957   5.556  0.1104  0.2369  0.5199
  184MOL     C236968   7.663   4.901   5.687  0.5205 -0.0283  0.2758
  184MOL     C336969   7.748   4.861   5.780  0.3786 -0.2735  0.8278
  184MOL     C436970   7.702   4.808   5.920  0.2053 -0.7382 -0.7152
  184MOL     H536971   7.703   4.869   5.492  3.3231  0.8524 -0.0740
  184MOL     H636972   7.795   5.002   5.551  0.3239 -0.1160  1.3466
  184MOL     H736973   7.557   4.886   5.707 -0.0609  3.5412  0.1340
  184MOL     H836974   7.852   4.888   5.768  0.0159  1.0376  0.6246
  184MOL     H936975   7.775   4.734   5.951 -0.4225 -1.4071 -0.8200
  184MOL    H1036976   7.615   4.742   5.922 -0.4156  0.0858  0.5565
  184MOL    H1136977   7.623   5.029   5.520 -0.3387 -0.9114 -0.9375
  184MOL    C1236978   7.666   4.916   6.022  0.8655  0.6463  0.5922
  184MOL    C1336979   7.552   5.006   5.984 -0.3197  0.2485 -0.7592
  184MOL    C1436980   7.442   5.016   6.059 -0.1580  0.1321  0.0320
  184MOL    C1536981   7.322   5.110   6.035  0.2908  0.2419  0.3584
  184MOL    H1636982   7.641   4.875   6.120  0.1134 -1.5298 -0.4930
  184MOL    H1736983   7.750   4.983   6.043  0.5700  1.7830 -1.7340
  184MOL    H1836984   7.554   5.057   5.889 -1.4374  1.3328 -0.2135
  184MOL    H1936985   7.428   4.961   6.151  0.7513 -1.8668 -1.0057
  184MOL    H2036986   7.242   5.056   5.985  1.0516  1.5052 -2.3004
  184MOL    H2136987   7.357   5.193   5.974  2.8052 -0.5186  0.6948
  184MOL    C2236988   7.271   5.178   6.164  0.2355  0.9714 -0.9338
  184MOL    C2336989   7.219   5.312   6.121  0.2903 -0.2236 -0.7921
  184MOL    C2436990   7.086   5.334   6.115 -0.0750 -0.4904  0.1658
  184MOL    C2536991   7.024   5.456   6.064  0.1189  0.2336  0.1216
  184MOL    H2636992   7.192   5.124   6.216  1.3979  0.5150  0.3869
  184MOL    H2736993   7.355   5.185   6.233 -0.2942 -0.4467 -0.1119
  184MOL    H2836994   7.279   5.390   6.075  1.3545  0.0961  1.1151
  184MOL    H2936995   7.023   5.253   6.149 -0.5912  0.7457  2.2565
  184MOL    H3036996   7.085   5.498   5.984  2.3163 -2.1311  0.5150
  184MOL    H3136997   7.031   5.536   6.137 -1.6303 -0.5805  1.2395
  184MOL    C3236998   6.884   5.434   6.015 -0.1896  0.4584 -0.4454
  184MOL    C3336999   6.816   5.566   5.984  0.6153 -0.6913 -0.8101
  184MOL    C3437000   6.743   5.579   5.874 -0.3647  0.2703  0.1334
  184MOL    C3537001   6.669   5.707   5.831 -0.8961  0.0561 -0.6804
  184MOL    H3637002   6.891   5.369   5.928 -1.0302  0.3219 -0.4107
  184MOL    H3737003   6.824   5.400   6.099 -0.1745  1.5982  0.0326
  184MOL    H3837004   6.815   5.645   6.059 -0.3621  0.0567 -1.5877
  184MOL    H3937005   6.738   5.503   5.797  0.3948 -2.5118  2.7594
  184MOL    H4037006   6.678   5.790   5.902  0.4103 -0.1595 -0.5798
  184MOL    H4137007   6.561   5.699   5.824 -0.8268 -2.2085  0.2881
  184MOL    C4237008   6.712   5.738   5.684  0.0410 -0.4365  0.0490
  184MOL    C4337009   6.670   5.866   5.621 -0.8006  0.8319 -0.8783
  184MOL    C4437010   6.593   5.952   5.681 -0.1575 -0.2100  0.3352
  184MOL    C4537011   6.539   6.075   5.608 -0.1714 -0.4500 -0.0480
  184MOL    H4637012   6.820   5.750   5.676  0.1586 -0.8317  1.0816
  184MOL    H4737013   6.680   5.654   5.622 -0.0744  1.4417 -2.5420
  184MOL    H4837014   6.703   5.876   5.519 -0.9983  1.1209 -0.9154
  184MOL    H4937015   6.558   5.932   5.781 -1.9028  0.1523 -0.1815
  184MOL    H5037016   6.592   6.090   5.514 -1.2833  1.2298 -0.4093
  184MOL    H5137017   6.559   6.161   5.671  0.3707  0.3958 -1.3613
  184MOL    C5237018   6.389   6.077   5.581 -0.3430 -0.0875  0.6556
  184MOL    C5337019   6.337   6.211   5.551 -0.0785  0.2435 -0.6196
  184MOL    C5437020   6.274   6.284   5.642 -0.1935 -0.5831 -0.3342
  184MOL    C5537021   6.241   6.428   5.617 -0.1234 -0.0176  0.4677
  184MOL    H5637022   6.373   6.008   5.498  3.2812 -0.6518  0.3678
  184MOL    H5737023   6.329   6.035   5.661  0.3367  1.7911  2.1855
  184MOL    H5837024   6.355   6.257   5.455  1.4595  1.1772  0.1004
  184MOL    H5937025   6.269   6.249   5.745  0.1770  0.5465  0.0731
  184MOL    H6037026   6.307   6.486   5.552 -2.1451  1.8214 -0.0034
  184MOL    H6137027   6.269   6.482   5.707 -0.1711 -0.3413  0.6756
  184MOL    C6237028   6.091   6.450   5.573  0.3008  0.3111 -0.6898
  184MOL    C6337029   5.991   6.376   5.673 -0.1971 -0.1293 -0.2381
  184MOL    C6437030   5.906   6.284   5.637 -0.8116  1.2901 -0.2871
  184MOL    C6537031   5.805   6.226   5.744 -0.2788  0.1636  0.4391
  184MOL    H6637032   6.067   6.556   5.584 -0.0856  0.1896 -0.3234
  184MOL    H6737033   6.070   6.423   5.469 -0.2428  0.1048 -0.5300
  184MOL    H6837034   5.999   6.409   5.776  0.9396  2.6180 -1.1473
  184MOL    H6937035   5.902   6.241   5.538  1.3381  2.8529 -1.0934
  184MOL    H7037036   5.701   6.248   5.719 -0.3842  0.7117  1.3171
  184MOL    H7137037   5.828   6.271   5.841 -1.8216 -2.1435  1.9061
  184MOL    C7237038   5.822   6.076   5.771 -0.4399 -0.5313  0.2281
  184MOL    C7337039   5.735   6.032   5.888 -0.3996  0.0752  0.0377
  184MOL    C7437040   5.637   5.944   5.885 -0.5189  0.6844 -0.2342
  184MOL    C7537041   5.557   5.899   6.004 -0.3570 -0.2878 -0.1001
  184MOL    H7637042   5.786   6.015   5.689 -2.3580  3.4128 -1.9665
  184MOL    H7737043   5.928   6.065   5.797 -0.1555 -0.9143 -1.0670
  184MOL    H7837044   5.772   6.062   5.985  1.5537 -0.7373 -0.4144
  184MOL    H7937045   5.591   5.913   5.792 -0.5326 -0.8094  0.2531
  184MOL    H8037046   5.598   5.922   6.102 -1.1964  1.4010 -0.1316
  184MOL    H8137047   5.563   5.790   6.009  3.0531 -0.1455  0.0332
  184MOL    C8237048   5.411   5.940   5.994  0.2334 -0.3201  0.0871
  184MOL    C8337049   5.338   5.887   6.111  0.2341 -0.5595  0.9694
  184MOL    C8437050   5.318   5.949   6.230 -0.3674  0.0596 -0.2086
  184MOL    C8537051   5.234   5.890   6.341  0.6195  0.3635 -0.3283
  184MOL    H8637052   5.401   6.049   5.992  0.8606 -0.2395  0.7596
  184MOL    H8737053   5.368   5.908   5.900 -0.1697  0.4889 -0.0054
  184MOL    H8837054   5.295   5.788   6.108  1.0088 -0.9036  1.1982
  184MOL    H8937055   5.369   6.042   6.251 -0.6752  0.7473 -2.3604
  184MOL    H9037056   5.202   5.791   6.308  2.1176 -0.9271  1.9604
  184MOL    H9137057   5.143   5.950   6.349 -0.5243 -1.2288 -1.2376
  184MOL    C9237058   5.305   5.872   6.479  0.5187 -0.1245  0.9234
  184MOL    C9337059   5.428   5.781   6.469 -0.1836 -0.5463  0.0567
  184MOL    C9437060   5.453   5.665   6.527  0.4638  0.0085 -0.3029
  184MOL    C9537061   5.578   5.587   6.509  0.0119  0.2590 -0.2827
  184MOL    H9637062   5.323   5.973   6.515 -1.4716  0.1507  1.1938
  184MOL    H9737063   5.218   5.835   6.534 -0.9256 -2.5689 -2.7560
  184MOL    H9837064   5.513   5.817   6.412 -0.9754 -2.2357 -2.2705
  184MOL    H9937065   5.377   5.622   6.591 -0.1219 -0.0234 -1.0090
  184MOL   H10037066   5.616   5.551   6.604  1.9366 -0.2201 -1.2049
  184MOL   H10137067   5.665   5.638   6.466 -0.3413 -0.1312 -1.4907
  184MOL   C10237068   5.557   5.454   6.435 -0.1611 -0.1000  0.1582
  184MOL   C10337069   5.441   5.372   6.492 -0.1360 -0.6366 -0.1805
  184MOL   C10437070   5.312   5.374   6.452 -0.3500  0.3339  0.0700
  184MOL   C10537071   5.206   5.267   6.490 -0.9119 -0.0655 -0.0589
  184MOL   H10637072   5.547   5.475   6.328 -0.5523  0.2894  0.2737
  184MOL   H10737073   5.650   5.398   6.439 -0.4946 -0.6200  0.7302
  184MOL   H10837074   5.484   5.303   6.564  2.3739 -0.5984 -1.6040
  184MOL   H10937075   5.286   5.443   6.373 -1.6809 -0.3854 -0.1276
  184MOL   H11037076   5.261   5.211   6.566 -1.4124  0.3308  0.6032
  184MOL   H11137077   5.184   5.209   6.400 -1.5067  0.9385 -0.5752
  184MOL   C11237078   5.075   5.329   6.547 -0.1077 -0.2131  0.3673
  184MOL   C11337079   4.988   5.227   6.617 -0.1564  0.1523  0.0801
  184MOL   C11437080   4.861   5.206   6.582 -0.4401 -0.4388 -0.6439
  184MOL   C11537081   4.778   5.097   6.644 -0.4684  0.1808  0.2849
  184MOL   H11637082   5.106   5.403   6.621  0.8415 -0.9434  0.7180
  184MOL   H11737083   5.013   5.370   6.468 -1.9270 -0.9634  1.3767
  184MOL   H11837084   5.033   5.159   6.689  0.4104  0.7759  0.3151
  184MOL   H11937085   4.815   5.267   6.506  2.9632  0.0169 -2.4300
  184MOL   H12037086   4.827   5.063   6.735 -1.3849  1.2479  1.2074
  184MOL   H12137087   4.779   5.023   6.564 -0.5382  1.5092 -0.9650
  184MOL   C12237088   4.651   5.162   6.686 -0.1036  0.1460  0.1291
  184MOL   C12337089   4.546   5.071   6.743 -0.6817 -0.0455  0.4829
  184MOL   C12437090   4.464   5.104   6.844 -0.3831  0.1381  0.1013
  184MOL   C12537091   4.351   5.029   6.892 -0.2637 -0.3728 -0.2929
  184MOL   H12637092   4.666   5.235   6.765 -0.5985 -2.9474  3.2198
  184MOL   H12737093   4.615   5.238   6.617 -0.4083 -1.4065 -1.4717
  184MOL   H12837094   4.525   4.979   6.690 -1.9264  0.4925  0.0023
  184MOL   H12937095   4.483   5.201   6.888 -0.4121  0.1622  0.0604
  184MOL   H13037096   4.344   4.995   6.995  1.7068 -1.2232 -0.4257
  184MOL   H13137097   4.358   4.935   6.838  1.3845 -0.7322  0.5356
  184MOL   C13237098   4.218   5.097   6.862 -0.6528 -0.4084 -0.4074
  184MOL   C13337099   4.108   5.012   6.909 -0.1338 -0.0793 -0.7708
  184MOL   C13437100   4.042   5.020   7.025 -0.4229 -0.1245  0.4271
  184MOL   C13537101   3.936   4.930   7.081 -0.2682 -0.4817  0.0034
  184MOL   H13637102   4.214   5.196   6.908  0.0008 -1.6630  2.4519
  184MOL   H13737103   4.216   5.121   6.755 -2.1640 -0.6738 -0.4429
  184MOL   H13837104   4.084   4.925   6.850 -0.1711  0.6749 -1.8810
  184MOL   H13937105   4.058   5.101   7.095  2.8050 -2.0974  2.0620
  184MOL   H14037106   3.952   4.899   7.184 -1.8374 -0.3120  0.3002
  184MOL   H14137107   3.946   4.836   7.027 -0.3701 -1.9712  2.5464
  184MOL   C14237108   3.800   5.000   7.060  0.0328  0.1643 -0.2644
  184MOL   C14337109   3.685   4.911   7.088 -0.1012  0.0425 -0.1156
  184MOL   C14437110   3.606   4.865   6.989  0.0372 -0.0850  0.2254
  184MOL   C14537111   3.479   4.780   7.002 -0.9163  0.6998 -0.2731
  184MOL   H14637112   3.791   5.094   7.114  2.2924  0.0849  0.2885
  184MOL   H14737113   3.782   5.048   6.964 -2.8633  2.1361  1.1591
  184MOL   H14837114   3.663   4.886   7.191 -0.6965 -0.2482 -0.3069
  184MOL   H14937115   3.625   4.890   6.885 -0.9721 -1.3655 -0.2846
  184MOL   H15037116   3.448   4.766   7.106  1.9650  0.3349  0.5986
  184MOL   H15137117   3.498   4.679   6.964 -0.7050 -0.0599  1.7639
  184MOL   C15237118   3.366   4.847   6.933  0.3539  0.5177  0.2136
  184MOL   C15337119   3.237   4.770   6.963 -0.4441  0.1306 -0.3694
  184MOL   C15437120   3.157   4.815   7.058  0.7594  0.1634 -0.2880
  184MOL   C15537121   3.034   4.752   7.133  0.5106 -0.0779 -0.0713
  184MOL   H15637122   3.354   4.948   6.970 -0.6572  0.7829 -0.8140
  184MOL   H15737123   3.376   4.846   6.825  0.2673 -0.3580  0.2074
  184MOL   H15837124   3.225   4.675   6.912  0.8177 -0.3623  0.2272
  184MOL   H15937125   3.183   4.911   7.099  0.1768  1.6505 -3.2996
  184MOL   H16037126   2.984   4.682   7.066  0.3486 -0.4759  0.4690
  184MOL   H16137127   2.975   4.841   7.155  1.9001  0.5209  1.3510
  184MOL   C16237128   3.062   4.672   7.261  0.7717 -0.2383 -0.6258
  184MOL   C16337129   2.930   4.652   7.332 -0.9479  0.3010 -0.0889
  184MOL   C16437130   2.876   4.545   7.386 -0.5146 -0.3560 -0.0279
  184MOL   C16537131   2.738   4.537   7.459  0.1401  0.7494  0.1404
  184MOL   H16637132   3.096   4.573   7.232 -0.1737 -0.9884  0.7821
  184MOL   H16737133   3.136   4.721   7.325  0.5009  0.1393 -0.5975
  184MOL   H16837134   2.878   4.747   7.335  2.1232  2.0457  1.1225
  184MOL   H16937135   2.931   4.453   7.399  1.6874  1.2572  2.6745
  184MOL   H17037136   2.707   4.626   7.512  0.2149 -0.2052  1.8098
  184MOL   H17137137   2.738   4.458   7.534  1.3550 -0.2058 -0.8281
  184MOL   C17237138   2.625   4.486   7.363  0.2739  0.6743 -0.1323
  184MOL   C17337139   2.657   4.352   7.294  0.7414 -0.0213  0.6328
  184MOL   C17437140   2.580   4.246   7.298  0.1923  0.5559  0.7985
  184MOL   C17537141   2.609   4.114   7.229 -0.2617 -0.1771 -0.1539
  184MOL   H17637142   2.542   4.477   7.432 -0.7043 -0.4562 -1.4158
  184MOL   H17737143   2.602   4.561   7.287  0.1031  0.9769  0.2205
  184MOL   H17837144   2.746   4.346   7.233 -1.9950 -1.4825 -3.4367
  184MOL   H17937145   2.484   4.258   7.345  1.5672  2.1309  3.3222
  184MOL   H18037146   2.522   4.091   7.167 -0.2414 -1.5984  0.3145
  184MOL   H18137147   2.607   4.044   7.312 -0.5551  0.9553  0.8036
  184MOL   C18237148   2.740   4.097   7.148 -0.0203  0.0886 -0.2174
  184MOL   C18337149   2.754   3.954   7.090 -0.3249  0.3057  0.1087
  184MOL   C18437150   2.867   3.886   7.085 -0.5425  0.2841 -0.1120
  184MOL   C18537151   2.875   3.739   7.039  0.1799  0.1988  0.4427
  184MOL   H18637152   2.735   4.175   7.072  0.0498  0.4818  0.1743
  184MOL   H18737153   2.829   4.123   7.206  1.0597 -0.0115 -1.7920
  184MOL   H18837154   2.664   3.897   7.069  0.6916 -0.1235 -3.4503
  184MOL   H18937155   2.956   3.939   7.114 -0.3297 -0.4172  0.5390
  184MOL   H19037156   2.788   3.713   6.979  0.7037 -1.3554  0.3354
  184MOL   H19137157   2.874   3.662   7.116  1.2113 -0.0444  0.2178
  184MOL   C19237158   3.002   3.708   6.951  1.1608 -0.0492  0.1546
  184MOL   C19337159   2.967   3.619   6.830 -0.5973 -0.5256  0.6390
  184MOL   C19437160   2.953   3.653   6.704 -0.5649  0.4561  0.3124
  184MOL   C19537161   2.895   3.561   6.598  0.0332 -0.5337 -0.3317
  184MOL   H19637162   3.053   3.799   6.918  1.4312 -0.7844 -1.5015
  184MOL   H19737163   3.078   3.662   7.013  0.2215 -0.0402  1.3369
  184MOL   H19837164   2.955   3.514   6.853  2.9896 -0.6479  2.4199
  184MOL   H19937165   2.949   3.758   6.681  4.2739  0.6435 -0.2389
  184MOL   H20037166   2.882   3.463   6.643  0.6480 -0.4243  0.0970
  184MOL   H20137167   2.953   3.559   6.506 -1.3327 -1.9244 -1.1638
  184MOL   H20237168   2.796   3.600   6.576  0.5384  1.3298  0.5306
  185MOL     C137169   4.152   1.840   4.526 -0.3788  0.0074 -0.2480
  185MOL     C237170   4.056   1.771   4.429 -0.0124 -0.4166 -0.2891
  185MOL     C337171   3.924   1.790   4.413 -0.0909  0.3772  0.5892
  185MOL     C437172   3.832   1.711   4.326  0.0932 -0.7037 -0.0854
  185MOL     H537173   4.187   1.775   4.606 -1.6717  1.0829  1.2296
  185MOL     H637174   4.113   1.931   4.573  0.9458 -0.9200  2.8147
  185MOL     H737175   4.101   1.687   4.379 -0.0288 -0.8593  0.4287
  185MOL     H837176   3.875   1.877   4.454  1.1569  1.4912 -0.2075
  185MOL     H937177   3.731   1.708   4.365  0.5253 -1.2492  1.0176
  185MOL    H1037178   3.866   1.607   4.331  1.2771 -0.2967  0.6083
  185MOL    H1137179   4.246   1.861   4.475  1.5224 -3.1703  1.7988
  185MOL    C1237180   3.829   1.757   4.183 -1.0723 -0.7603  0.3560
  185MOL    C1337181   3.750   1.676   4.086  0.3706  0.2340 -0.0227
  185MOL    C1437182   3.667   1.736   3.998  0.1154 -0.3826  0.6972
  185MOL    C1537183   3.572   1.681   3.895  0.1544 -0.0667  0.0089
  185MOL    H1637184   3.799   1.862   4.186  0.1055 -0.4048 -0.1773
  185MOL    H1737185   3.928   1.753   4.138 -0.6463  0.0443  1.2137
  185MOL    H1837186   3.762   1.569   4.078  3.2399  0.6479 -2.2870
  185MOL    H1937187   3.665   1.844   4.000  1.6534 -0.2446 -2.6601
  185MOL    H2037188   3.563   1.573   3.894  0.7104 -0.1240  0.9403
  185MOL    H2137189   3.594   1.698   3.790  0.7374  0.9153  0.2849
  185MOL    C2237190   3.427   1.738   3.924 -0.2846  0.6252  0.6889
  185MOL    C2337191   3.355   1.682   4.047 -0.8949  0.6109 -0.0132
  185MOL    C2437192   3.240   1.627   4.053  0.7026 -0.2758 -0.4729
  185MOL    C2537193   3.198   1.557   4.182 -0.5236 -0.4259 -0.2287
  185MOL    H2637194   3.429   1.847   3.918 -0.3168  0.6626  1.2601
  185MOL    H2737195   3.358   1.710   3.844 -0.1625 -1.4548  1.2791
  185MOL    H2837196   3.404   1.680   4.143 -0.6403 -1.1558 -0.1615
  185MOL    H2937197   3.177   1.615   3.966 -2.3569  2.9150  1.1650
  185MOL    H3037198   3.285   1.540   4.245 -1.3160  1.0984  1.3325
  185MOL    H3137199   3.146   1.464   4.160 -1.1177 -0.1228 -0.1247
  185MOL    C3237200   3.100   1.643   4.270  0.2524  0.1378  1.2564
  185MOL    C3337201   3.045   1.561   4.382  0.1632 -0.5837  0.0662
  185MOL    C3437202   3.066   1.586   4.508  0.0248  0.0051 -0.4805
  185MOL    C3537203   2.996   1.509   4.620  0.1390  0.2931 -0.2936
  185MOL    H3637204   3.148   1.731   4.312 -1.1868  0.7954  1.5351
  185MOL    H3737205   3.018   1.680   4.209 -1.6202 -1.3932  2.7786
  185MOL    H3837206   2.997   1.468   4.354  2.4194 -2.2087  1.4237
  185MOL    H3937207   3.125   1.673   4.535  1.1442 -1.2257  1.1506
  185MOL    H4037208   2.978   1.407   4.588  1.5622 -0.4842  1.3525
  185MOL    H4137209   2.898   1.550   4.643 -0.1454 -0.4777 -0.1319
  185MOL    C4237210   3.070   1.503   4.750 -0.5144  0.0362  0.5542
  185MOL    C4337211   2.981   1.452   4.866  0.2145 -0.0290 -0.1764
  185MOL    C4437212   2.941   1.527   4.967 -0.6555  0.2503 -0.6499
  185MOL    C4537213   2.861   1.467   5.082  0.3237 -0.0555  0.4783
  185MOL    H4637214   3.147   1.427   4.733  0.8628  1.6314 -0.4726
  185MOL    H4737215   3.119   1.597   4.776 -0.3054 -0.2424  1.1845
  185MOL    H4837216   2.942   1.351   4.867 -1.1046  0.4679 -0.3736
  185MOL    H4937217   2.969   1.631   4.971 -1.1951  0.3590  0.2885
  185MOL    H5037218   2.861   1.358   5.083  1.5550 -0.0650  0.4925
  185MOL    H5137219   2.754   1.483   5.076  0.0133 -1.9414  0.5696
  185MOL    C5237220   2.927   1.507   5.216 -0.2322 -0.5168  0.4167
  185MOL    C5337221   2.829   1.461   5.320 -0.2656  0.2112 -0.2395
  185MOL    C5437222   2.862   1.377   5.425 -0.3973 -0.3795 -0.5695
  185MOL    C5537223   2.767   1.340   5.531  0.4525  0.0777 -0.0469
  185MOL    H5637224   3.027   1.465   5.230  0.3040  0.2811 -0.8848
  185MOL    H5737225   2.925   1.615   5.231 -0.8749 -0.5672  0.7215
  185MOL    H5837226   2.733   1.510   5.316 -0.4273  0.1933  2.3763
  185MOL    H5937227   2.965   1.344   5.426 -0.7039 -1.3418  0.5091
  185MOL    H6037228   2.732   1.237   5.518 -0.1566  0.0866  1.3859
  185MOL    H6137229   2.685   1.410   5.515 -1.5671 -2.0581  0.5547
  185MOL    C6237230   2.826   1.356   5.671 -0.7200 -0.3631  0.7791
  185MOL    C6337231   2.917   1.240   5.696  0.2607  0.0162 -0.7675
  185MOL    C6437232   3.053   1.255   5.678  1.0807 -0.0402  0.0460
  185MOL    C6537233   3.158   1.153   5.704  0.3915 -0.0201  0.5700
  185MOL    H6637234   2.878   1.452   5.670 -1.2138 -0.0205 -4.3718
  185MOL    H6737235   2.747   1.350   5.746 -0.7313  0.1639  0.8115
  185MOL    H6837236   2.862   1.155   5.735 -0.6357  0.5024 -0.9665
  185MOL    H6937237   3.096   1.348   5.642  1.7229 -0.0726  0.7180
  185MOL    H7037238   3.222   1.153   5.615 -1.1705 -1.8262 -0.5834
  185MOL    H7137239   3.106   1.058   5.719  0.6193 -0.5901 -2.0543
  185MOL    C7237240   3.242   1.178   5.826  0.2342  0.4521 -0.6299
  185MOL    C7337241   3.326   1.308   5.818 -0.3850 -0.1186  0.2976
  185MOL    C7437242   3.292   1.423   5.887 -0.1216  0.2167  0.5544
  185MOL    C7537243   3.398   1.531   5.902 -0.3687 -0.3108 -0.4548
  185MOL    H7637244   3.181   1.173   5.916  3.5613 -0.0187  1.6696
  185MOL    H7737245   3.306   1.090   5.831  2.5712  2.1186 -0.5650
  185MOL    H7837246   3.420   1.288   5.769 -0.9599 -2.0061 -0.0350
  185MOL    H7937247   3.199   1.422   5.942 -0.0840 -0.6029  0.6117
  185MOL    H8037248   3.362   1.633   5.888  0.6578  0.0723 -0.3554
  185MOL    H8137249   3.475   1.513   5.826 -0.9654 -0.5764 -0.9974
  185MOL    C8237250   3.453   1.537   6.046  0.2815  0.1907  0.2745
  185MOL    C8337251   3.350   1.594   6.134  0.3352 -0.0168 -0.6229
  185MOL    C8437252   3.311   1.559   6.259  0.4638  0.2134 -0.2641
  185MOL    C8537253   3.210   1.628   6.336  0.4435 -0.4130  0.1145
  185MOL    H8637254   3.492   1.439   6.075 -0.9456 -0.7739 -1.2721
  185MOL    H8737255   3.544   1.597   6.041  0.8216 -0.4772  1.7171
  185MOL    H8837256   3.300   1.677   6.088  0.2254  0.7376  0.8203
  185MOL    H8937257   3.363   1.476   6.305 -1.3334  0.0823  1.6235
  185MOL    H9037258   3.169   1.716   6.287  3.4000  1.3439  0.6673
  185MOL    H9137259   3.267   1.675   6.417  0.4635  1.2339 -0.8385
  185MOL    C9237260   3.105   1.534   6.384  0.1696 -0.6973 -0.2874
  185MOL    C9337261   2.981   1.609   6.419 -0.2426 -0.7039 -0.1039
  185MOL    C9437262   2.909   1.588   6.533 -0.4077 -0.5820  0.0978
  185MOL    C9537263   2.800   1.678   6.587  0.2595 -0.2587  0.6917
  185MOL    H9637264   3.064   1.476   6.302 -0.3865  0.1058 -0.5880
  185MOL    H9737265   3.135   1.469   6.466 -2.4233  0.0057  1.2580
  185MOL    H9837266   2.954   1.700   6.367  0.5544  0.9975  2.3575
  185MOL    H9937267   2.934   1.501   6.591  1.6538 -0.6318 -0.8312
  185MOL   H10037268   2.710   1.617   6.588 -0.3032  0.4808 -1.9071
  185MOL   H10137269   2.785   1.760   6.517  3.7789  0.1497  0.2994
  185MOL   C10237270   2.808   1.734   6.726  0.2907 -0.0167 -0.1489
  185MOL   C10337271   2.678   1.791   6.769 -0.1086  0.0346 -0.0970
  185MOL   C10437272   2.668   1.921   6.791  0.9663 -0.7135  0.2220
  185MOL   C10537273   2.548   2.001   6.832  0.1173 -0.7563 -0.0937
  185MOL   H10637274   2.818   1.650   6.795  1.0490  0.5904  0.4946
  185MOL   H10737275   2.903   1.788   6.723  0.0236  0.4936  0.5558
  185MOL   H10837276   2.586   1.736   6.771  0.4204 -0.9655 -2.0545
  185MOL   H10937277   2.749   1.989   6.769 -0.0489  1.2611  2.3320
  185MOL   H11037278   2.476   1.943   6.890 -0.5275  0.7448  0.6398
  185MOL   H11137279   2.496   2.035   6.742  1.0381  0.6388 -0.1067
  185MOL   C11237280   2.601   2.125   6.908  0.8592 -0.0855  0.5274
  185MOL   C11337281   2.489   2.223   6.926  0.3920 -0.0891  0.4262
  185MOL   C11437282   2.418   2.229   7.041  0.1632 -0.8032 -0.1509
  185MOL   C11537283   2.315   2.338   7.066  0.2571  0.0565 -0.0729
  185MOL   H11637284   2.650   2.095   7.000 -0.5747  0.1971  1.3987
  185MOL   H11737285   2.681   2.177   6.856  1.5424  1.2836  2.8874
  185MOL   H11837286   2.470   2.280   6.836  2.8751 -2.2560 -1.5450
  185MOL   H11937287   2.433   2.161   7.123 -1.8075 -1.0429  0.0252
  185MOL   H12037288   2.301   2.402   6.979  0.7879 -1.3779 -1.2402
  185MOL   H12137289   2.359   2.392   7.149 -0.9227 -0.0011  0.5936
  185MOL   C12237290   2.174   2.282   7.105  0.3426  0.0268  0.3609
  185MOL   C12337291   2.072   2.376   7.179  0.6274  0.2441  0.4938
  185MOL   C12437292   2.085   2.512   7.203 -0.0049  0.5873 -0.9193
  185MOL   C12537293   1.984   2.590   7.278 -0.4159  0.1920  0.0728
  185MOL   H12637294   2.121   2.244   7.018 -3.2351  0.6800  2.1918
  185MOL   H12737295   2.196   2.207   7.181  1.3747  0.2826  0.3260
  185MOL   H12837296   1.989   2.325   7.224 -0.0362  0.8718  0.0074
  185MOL   H12937297   2.174   2.558   7.164  2.2184 -2.5728  0.2570
  185MOL   H13037298   1.895   2.528   7.285  0.0115 -0.5662 -1.1989
  185MOL   H13137299   1.973   2.687   7.229  0.2144  0.8616  1.2328
  185MOL   C13237300   2.029   2.614   7.422  0.2718  0.3442 -0.2324
  185MOL   C13337301   1.919   2.689   7.505 -0.4407 -0.0625  0.4743
  185MOL   C13437302   1.889   2.673   7.631 -0.2607 -0.6828 -0.8134
  185MOL   C13537303   1.772   2.744   7.710 -0.3361 -0.1012  0.0319
  185MOL   H13637304   2.041   2.517   7.470 -3.0483 -0.9879 -1.8997
  185MOL   H13737305   2.125   2.665   7.426  0.4602 -0.0269  0.0535
  185MOL   H13837306   1.874   2.763   7.440 -1.5742 -0.3725  0.9025
  185MOL   H13937307   1.944   2.605   7.694 -1.6127  1.2475  2.5959
  185MOL   H14037308   1.735   2.827   7.650 -0.6582  0.9032  1.5982
  185MOL   H14137309   1.805   2.802   7.796 -2.7458 -1.4029  1.8783
  185MOL   C14237310   1.661   2.649   7.741  0.0156  0.4650 -0.4493
  185MOL   C14337311   1.709   2.525   7.819  0.2153  0.0875  0.5766
  185MOL   C14437312   1.694   2.396   7.783 -0.2792  0.1221  0.9904
  185MOL   C14537313   1.745   2.273   7.854 -0.1678 -0.2577 -0.1268
  185MOL   H14637314   1.582   2.686   7.806  1.2786  0.1725  1.2923
  185MOL   H14737315   1.624   2.622   7.643 -0.6716 -1.5119  0.3361
  185MOL   H14837316   1.769   2.553   7.904 -0.4189  0.6796  0.8346
  185MOL   H14937317   1.633   2.380   7.695  0.1741  1.4783  0.4208
  185MOL   H15037318   1.665   2.220   7.905 -0.6373 -0.1977 -0.7882
  185MOL   H15137319   1.811   2.296   7.937  1.0564 -2.3164 -0.4934
  185MOL   C15237320   1.818   2.177   7.757  0.2221 -0.2992 -0.9140
  185MOL   C15337321   1.866   2.049   7.822  0.2101  0.0668  0.2707
  185MOL   C15437322   1.787   1.941   7.840  0.2738  0.0464  0.9475
  185MOL   C15537323   1.833   1.807   7.900  0.1319 -0.3547 -0.7657
  185MOL   H15637324   1.750   2.146   7.677 -1.4904 -1.2066  0.8629
  185MOL   H15737325   1.903   2.226   7.710 -1.0339  1.2337 -1.6459
  185MOL   H15837326   1.969   2.048   7.853  0.7195  0.1258 -1.3625
  185MOL   H15937327   1.683   1.955   7.814  0.4152 -0.9842 -0.2240
  185MOL   H16037328   1.756   1.777   7.971 -0.4117  0.4689 -1.0026
  185MOL   H16137329   1.927   1.817   7.954  0.5604 -0.7294 -1.4369
  185MOL   C16237330   1.850   1.697   7.798  0.5098 -0.0198 -0.0492
  185MOL   C16337331   1.866   1.558   7.858 -0.1915  0.0847 -0.0995
  185MOL   C16437332   1.971   1.477   7.829  0.5549 -0.2617  0.9045
  185MOL   C16537333   1.995   1.339   7.892  0.0376  0.5667  0.9686
  185MOL   H16637334   1.766   1.679   7.731  0.7373  2.2421 -0.9503
  185MOL   H16737335   1.936   1.723   7.738 -0.2505 -0.2785 -1.2680
  185MOL   H16837336   1.791   1.523   7.927  0.7446 -3.4325 -0.7119
  185MOL   H16937337   2.046   1.507   7.757 -0.3300  0.6674  0.3502
  185MOL   H17037338   1.901   1.309   7.938  0.0856 -2.7544 -0.9342
  185MOL   H17137339   2.075   1.343   7.966  1.8051  0.7494 -0.9240
  185MOL   C17237340   2.033   1.228   7.792 -0.0405 -0.2606  0.7811
  185MOL   C17337341   2.054   1.103   7.865 -0.4055 -0.0777 -0.6298
  185MOL   C17437342   2.031   0.981   7.815 -0.3569 -0.8401  0.4652
  185MOL   C17537343   2.049   0.849   7.898  0.8979 -0.2143  0.3834
  185MOL   H17637344   1.949   1.225   7.723 -0.8770  1.5959  1.6767
  185MOL   H17737345   2.113   1.268   7.729 -2.2161  2.9476 -0.0765
  185MOL   H17837346   2.078   1.111   7.970 -0.8217 -1.2940 -0.4278
  185MOL   H17937347   1.997   0.962   7.715  1.0792  0.8737 -0.3642
  185MOL   H18037348   2.085   0.870   0.022  2.1423  1.2063 -0.3415
  185MOL   H18137349   2.129   0.799   7.844 -0.1069 -0.2856 -1.0683
  185MOL   C18237350   1.917   0.774   7.897  0.6220  0.5873  0.1901
  185MOL   C18337351   1.884   0.698   7.768 -0.1247 -0.2734 -0.3108
  185MOL   C18437352   1.783   0.735   7.695 -0.0962 -0.6329 -0.4639
  185MOL   C18537353   1.736   0.655   7.573 -0.2170 -0.1585 -0.3950
  185MOL   H18637354   1.932   0.703   0.002  0.7796 -0.7130 -0.9492
  185MOL   H18737355   1.833   0.840   7.918 -0.9254 -1.0464 -0.7750
  185MOL   H18837356   1.942   0.609   7.747  1.9673  0.7928  0.8356
  185MOL   H18937357   1.715   0.817   7.715 -0.7147 -1.5297  1.2313
  185MOL   H19037358   1.655   0.587   7.595 -0.0828 -0.6683 -1.4585
  185MOL   H19137359   1.811   0.584   7.538  0.4716  1.2712 -1.9236
  185MOL   C19237360   1.696   0.756   7.464  0.1297 -0.2352  0.1266
  185MOL   C19337361   1.661   0.690   7.329 -0.2224  1.5647 -0.2305
  185MOL   C19437362   1.715   0.708   7.206  0.6250  0.5497 -0.2949
  185MOL   C19537363   1.680   0.623   7.081 -0.0039 -0.3912  0.1773
  185MOL   H19637364   1.624   0.831   7.498  0.7930  0.6538 -0.3920
  185MOL   H19737365   1.785   0.817   7.449  1.1137 -1.6413  0.2028
  185MOL   H19837366   1.591   0.608   7.337  1.3600  0.1450 -0.4752
  185MOL   H19937367   1.788   0.787   7.196  0.7133  0.4433 -0.4766
  185MOL   H20037368   1.618   0.685   7.016  0.1786 -0.8678 -0.4496
  185MOL   H20137369   1.630   0.528   7.100  0.8992 -1.4795 -2.5827
  185MOL   H20237370   1.774   0.607   7.028  1.0659 -2.0122  2.4738
  186MOL     C137371   5.216   7.896   7.181 -0.0903  0.6854  0.4110
  186MOL     C237372   5.234   7.909   7.329 -0.4825 -0.5698 -0.1254
  186MOL     C337373   5.227   7.804   7.413  0.5433  0.3226 -0.0247
  186MOL     C437374   5.246   7.799   7.566 -0.5921 -0.4028  0.1565
  186MOL     H537375   5.118   7.934   7.151  0.0272  0.6657  0.0021
  186MOL     H637376   5.216   7.792   7.150 -2.0884  0.4397  1.1426
  186MOL     H737377   5.261   0.024   7.378  2.5433 -1.9203  0.8784
  186MOL     H837378   5.208   7.704   7.379  1.7970 -0.0450  0.3334
  186MOL     H937379   5.273   7.900   7.599  0.1427 -0.2955 -0.7578
  186MOL    H1037380   5.329   7.729   7.573  0.9963  1.5104  0.8464
  186MOL    H1137381   5.295   7.951   7.129  1.0988 -0.9404  0.4777
  186MOL    C1237382   5.114   7.756   7.633 -0.5997 -0.4210  0.2999
  186MOL    C1337383   5.139   7.727   7.774  0.4204  0.0930  0.0712
  186MOL    C1437384   5.052   7.745   7.874 -0.0522 -0.3763 -0.6403
  186MOL    C1537385   5.069   7.696   0.037  0.2158  0.4399 -0.2622
  186MOL    H1637386   5.042   7.837   7.619  0.5696  0.6567  0.3888
  186MOL    H1737387   5.077   7.664   7.588  2.6408 -2.2849  1.2684
  186MOL    H1837388   5.232   7.678   7.796  1.1872  2.4325  2.1728
  186MOL    H1937389   4.955   7.787   7.854  0.1863 -0.4153 -1.9186
  186MOL    H2037390   5.158   7.633   0.037  0.0743  0.2011  2.0966
  186MOL    H2137391   4.984   7.636   0.068  1.2982  0.0157  2.0044
  186MOL    C2237392   5.076   7.819   0.131  0.1719 -0.6257  0.2000
  186MOL    C2337393   5.065   7.777   0.274  0.3268 -0.1077  0.8965
  186MOL    C2437394   5.162   7.807   0.356  0.1591  0.3279  0.2764
  186MOL    C2537395   5.162   7.775   0.503  0.4473 -0.2130  0.0523
  186MOL    H2637396   5.173   7.871   0.130  0.7668 -1.7400 -0.6570
  186MOL    H2737397   4.993   7.882   0.098 -0.7581 -0.4460  2.7742
  186MOL    H2837398   4.977   7.727   0.311 -0.3957 -1.5448 -2.5981
  186MOL    H2937399   5.253   7.839   0.307 -0.8985 -2.5913 -3.8306
  186MOL    H3037400   5.069   7.727   0.534 -0.4449  0.1312 -1.9914
  186MOL    H3137401   5.186   7.859   0.569  0.9200 -1.5236  1.5697
  186MOL    C3237402   5.274   7.676   0.534 -0.0041 -0.5721 -0.2870
  186MOL    C3337403   5.261   7.627   0.675 -0.0510  0.5856 -0.2130
  186MOL    C3437404   5.360   7.620   0.766  0.9252 -0.7221 -0.0733
  186MOL    C3537405   5.360   7.604   0.917 -0.7894 -0.4559 -0.3278
  186MOL    H3637406   5.266   7.593   0.465  1.0900 -1.6510  0.8462
  186MOL    H3737407   5.371   7.722   0.516  1.2315 -3.3650 -1.0330
  186MOL    H3837408   5.160   7.606   0.708 -0.4218  2.6532  0.0307
  186MOL    H3937409   5.461   7.643   0.738  0.5238 -0.9411 -1.7705
  186MOL    H4037410   5.261   7.579   0.954 -0.5739 -1.6486 -0.5448
  186MOL    H4137411   5.381   7.701   0.961  1.5797 -0.7283 -0.7979
  186MOL    C4237412   5.462   7.505   0.974 -0.4813 -0.5235 -0.4415
  186MOL    C4337413   5.609   7.537   0.939  0.4814  0.5121  0.1710
  186MOL    C4437414   5.679   7.461   0.855 -0.2327  0.9999  0.4564
  186MOL    C4537415   5.821   7.501   0.814 -0.2070 -0.5868  0.4342
  186MOL    H4637416   5.461   7.500   1.083  3.2563 -5.5578 -0.4461
  186MOL    H4737417   5.435   7.404   0.942  0.4632 -1.1819  0.7756
  186MOL    H4837418   5.651   7.630   0.974  2.0571  0.7492 -2.2453
  186MOL    H4937419   5.639   7.370   0.814 -0.5258  2.2652 -2.1400
  186MOL    H5037420   5.894   7.437   0.864 -1.1442 -1.8156  0.2672
  186MOL    H5137421   5.848   7.604   0.838  0.7302 -1.1126  1.7218
  186MOL    C5237422   5.858   7.492   0.664 -0.1017 -0.2845  0.4285
  186MOL    C5337423   5.984   7.581   0.634  0.4827  0.0867  0.9299
  186MOL    C5437424   6.013   7.652   0.522 -0.7450  0.5975 -0.0918
  186MOL    C5537425   6.142   7.740   0.509  0.4987  0.3526  0.3326
  186MOL    H5637426   5.869   7.386   0.642  0.4752 -0.4634  1.5337
  186MOL    H5737427   5.787   7.529   0.590 -0.6325 -3.3303 -0.6532
  186MOL    H5837428   6.050   7.583   0.719  0.2373  1.1049  1.1056
  186MOL    H5937429   5.947   7.646   0.437  1.0009 -2.7663 -1.3167
  186MOL    H6037430   6.204   7.687   0.436  1.2907  0.6026  0.8154
  186MOL    H6137431   6.204   7.742   0.599 -1.0302 -1.3179  1.4574
  186MOL    C6237432   6.115   7.888   0.469 -0.6834  0.3053 -0.0653
  186MOL    C6337433   6.237   7.971   0.458 -0.6649  0.2237  0.2865
  186MOL    C6437434   6.281   0.084   0.544 -0.2785 -0.3005  0.2104
  186MOL    C6537435   6.409   0.162   0.539 -1.0706  0.7139 -0.0358
  186MOL    H6637436   6.051   7.897   0.381 -0.4271  1.2633 -0.1635
  186MOL    H6737437   6.058   7.938   0.547 -0.0957 -0.4748  0.8790
  186MOL    H6837438   6.298   7.958   0.370 -0.7993  1.1061  0.0619
  186MOL    H6937439   6.220   0.100   0.631 -0.9978  1.4226 -0.5695
  186MOL    H7037440   6.467   0.148   0.447 -0.7164 -0.5170  0.3684
  186MOL    H7137441   6.455   0.118   0.628 -1.8279 -0.1417 -0.0500
  186MOL    C7237442   6.382   0.312   0.547 -0.0145  0.2118  0.5895
  186MOL    C7337443   6.511   0.389   0.546  0.5644  0.1802  0.4495
  186MOL    C7437444   6.600   0.371   0.445  0.3735  0.1273  0.5398
  186MOL    C7537445   6.731   0.439   0.416 -0.0033 -0.1133  0.1943
  186MOL    H7637446   6.312   0.336   0.467  0.3604  2.2273  0.8602
  186MOL    H7737447   6.330   0.321   0.642 -3.0913  0.8796 -1.0903
  186MOL    H7837448   6.526   0.472   0.615 -0.3518  1.2600 -0.6443
  186MOL    H7937449   6.570   0.309   0.362 -1.3980  3.7527 -1.6415
  186MOL    H8037450   6.720   0.521   0.345 -2.1883  0.1134  0.7434
  186MOL    H8137451   6.799   0.375   0.360  0.8350 -0.8414  2.0077
  186MOL    C8237452   6.807   0.471   0.539 -1.1460 -0.3289  0.1063
  186MOL    C8337453   6.953   0.502   0.503  0.0414 -0.3404  0.2682
  186MOL    C8437454   7.055   0.430   0.563 -0.0352 -0.4905 -1.1710
  186MOL    C8537455   7.205   0.463   0.553  0.2369 -0.2062 -0.6873
  186MOL    H8637456   6.762   0.561   0.581  1.5073  0.7171  0.8024
  186MOL    H8737457   6.805   0.393   0.615  1.4217 -1.3279 -0.7786
  186MOL    H8837458   6.980   0.580   0.433  1.2551 -0.0009  1.0914
  186MOL    H8937459   7.028   0.355   0.636 -1.2064  0.5749 -0.4899
  186MOL    H9037460   7.220   0.544   0.482  2.4902  0.5152  0.5769
  186MOL    H9137461   7.260   0.379   0.511  0.6806 -0.2566 -0.0002
  186MOL    C9237462   7.267   0.501   0.691 -0.0429  0.3653  0.1183
  186MOL    C9337463   7.410   0.537   0.674 -0.1432 -0.6607  0.6464
  186MOL    C9437464   7.472   0.650   0.720  0.7823  0.1295  0.8853
  186MOL    C9537465   7.618   0.682   0.700 -0.0355  0.2959 -0.6233
  186MOL    H9637466   7.224   0.588   0.741 -1.6098  0.2100 -0.9098
  186MOL    H9737467   7.249   0.412   0.752  0.0618  0.1528 -0.1590
  186MOL    H9837468   7.466   0.478   0.603  0.3234  1.2347 -0.6180
  186MOL    H9937469   7.410   0.707   0.788  0.0156 -0.3270  0.5743
  186MOL   H10037470   7.643   0.626   0.610 -1.1643 -0.7990 -0.2715
  186MOL   H10137471   7.676   0.634   0.778  2.5097 -2.3516 -3.9815
  186MOL   C10237472   7.648   0.829   0.698  0.4149 -0.5700  0.2989
  186MOL   C10337473   7.794   0.866   0.699 -0.0546 -0.2077 -0.3919
  186MOL   C10437474   7.854   0.931   0.597  0.5744  0.1552  0.6860
  186MOL   C10537475   0.015   1.001   0.590 -0.2871 -0.2875 -0.3418
  186MOL   H10637476   7.602   0.851   0.602  2.1822  0.1004 -0.4203
  186MOL   H10737477   7.596   0.887   0.774  0.3359 -0.5507  0.2295
  186MOL   H10837478   7.850   0.861   0.792  0.3531 -2.3452 -0.7395
  186MOL   H10937479   7.797   0.938   0.506 -0.7062  0.4263  1.4909
  186MOL   H11037480   0.057   0.982   0.491  0.2222 -0.7266 -0.0380
  186MOL   H11137481   0.088   0.973   0.665  0.1393 -0.2873 -0.7553
  186MOL   C11237482   7.970   1.149   0.592  0.4666 -0.0527  0.4374
  186MOL   C11337483   0.128   1.207   0.573  0.1361  0.1178 -0.8278
  186MOL   C11437484   0.200   1.261   0.672 -0.5228 -0.2832  0.2429
  186MOL   C11537485   0.343   1.316   0.653  0.1006 -0.3866 -0.1249
  186MOL   H11637486   7.910   1.177   0.506  0.6901 -1.6191 -0.2484
  186MOL   H11737487   7.911   1.177   0.680  1.1189 -2.1073  1.5651
  186MOL   H11837488   0.172   1.203   0.474 -1.5651  2.2696 -1.7104
  186MOL   H11937489   0.157   1.269   0.771 -1.1474 -0.8739  0.0236
  186MOL   H12037490   0.370   1.306   0.548 -0.3965 -0.4135 -0.2500
  186MOL   H12137491   0.417   1.267   0.717 -0.8950 -1.9426 -0.1270
  186MOL   C12237492   0.349   1.466   0.695 -0.7530  0.2376  0.6114
  186MOL   C12337493   0.265   1.561   0.605 -0.0624 -0.3987 -0.1163
  186MOL   C12437494   0.313   1.644   0.509 -0.3625  0.3438  0.1879
  186MOL   C12537495   0.238   1.729   0.416 -0.0923 -0.0094  0.3421
  186MOL   H12637496   0.314   1.465   0.798 -0.0603  3.0624  0.9159
  186MOL   H12737497   0.451   1.504   0.704 -0.9072  1.1242 -1.2068
  186MOL   H12837498   0.161   1.538   0.619  0.2202 -1.0826  0.8533
  186MOL   H12937499   0.421   1.647   0.500 -0.3823  1.3218  0.2206
  186MOL   H13037500   0.130   1.725   0.433  0.2293  0.5465  2.6094
  186MOL   H13137501   0.237   1.687   0.315  0.0888  1.0099 -0.0916
  186MOL   C13237502   0.283   1.875   0.401 -0.8466 -0.5889 -0.0168
  186MOL   C13337503   0.187   1.951   0.317  0.0800 -0.4242  0.0895
  186MOL   C13437504   0.205   1.990   0.190 -0.2307  0.5363  0.0109
  186MOL   C13537505   0.098   2.070   0.126 -0.0768  0.7153  0.5716
  186MOL   H13637506   0.287   1.936   0.491 -2.1639  1.3601 -1.2426
  186MOL   H13737507   0.386   1.872   0.365 -1.3311  0.8426 -1.5918
  186MOL   H13837508   0.097   1.977   0.370 -0.1515 -1.9314  0.4595
  186MOL   H13937509   0.303   1.983   0.145 -0.5291  0.1546 -0.5807
  186MOL   H14037510   0.132   2.169   0.096 -1.2359  0.2846 -2.3966
  186MOL   H14137511   0.020   2.075   0.203 -0.4763  2.0319  0.1005
  186MOL   C14237512   0.021   1.996   0.016 -0.0767 -0.2334  0.1137
  186MOL   C14337513   7.952   1.857   0.046 -0.0502  0.2931  1.1582
  186MOL   C14437514   0.001   1.754   7.944 -0.5729  0.0556  0.2203
  186MOL   C14537515   7.914   1.612   7.955 -0.2747  0.1102  0.1757
  186MOL   H14637516   7.919   2.057   7.949  0.4545  0.0952 -0.3846
  186MOL   H14737517   0.093   1.985   7.911 -1.0102  0.1998 -0.7799
  186MOL   H14837518   7.880   1.852   0.127 -1.0593  2.4985  0.4242
  186MOL   H14937519   0.069   1.765   7.860 -0.3507 -0.0398  0.3860
  186MOL   H15037520   0.013   1.537   7.976 -0.1317  0.3411  0.4775
  186MOL   H15137521   7.869   1.590   7.858  0.6497  0.3682 -0.3203
  186MOL   C15237522   7.803   1.598   0.084 -0.2469  0.0143  0.3518
  186MOL   C15337523   7.743   1.460   0.082 -0.0823  0.4581 -0.2451
  186MOL   C15437524   7.635   1.416   0.010 -0.6462 -0.1569 -0.1980
  186MOL   C15537525   7.583   1.275   0.026 -0.0234 -0.3778  0.1580
  186MOL   H15637526   7.844   1.603   0.185  0.4994 -2.9474  0.2421
  186MOL   H15737527   7.726   1.672   0.062 -0.5801 -0.4580 -0.0741
  186MOL   H15837528   7.782   1.387   0.151 -0.0140  0.2267 -0.5279
  186MOL   H15937529   7.601   1.490   7.916 -0.6509 -0.7208 -0.7819
  186MOL   H16037530   7.670   1.227   0.071 -0.5296 -0.6458  0.8465
  186MOL   H16137531   7.560   1.224   7.909 -0.6057  0.8833 -0.3849
  186MOL   C16237532   7.462   1.257   0.115 -0.0755 -1.1632 -0.4536
  186MOL   C16337533   7.485   1.294   0.253 -0.8477 -0.9958  0.3187
  186MOL   C16437534   7.502   1.205   0.352 -0.2234 -0.4962  0.4139
  186MOL   C16537535   7.528   1.242   0.492  0.8996 -0.2542 -0.0674
  186MOL   H16637536   7.386   1.328   0.084  0.8288  0.1200  0.2320
  186MOL   H16737537   7.424   1.156   0.099  1.1831 -1.9448  1.3104
  186MOL   H16837538   7.483   1.399   0.275  1.1794 -0.9918  0.5924
  186MOL   H16937539   7.513   1.100   0.330 -1.9809 -0.3178 -1.4651
  186MOL   H17037540   7.524   1.350   0.506  3.4983 -0.1830  0.4041
  186MOL   H17137541   7.628   1.214   0.526  0.7896 -0.8535 -0.2274
  186MOL   C17237542   7.431   1.174   0.589  0.2103 -0.7126 -0.1492
  186MOL   C17337543   7.438   1.231   0.732 -0.0202 -0.0109 -0.2442
  186MOL   C17437544   7.539   1.205   0.818 -0.2123  0.3504  0.7639
  186MOL   C17537545   7.550   1.254   0.963  0.0749 -0.2801  0.4906
  186MOL   H17637546   7.326   1.183   0.560  0.5669  2.5480 -0.6473
  186MOL   H17737547   7.440   1.065   0.588 -0.9962 -0.8197 -0.6260
  186MOL   H17837548   7.354   1.291   0.764 -2.0148 -1.3586 -2.7505
  186MOL   H17937549   7.621   1.146   0.779 -1.6307  0.7842 -3.1224
  186MOL   H18037550   7.459   1.312   0.982  1.1473  2.4665 -2.3300
  186MOL   H18137551   7.627   1.331   0.968 -0.6390  0.3646  1.6697
  186MOL   C18237552   7.571   1.131   1.060  0.1819  0.3834  0.6117
  186MOL   C18337553   7.534   1.154   1.202 -1.5878  0.3871 -0.3479
  186MOL   C18437554   7.612   1.142   1.311  0.4390 -0.1713  0.5066
  186MOL   C18537555   7.564   1.180   1.446  0.4505  0.7051  0.3249
  186MOL   H18637556   7.510   1.050   1.021 -1.4073  1.8514 -0.0061
  186MOL   H18737557   7.671   1.090   1.046 -0.4220 -0.5975 -0.9822
  186MOL   H18837558   7.433   1.191   1.214 -1.8789  0.0612 -1.6931
  186MOL   H18937559   7.715   1.110   1.309  0.3053 -0.6272 -3.4086
  186MOL   H19037560   7.565   1.089   1.505 -0.5453  1.6248  1.8110
  186MOL   H19137561   7.463   1.221   1.438  0.1276 -0.0364  0.5548
  186MOL   C19237562   7.645   1.291   1.505  0.0499 -0.0908 -0.1006
  186MOL   C19337563   7.602   1.323   1.645  0.4835 -0.0134 -0.1055
  186MOL   C19437564   7.606   1.449   1.696 -0.7858 -0.4277 -0.5048
  186MOL   C19537565   7.570   1.474   1.841  0.4696 -0.0617 -0.1037
  186MOL   H19637566   7.748   1.257   1.516 -0.0590 -0.6427 -0.7408
  186MOL   H19737567   7.654   1.378   1.440  0.2736  1.0903  1.4926
  186MOL   H19837568   7.584   1.236   1.707  2.5217 -1.9846 -2.2095
  186MOL   H19937569   7.629   1.531   1.631 -1.8395 -1.2094 -1.8821
  186MOL   H20037570   7.466   1.504   1.849  1.3673  3.1465  0.5050
  186MOL   H20137571   7.632   1.561   1.865  0.5406 -0.1620  0.0802
  186MOL   H20237572   7.606   1.392   1.904  0.8374  0.6665  0.6605
  187MOL     C137573   6.320   1.979   7.457 -0.4412  0.3412  0.0072
  187MOL     C237574   6.423   2.085   7.500  0.7436  0.2471 -0.8461
  187MOL     C337575   6.436   2.202   7.442 -1.0410 -0.3417 -0.0078
  187MOL     C437576   6.535   2.318   7.481 -0.4241 -0.6274  0.3046
  187MOL     H537577   6.274   1.921   7.537  0.3834 -1.2030 -0.6094
  187MOL     H637578   6.356   1.913   7.378 -1.7272  0.2190 -0.4990
  187MOL     H737579   6.481   2.053   7.585  1.3192 -0.3357 -1.4464
  187MOL     H837580   6.365   2.221   7.363 -1.1389  1.0472  0.3990
  187MOL     H937581   6.619   2.281   7.539  2.0773  0.5208 -2.4110
  187MOL    H1037582   6.475   2.381   7.546  1.7343 -0.0176  1.7385
  187MOL    H1137583   6.235   2.034   7.415  0.3866  0.5120 -1.4620
  187MOL    C1237584   6.582   2.390   7.351  0.3292 -0.2821 -0.3394
  187MOL    C1337585   6.672   2.507   7.379 -0.2666  0.2722 -0.3714
  187MOL    C1437586   6.646   2.638   7.341 -0.8633  0.5687  0.5403
  187MOL    C1537587   6.732   2.760   7.367  0.3666 -0.1390 -0.1008
  187MOL    H1637588   6.623   2.320   7.278  1.1521  0.5207 -0.6607
  187MOL    H1737589   6.491   2.431   7.307  0.9612  1.7570  0.1659
  187MOL    H1837590   6.756   2.466   7.433  0.1426  0.1753 -1.0743
  187MOL    H1937591   6.562   2.663   7.278 -1.0582 -0.9237  0.1970
  187MOL    H2037592   6.793   2.777   7.278  1.7570  1.1763  1.0680
  187MOL    H2137593   6.809   2.732   7.439 -1.8774 -1.5667  1.8023
  187MOL    C2237594   6.655   2.885   7.400 -0.7890 -0.3810  0.1842
  187MOL    C2337595   6.742   3.011   7.392 -0.3536  0.2485 -0.1062
  187MOL    C2437596   6.706   3.121   7.324 -0.4190 -0.5947 -0.3481
  187MOL    C2537597   6.787   3.252   7.331  0.3588 -0.1955 -0.0241
  187MOL    H2637598   6.573   2.883   7.328  0.0372  0.3665 -0.7931
  187MOL    H2737599   6.606   2.874   7.496 -1.9176  0.1385 -0.3178
  187MOL    H2837600   6.833   3.005   7.449 -2.3068 -3.2219  2.8715
  187MOL    H2937601   6.613   3.134   7.272 -0.2076  1.5326 -0.2240
  187MOL    H3037602   6.823   3.260   7.433  1.9728 -0.1631 -0.5740
  187MOL    H3137603   6.721   3.335   7.303 -1.6532 -1.0328  2.0762
  187MOL    C3237604   6.918   3.251   7.244  0.0860  0.3748  0.6039
  187MOL    C3337605   7.005   3.376   7.263  0.3222  0.0310 -0.6691
  187MOL    C3437606   7.079   3.444   7.175 -0.1110 -0.0154  0.4710
  187MOL    C3537607   7.143   3.580   7.195 -0.5147  1.0631 -0.1917
  187MOL    H3637608   6.985   3.167   7.258 -0.0983 -0.1715 -1.6093
  187MOL    H3737609   6.892   3.256   7.138 -1.2479  1.1132  0.9522
  187MOL    H3837610   6.996   3.415   7.363 -1.0423  0.0156 -0.7658
  187MOL    H3937611   7.079   3.420   7.070 -1.1943  1.7423  0.0599
  187MOL    H4037612   7.099   3.619   7.287 -1.1820  0.5167 -0.2735
  187MOL    H4137613   7.111   3.657   7.125  0.1323  1.0648 -0.4888
  187MOL    C4237614   7.300   3.577   7.212  0.8715  0.5861 -0.5234
  187MOL    C4337615   7.364   3.717   7.221  0.1611 -0.6214  0.7918
  187MOL    C4437616   7.490   3.730   7.190 -0.1905  0.2134 -0.2176
  187MOL    C4537617   7.562   3.867   7.179  0.0834  0.3989 -1.0159
  187MOL    H4637618   7.305   3.534   7.312  1.9045  1.0647 -0.3620
  187MOL    H4737619   7.353   3.511   7.144 -0.5906 -1.1663 -0.0049
  187MOL    H4837620   7.298   3.800   7.242  0.0480 -1.1501  2.5762
  187MOL    H4937621   7.564   3.653   7.174  0.4706  0.6785  0.4977
  187MOL    H5037622   7.490   3.949   7.186 -1.9451 -1.4802  0.8071
  187MOL    H5137623   7.609   3.888   7.083 -1.0005 -0.8008 -1.8235
  187MOL    C5237624   7.656   3.895   7.297  0.0016  0.2092 -0.5434
  187MOL    C5337625   7.584   3.896   7.432 -0.7799  0.3594 -0.7395
  187MOL    C5437626   7.620   3.854   7.552 -0.4916 -0.3235 -0.3997
  187MOL    C5537627   7.537   3.874   7.674  0.5622  0.0587 -0.6494
  187MOL    H5637628   7.733   3.818   7.294  0.7416  0.9683 -1.0580
  187MOL    H5737629   7.712   3.986   7.280  1.4783 -0.3208  1.3206
  187MOL    H5837630   7.485   3.936   7.416 -1.2036 -0.3550  0.0856
  187MOL    H5937631   7.717   3.811   7.570  0.1903 -0.0265 -3.1363
  187MOL    H6037632   7.579   3.816   7.756 -0.7085  0.4597  0.3113
  187MOL    H6137633   7.437   3.830   7.666  0.2006  0.9214 -0.9031
  187MOL    C6237634   7.517   4.015   7.719 -0.3607 -0.0824  0.0056
  187MOL    C6337635   7.637   4.072   7.801 -0.4482  0.1404 -0.4140
  187MOL    C6437636   7.698   4.186   7.775 -0.2935 -0.1676 -0.2205
  187MOL    C6537637   7.813   4.240   7.862 -0.3029  0.2951 -0.0397
  187MOL    H6637638   7.500   4.080   7.634  0.3127  0.1523  0.0449
  187MOL    H6737639   7.428   4.014   7.783 -0.5896 -0.5658 -0.3195
  187MOL    H6837640   7.670   4.008   7.881 -0.0154 -0.6090 -1.1729
  187MOL    H6937641   7.675   4.254   7.694  3.9116  0.5888 -0.8725
  187MOL    H7037642   7.827   4.175   7.949 -0.3305  0.5927  0.1907
  187MOL    H7137643   7.769   4.330   7.907  1.3647  0.3736  1.5130
  187MOL    C7237644   7.937   4.273   7.786 -0.2205 -0.3182  0.2947
  187MOL    C7337645   0.017   4.147   7.728 -0.5649 -0.2234 -0.4875
  187MOL    C7437646   0.007   4.125   7.595 -0.1243  0.7357  0.2619
  187MOL    C7537647   0.048   3.995   7.530  0.1303 -0.2052 -0.1978
  187MOL    H7637648   7.904   4.337   7.705  2.4479  1.8505  0.8501
  187MOL    H7737649   0.035   4.314   7.854 -0.1243 -0.1562  0.0880
  187MOL    H7837650   0.060   4.069   7.790  0.9567  0.7713 -0.2621
  187MOL    H7937651   7.934   4.203   7.539 -1.7640  1.1763  2.3035
  187MOL    H8037652   7.933   3.936   7.527 -0.3289  0.4962 -0.1286
  187MOL    H8137653   0.104   3.934   7.601 -1.1776  1.3665  2.2684
  187MOL    C8237654   0.107   3.994   7.389  0.3234 -0.1049  0.0404
  187MOL    C8337655   0.107   3.854   7.331 -0.3610  0.1558 -0.5381
  187MOL    C8437656   0.094   3.826   7.199  0.0592 -0.2605 -0.5361
  187MOL    C8537657   0.121   3.692   7.132 -0.0681 -0.6814  0.7623
  187MOL    H8637658   0.051   4.049   7.313  0.2279  2.1402  1.7271
  187MOL    H8737659   0.205   4.039   7.400 -0.0923  0.7880  0.1143
  187MOL    H8837660   0.142   3.778   7.400  2.0254  2.0410  0.3925
  187MOL    H8937661   0.070   3.908   7.132 -2.5367 -0.0682  0.5812
  187MOL    H9037662   0.163   3.621   7.204  0.0279 -0.4466  0.9372
  187MOL    H9137663   0.194   3.712   7.054 -2.1348  0.1419 -1.0230
  187MOL    C9237664   0.008   3.629   7.055 -0.6281  0.1459 -0.3600
  187MOL    C9337665   7.883   3.573   7.151 -0.5971 -0.0089  0.1176
  187MOL    C9437666   7.849   3.445   7.170  0.1569 -0.8978 -0.1449
  187MOL    C9537667   7.758   3.409   7.287  0.6071  0.1424  0.3097
  187MOL    H9637668   7.952   3.700   6.979 -3.0151  0.8595  1.2982
  187MOL    H9737669   0.052   3.543   7.006 -0.2128  0.7589 -1.0671
  187MOL    H9837670   7.836   3.649   7.212  1.3177  1.3334 -0.0315
  187MOL    H9937671   7.887   3.362   7.112 -0.6503 -2.9155  2.1365
  187MOL   H10037672   7.727   3.492   7.350  2.4069  1.6301 -0.7023
  187MOL   H10137673   7.807   3.344   7.359  0.7276 -0.6434 -0.4650
  187MOL   C10237674   7.646   3.327   7.228  1.1248  0.3592  0.5802
  187MOL   C10337675   7.577   3.247   7.332  0.7084  0.6473  0.3017
  187MOL   C10437676   7.444   3.255   7.355 -0.1402  0.5245  0.5883
  187MOL   C10537677   7.365   3.181   7.458  0.4517 -0.1680  0.1892
  187MOL   H10637678   7.580   3.394   7.174  3.7465  2.5952 -0.0021
  187MOL   H10737679   7.684   3.259   7.152  0.7819  1.3521 -0.4836
  187MOL   H10837680   7.644   3.174   7.375  0.5884 -0.1038 -0.7497
  187MOL   H10937681   7.387   3.319   7.288 -1.6718 -1.0781  0.3242
  187MOL   H11037682   7.354   3.259   7.534  1.7676 -1.9394  2.2373
  187MOL   H11137683   7.439   3.113   7.500  1.6530 -0.6291 -2.5450
  187MOL   C11237684   7.232   3.123   7.394 -0.1745 -0.5410  0.0479
  187MOL   C11337685   7.120   3.091   7.487 -0.3715  0.4495 -0.6617
  187MOL   C11437686   7.138   3.086   7.619  0.3555  0.8848 -0.4821
  187MOL   C11537687   7.030   3.039   7.716  0.1238  0.3508  0.6084
  187MOL   H11637688   7.188   3.203   7.334 -1.8044 -0.4513  1.3345
  187MOL   H11737689   7.259   3.030   7.345 -0.7155 -0.2038 -0.8962
  187MOL   H11837690   7.027   3.068   7.436 -0.8796 -2.5066  1.4742
  187MOL   H11937691   7.235   3.088   7.666 -0.6558 -0.8596  1.7921
  187MOL   H12037692   7.069   2.961   7.781 -2.3772 -0.3075  1.3802
  187MOL   H12137693   6.951   2.987   7.661  0.9051  0.9472 -1.0951
  187MOL   C12237694   6.984   3.163   7.806 -0.0341 -0.4854 -0.2258
  187MOL   C12337695   7.093   3.240   7.878  0.1117  0.4930  0.3300
  187MOL   C12437696   7.131   3.218   0.032  0.3354  0.3292 -0.4297
  187MOL   C12537697   7.239   3.292   0.111  0.2063  0.3928  0.2547
  187MOL   H12637698   6.928   3.236   7.748  0.7784  0.1620 -0.1962
  187MOL   H12737699   6.921   3.125   7.886 -0.6546  1.0518  0.0429
  187MOL   H12837700   7.144   3.307   7.811  1.0900  0.2524  0.8350
  187MOL   H12937701   7.085   3.133   0.082 -1.4319 -0.1509 -2.7598
  187MOL   H13037702   7.311   3.214   0.135 -0.6762 -0.3595  0.4970
  187MOL   H13137703   7.192   3.316   0.206  1.6439  0.7221  0.8892
  187MOL   C13237704   7.294   3.420   0.049  0.2663  0.3836  0.6238
  187MOL   C13337705   7.381   3.499   0.139  1.1527 -0.0956 -0.2966
  187MOL   C13437706   7.360   3.632   0.154 -0.2014 -0.0239 -0.3812
  187MOL   C13537707   7.451   3.724   0.237  0.1956  0.4591 -0.2924
  187MOL   H13637708   7.346   3.395   7.933 -4.0804  1.9611 -2.3807
  187MOL   H13737709   7.212   3.481   0.012  0.9598  1.1799  0.3775
  187MOL   H13837710   7.464   3.453   0.191  1.9091 -0.3526 -1.6977
  187MOL   H13937711   7.270   3.682   0.121  0.2158  1.4118  0.6158
  187MOL   H14037712   7.515   3.661   0.298 -0.9332 -0.1686  0.2519
  187MOL   H14137713   7.393   3.785   0.306  0.0570  0.8025 -0.7109
  187MOL   C14237714   7.543   3.812   0.152 -0.1647 -0.1936 -0.4364
  187MOL   C14337715   7.667   3.873   0.227 -0.0353  0.0236  0.1276
  187MOL   C14437716   7.681   4.001   0.256  0.7973 -0.7685 -0.2230
  187MOL   C14537717   7.775   4.066   0.353 -0.0318  0.2538  0.3908
  187MOL   H14637718   7.582   3.752   0.070  2.1709  1.4623 -0.6033
  187MOL   H14737719   7.471   3.883   0.111 -0.1608  1.1621  1.7573
  187MOL   H14837720   7.733   3.796   0.264 -0.1654 -0.0668  0.1748
  187MOL   H14937721   7.602   4.065   0.221  0.8826 -0.2451  0.5197
  187MOL   H15037722   7.838   3.990   0.400 -0.1180 -1.8939 -2.7793
  187MOL   H15137723   7.721   4.103   0.440 -0.4913  3.1640 -1.0810
  187MOL   C15237724   7.874   4.154   0.281  0.7349 -0.3595 -0.2309
  187MOL   C15337725   7.975   4.225   0.368  0.4831  0.1260  0.0014
  187MOL   C15437726   0.023   4.352   0.357 -0.1186 -0.1577  0.5769
  187MOL   C15537727   0.110   4.444   0.442  0.6578 -0.1081  0.5329
  187MOL   H15637728   7.920   4.095   0.203 -0.0018 -1.5149  0.1935
  187MOL   H15737729   7.808   4.226   0.232  0.1304 -0.0138  1.0463
  187MOL   H15837730   0.033   4.174   0.457 -1.5791 -0.1581  0.6748
  187MOL   H15937731   7.954   4.406   0.276  0.0955  0.5918  0.9499
  187MOL   H16037732   0.148   4.388   0.527  0.5685  1.6918  1.8038
  187MOL   H16137733   0.050   4.533   0.464 -0.1911 -0.0270 -1.8708
  187MOL   C16237734   0.236   4.494   0.365  0.3096  0.0571  0.1512
  187MOL   C16337735   0.312   4.599   0.447  0.2760 -0.1709 -0.1450
  187MOL   C16437736   0.386   4.566   0.553  1.2476  1.2388 -0.2711
  187MOL   C16537737   0.464   4.658   0.640  0.0239  0.0257  0.3920
  187MOL   H16637738   0.306   4.417   0.333  0.2539 -0.3411  0.9828
  187MOL   H16737739   0.198   4.548   0.278 -1.7391 -1.5682 -0.0183
  187MOL   H16837740   0.307   4.704   0.423  1.2601 -0.2981 -0.9545
  187MOL   H16937741   0.374   4.460   0.571 -2.6156  1.7577  0.7909
  187MOL   H17037742   0.448   4.630   0.744 -0.4278  1.0991  0.6173
  187MOL   H17137743   0.424   4.760   0.642  3.5325  1.4588  0.6149
  187MOL   C17237744   0.611   4.671   0.607 -0.7355  0.1445 -0.1549
  187MOL   C17337745   0.670   4.768   0.703 -0.0700  0.1227  0.1742
  187MOL   C17437746   0.724   4.883   0.664  0.1435  0.4259  0.1055
  187MOL   C17537747   0.776   4.988   0.757  0.3635  0.6775  0.7584
  187MOL   H17637748   0.668   4.578   0.615 -2.9420 -1.3607 -1.5535
  187MOL   H17737749   0.621   4.707   0.505  0.7926  1.3985  0.4220
  187MOL   H17837750   0.663   4.748   0.809 -1.5603  0.8650  0.2366
  187MOL   H17937751   0.708   4.912   0.561  1.8616 -3.5206 -1.3712
  187MOL   H18037752   0.880   5.012   0.736 -0.7359  1.4669 -4.6033
  187MOL   H18137753   0.776   4.952   0.859  0.4031 -0.2035  0.4499
  187MOL   C18237754   0.686   5.109   0.735 -0.0715 -0.1932  0.5665
  187MOL   C18337755   0.655   5.175   0.873 -0.4740 -0.8003 -0.1139
  187MOL   C18437756   0.528   5.221   0.902 -0.0512 -0.1423  0.2444
  187MOL   C18537757   0.491   5.304   1.022  0.2675  0.3995 -0.4087
  187MOL   H18637758   0.744   5.186   0.683 -0.1470 -1.8198 -1.9944
  187MOL   H18737759   0.589   5.085   0.691 -0.9740  0.7410  1.9774
  187MOL   H18837760   0.739   5.204   0.934  0.6779 -4.0073 -0.0625
  187MOL   H18937761   0.447   5.198   0.835 -0.5205  0.5820  0.5660
  187MOL   H19037762   0.575   5.307   1.091 -0.9459  1.9429  1.0194
  187MOL   H19137763   0.405   5.254   1.067  0.1690 -0.6103 -1.6665
  187MOL   C19237764   0.441   5.446   0.988  0.8512  0.4244 -0.1471
  187MOL   C19337765   0.423   5.545   1.109 -0.1172 -0.9850  0.4545
  187MOL   C19437766   0.312   5.602   1.152 -0.5760 -0.2156 -0.2123
  187MOL   C19537767   0.296   5.688   1.274 -0.2761 -0.2468  0.2466
  187MOL   H19637768   0.507   5.513   0.932 -3.2100  3.5228 -1.4464
  187MOL   H19737769   0.349   5.446   0.930  0.5221 -0.1683  0.3748
  187MOL   H19837770   0.515   5.555   1.164 -0.3153 -0.5444  0.7068
  187MOL   H19937771   0.225   5.573   1.095 -0.4770 -0.1058 -0.4216
  187MOL   H20037772   0.199   5.659   1.314 -2.4812  4.2571 -1.4870
  187MOL   H20137773   0.284   5.791   1.241  0.3643 -0.9539 -2.2922
  187MOL   H20237774   0.370   5.664   1.351 -1.0173 -0.2840  0.9554
  188MOL     C137775   0.895   3.282   1.478 -0.0851  0.2660  0.0770
  188MOL     C237776   1.030   3.269   1.406  0.7345  0.9827  0.0481
  188MOL     C337777   1.069   3.152   1.357 -0.0665 -0.0752  0.1533
  188MOL     C437778   1.198   3.112   1.279  0.6908  0.0318 -0.4396
  188MOL     H537779   0.912   3.328   1.575 -2.5761  2.8053 -0.6272
  188MOL     H637780   0.848   3.184   1.486 -0.4332  0.5825  2.1880
  188MOL     H737781   1.091   3.354   1.382 -0.5896  1.9769  0.1728
  188MOL     H837782   1.001   3.071   1.380  0.3860 -0.3853  0.3897
  188MOL     H937783   1.268   3.186   1.240  1.0360 -0.9106 -1.6677
  188MOL    H1037784   1.158   3.071   1.186 -0.0517 -1.2408  0.4243
  188MOL    H1137785   0.829   3.353   1.429 -2.6893 -2.5335 -0.5914
  188MOL    C1237786   1.277   3.008   1.356 -0.6451  0.7683  0.3274
  188MOL    C1337787   1.421   2.994   1.303  0.2576 -0.0812  0.5633
  188MOL    C1437788   1.470   2.875   1.274 -0.4110 -0.2405 -0.0518
  188MOL    C1537789   1.612   2.857   1.210 -0.6344  0.0743 -0.8626
  188MOL    H1637790   1.283   3.026   1.463 -3.2777 -0.4210  0.7136
  188MOL    H1737791   1.229   2.912   1.340  0.8188  0.1690 -0.6044
  188MOL    H1837792   1.473   3.089   1.299 -0.6480  0.4235  0.6818
  188MOL    H1937793   1.416   2.782   1.279  1.3527 -1.4263 -2.1469
  188MOL    H2037794   1.669   2.800   1.284  2.0317  1.9928 -1.3516
  188MOL    H2137795   1.664   2.953   1.210  1.8274 -1.1922  0.8474
  188MOL    C2237796   1.598   2.805   1.069 -0.5548  0.7445 -0.5957
  188MOL    C2337797   1.734   2.753   1.023  0.8601 -0.1853 -0.2007
  188MOL    C2437798   1.748   2.622   0.990  0.1721  0.3085 -0.0632
  188MOL    C2537799   1.876   2.552   0.950 -0.0446 -0.5098  0.2505
  188MOL    H2637800   1.533   2.718   1.065  0.2871  0.0766 -0.0051
  188MOL    H2737801   1.547   2.881   1.010 -3.7512 -1.4163 -0.7057
  188MOL    H2837802   1.814   2.824   1.036  1.7628 -1.3732  0.9129
  188MOL    H2937803   1.661   2.560   0.997 -0.2598  0.8576 -0.5451
  188MOL    H3037804   1.891   2.472   1.023  3.1996 -0.3288 -0.1384
  188MOL    H3137805   1.967   2.609   0.965  0.9502 -2.4588  1.8354
  188MOL    C3237806   1.858   2.504   0.806 -0.6205 -0.1189  0.1260
  188MOL    C3337807   1.969   2.416   0.757  0.2861  0.2046  0.0793
  188MOL    C3437808   1.958   2.284   0.727 -0.1960 -0.4012 -0.2014
  188MOL    C3537809   2.069   2.207   0.652  0.3232 -0.4569  0.1059
  188MOL    H3637810   1.767   2.446   0.794 -0.4328 -0.3832 -0.0144
  188MOL    H3737811   1.848   2.593   0.744  1.5936  0.3500  0.3932
  188MOL    H3837812   2.063   2.464   0.736  0.6062 -0.8383 -0.9246
  188MOL    H3937813   1.861   2.240   0.741  0.0966 -0.8668  0.3564
  188MOL    H4037814   2.111   2.128   0.715 -0.3366 -1.8278 -1.1517
  188MOL    H4137815   2.149   2.281   0.655  1.4294 -1.6020 -0.5969
  188MOL    C4237816   2.023   2.166   0.511 -0.1069 -0.4563  0.2784
  188MOL    C4337817   2.141   2.116   0.423 -0.4000 -0.3042 -0.3808
  188MOL    C4437818   2.160   2.154   0.295  0.1164  0.7948  0.0451
  188MOL    C4537819   2.274   2.103   0.214  1.0336  0.6144 -0.2300
  188MOL    H4637820   1.960   2.077   0.519  1.0700 -1.1853  1.6233
  188MOL    H4737821   1.973   2.247   0.458 -0.5837 -0.6286  0.4633
  188MOL    H4837822   2.204   2.034   0.456 -0.6262 -0.6950 -0.8942
  188MOL    H4937823   2.096   2.226   0.248 -1.5371 -0.7081 -0.0284
  188MOL    H5037824   2.306   2.012   0.265 -1.3900  0.0522  0.3175
  188MOL    H5137825   2.355   2.173   0.236  1.2552  1.0921 -2.3923
  188MOL    C5237826   2.245   2.086   0.064  0.0766  0.1233 -0.4873
  188MOL    C5337827   2.229   2.219   7.976  0.4083  0.0316  0.5089
  188MOL    C5437828   2.117   2.291   7.962 -0.1621  0.2255 -0.1099
  188MOL    C5537829   2.099   2.431   7.910 -0.4509 -0.0712  0.9245
  188MOL    H5637830   2.325   2.038   0.007  1.6091  1.3246  0.6009
  188MOL    H5737831   2.155   2.028   0.045  0.1865 -0.7475  1.5062
  188MOL    H5837832   2.323   2.262   7.944  1.7491 -2.7090  0.6001
  188MOL    H5937833   2.029   2.235   0.016  0.1695 -1.2063 -1.6906
  188MOL    H6037834   2.025   2.427   7.831  1.0556  2.2476 -0.6495
  188MOL    H6137835   2.188   2.471   7.863 -1.1914 -1.5952 -1.8572
  188MOL    C6237836   2.048   2.522   0.046 -0.4509  0.0209 -0.1773
  188MOL    C6337837   2.036   2.670   0.011  0.2684  0.2337 -0.5612
  188MOL    C6437838   2.067   2.777   0.092  0.5177  0.9834 -0.0734
  188MOL    C6537839   2.062   2.926   0.051  0.1159  0.4102 -0.3290
  188MOL    H6637840   1.952   2.485   0.081  0.4534 -2.2198  0.0254
  188MOL    H6737841   2.119   2.516   0.129  0.7395  0.6861 -1.1329
  188MOL    H6837842   2.014   2.687   7.884  1.1880 -3.3325 -1.3846
  188MOL    H6937843   2.098   2.755   0.193 -1.7507 -1.2289  0.2029
  188MOL    H7037844   2.008   2.982   0.127 -0.4486 -1.7457  0.8957
  188MOL    H7137845   2.000   2.925   7.938  0.1420 -0.0067 -0.3415
  188MOL    C7237846   2.194   2.986   0.009  0.0336  0.3603 -0.2239
  188MOL    C7337847   2.166   3.099   7.896  0.1674 -0.2952 -0.0584
  188MOL    C7437848   2.205   3.225   7.919 -0.3055 -0.0740 -0.0038
  188MOL    C7537849   2.166   3.345   7.830  0.6154 -0.2862 -0.5557
  188MOL    H7637850   2.267   3.008   0.087  0.9649 -1.0056 -0.6963
  188MOL    H7737851   2.242   2.922   7.912 -0.2903 -0.9678  0.6893
  188MOL    H7837852   2.096   3.088   7.814  0.8502  0.4601 -0.7561
  188MOL    H7937853   2.264   3.243   0.031 -1.7974  0.9203  0.7951
  188MOL    H8037854   2.103   3.311   7.748  0.3899  1.1621 -0.9898
  188MOL    H8137855   2.253   3.399   7.793  0.6240  0.8828  1.1032
  188MOL    C8237856   2.093   3.452   7.910 -0.1074 -0.3908 -0.0244
  188MOL    C8337857   2.027   3.558   7.823 -0.0177 -0.1389 -0.0977
  188MOL    C8437858   1.897   3.590   7.820 -0.2827 -0.1859  0.2561
  188MOL    C8537859   1.839   3.692   7.728 -0.0711 -0.5554 -0.9849
  188MOL    H8637860   2.021   3.405   0.001 -1.5487  0.2733 -1.0730
  188MOL    H8737861   2.164   3.504   7.973  0.9522 -0.9345 -0.7533
  188MOL    H8837862   2.097   3.615   7.763  1.0655 -1.6439 -0.2810
  188MOL    H8937863   1.834   3.526   7.880  1.0709  0.0614  1.9571
  188MOL    H9037864   1.808   3.654   7.631 -0.2036  0.7479 -1.4630
  188MOL    H9137865   1.918   3.768   7.726  0.1737 -0.7509  0.7087
  188MOL    C9237866   1.705   3.751   7.789 -0.7518  0.7650  0.0529
  188MOL    C9337867   1.643   3.850   7.691  0.2314  0.6607  0.1345
  188MOL    C9437868   1.537   3.822   7.615  0.1500  0.2038 -0.1362
  188MOL    C9537869   1.468   3.923   7.528 -0.3276 -0.3481  0.0110
  188MOL    H9637870   1.639   3.667   7.812  0.1931 -0.2324 -0.8083
  188MOL    H9737871   1.728   3.801   7.883  0.0468 -0.4076  0.5071
  188MOL    H9837872   1.688   3.948   7.686  0.1976  0.6634 -0.1414
  188MOL    H9937873   1.499   3.721   7.620 -0.7521  0.5151 -0.5164
  188MOL   H10037874   1.366   3.890   7.510 -0.6089  1.7664 -2.6648
  188MOL   H10137875   1.520   3.924   7.432  0.7113 -0.5773  0.5622
  188MOL   C10237876   1.457   4.065   7.588  0.6202 -0.1500  0.0858
  188MOL   C10337877   1.379   4.152   7.496  1.0196  0.0632 -0.1901
  188MOL   C10437878   1.270   4.223   7.529 -0.4815  0.0099 -0.5227
  188MOL   C10537879   1.172   4.282   7.431 -0.1557 -0.1377 -0.0733
  188MOL   H10637880   1.393   4.065   7.676  1.0099 -1.9996  0.3858
  188MOL   H10737881   1.547   4.123   7.609  1.2663 -0.5212 -1.5678
  188MOL   H10837882   1.419   4.163   7.396 -0.2793 -0.5342 -0.7934
  188MOL   H10937883   1.225   4.208   7.626 -0.4243  0.5473 -0.4065
  188MOL   H11037884   1.183   4.228   7.337 -0.8452 -2.1322  0.9663
  188MOL   H11137885   1.197   4.384   7.404  0.6136 -0.1966  0.3829
  188MOL   C11237886   1.021   4.267   7.462 -0.1037 -0.1523 -0.3779
  188MOL   C11337887   0.930   4.320   7.346 -0.0087 -0.2429 -0.7148
  188MOL   C11437888   0.839   4.420   7.364 -0.4013  0.9097 -0.7761
  188MOL   C11537889   0.766   4.480   7.249  0.2958  0.0053 -0.2092
  188MOL   H11637890   0.997   4.162   7.475  0.1370  0.0676  2.1491
  188MOL   H11737891   0.989   4.316   7.555  0.9667 -1.5745  0.7625
  188MOL   H11837892   0.934   4.264   7.253 -3.3180 -0.9571 -0.5029
  188MOL   H11937893   0.839   4.476   7.456 -2.2162  0.3747 -0.4130
  188MOL   H12037894   0.659   4.488   7.266  0.3963 -2.2855  1.6487
  188MOL   H12137895   0.786   4.412   7.166  3.6754  0.5103  0.1066
  188MOL   C12237896   0.815   4.614   7.201 -0.5883  0.7597  0.3753
  188MOL   C12337897   0.750   4.649   7.065  0.6736 -0.1741 -0.0361
  188MOL   C12437898   0.811   4.712   6.963  1.0965  0.4042 -0.4751
  188MOL   C12537899   0.742   4.752   6.829  0.0914 -0.3688 -0.5622
  188MOL   H12637900   0.790   4.694   7.271  0.5612  1.4212  0.0439
  188MOL   H12737901   0.923   4.618   7.195 -0.4535 -2.1010  0.4889
  188MOL   H12837902   0.646   4.621   7.064  0.8278 -0.7392 -0.3547
  188MOL   H12937903   0.917   4.731   6.964  1.0743  0.7208 -2.0563
  188MOL   H13037904   0.813   4.826   6.790 -0.8428  0.7288 -0.2313
  188MOL   H13137905   0.647   4.804   6.842  0.8629  0.6083  1.2826
  188MOL   C13237906   0.727   4.633   6.730  0.4581 -0.7805  0.0828
  188MOL   C13337907   0.647   4.664   6.609  0.9496 -0.1209 -0.7630
  188MOL   C13437908   0.556   4.584   6.557 -0.6374 -0.3029 -0.7840
  188MOL   C13537909   0.460   4.618   6.443  0.2282  0.3667  0.1810
  188MOL   H13637910   0.828   4.611   6.697 -0.6872 -1.6169 -3.0662
  188MOL   H13737911   0.687   4.546   6.783 -2.0253  0.0683 -0.3493
  188MOL   H13837912   0.666   4.761   6.565  0.2396 -0.2073 -1.2673
  188MOL   H13937913   0.552   4.495   6.618  4.0326  0.0635  0.2675
  188MOL   H14037914   0.505   4.690   6.374 -1.3807 -0.6905 -2.0277
  188MOL   H14137915   0.373   4.673   6.480  0.4935  1.8817 -1.3810
  188MOL   C14237916   0.405   4.496   6.372  0.2749  0.4212  0.0023
  188MOL   C14337917   0.313   4.521   6.258  0.3929 -0.1325  0.3435
  188MOL   C14437918   0.345   4.498   6.135  0.5240  0.4675  0.2406
  188MOL   C14537919   0.249   4.520   6.018  0.1269 -0.1987 -0.9556
  188MOL   H14637920   0.496   4.444   6.341  0.5897  0.2144  1.2510
  188MOL   H14737921   0.356   4.428   6.441  0.2214  0.8405  0.3793
  188MOL   H14837922   0.217   4.570   6.266 -0.1829 -0.8327 -1.9786
  188MOL   H14937923   0.443   4.457   6.113  1.1463  1.5317  0.9775
  188MOL   H15037924   0.157   4.557   6.064 -0.8445 -1.2506 -2.0257
  188MOL   H15137925   0.216   4.422   5.986 -1.5451  1.2285 -3.8449
  188MOL   C15237926   0.311   4.607   5.900  0.5234  0.5526  0.0373
  188MOL   C15337927   0.280   4.751   5.930  0.3854  0.6860 -0.5574
  188MOL   C15437928   0.188   4.825   5.866  0.8934  0.2278 -0.4646
  188MOL   C15537929   0.153   4.970   5.900  0.0812  0.3633  0.3255
  188MOL   H15637930   0.420   4.602   5.902  0.6154  1.2730 -2.0669
  188MOL   H15737931   0.263   4.596   5.803  2.9890 -0.4013 -1.1151
  188MOL   H15837932   0.327   4.784   6.022  1.5609  1.4146 -1.4038
  188MOL   H15937933   0.128   4.782   5.788  0.0075  2.3029 -0.9733
  188MOL   H16037934   0.207   5.002   5.990  1.4231  0.7635 -0.6116
  188MOL   H16137935   0.048   4.975   5.927 -0.5176 -0.8515 -1.7081
  188MOL   C16237936   0.175   5.067   5.782  0.5739 -0.5104  0.4130
  188MOL   C16337937   0.311   5.093   5.735 -0.0054  0.3720  0.2044
  188MOL   C16437938   0.341   5.091   5.605 -0.4568 -0.4015 -0.4582
  188MOL   C16537939   0.476   5.134   5.547  0.1561  0.0162 -0.2554
  188MOL   H16637940   0.110   5.026   5.705  1.3301 -0.8893 -0.0254
  188MOL   H16737941   0.141   5.166   5.810  1.9210  0.1556 -0.3065
  188MOL   H16837942   0.375   5.116   5.819  0.2106 -1.0875  0.4543
  188MOL   H16937943   0.258   5.070   5.540  0.9410 -0.2890 -2.3012
  188MOL   H17037944   0.548   5.173   5.620  0.1470  0.6168 -0.5657
  188MOL   H17137945   0.456   5.216   5.478 -1.1878 -0.2326 -0.1643
  188MOL   C17237946   0.556   5.021   5.477  0.1384 -0.1431  0.3963
  188MOL   C17337947   0.637   4.937   5.574 -0.2973  0.2908  0.3955
  188MOL   C17437948   0.637   4.802   5.571 -0.2052 -0.1718  0.1501
  188MOL   C17537949   0.741   4.715   5.649  0.5431 -0.1428  0.2290
  188MOL   H17637950   0.488   4.965   5.413  0.2495  0.5810 -0.3630
  188MOL   H17737951   0.639   5.048   5.412  0.8944 -0.6857  1.1208
  188MOL   H17837952   0.704   4.977   5.649 -0.8740  2.3749 -0.1556
  188MOL   H17937953   0.584   4.753   5.491 -1.3839  1.2774  0.0080
  188MOL   H18037954   0.813   4.675   5.578  1.1734 -1.8405  1.7671
  188MOL   H18137955   0.671   4.636   5.676  0.2698 -0.0895 -0.3133
  188MOL   C18237956   0.804   4.769   5.778 -0.2351 -0.4416 -0.1801
  188MOL   C18337957   0.704   4.809   5.890  0.0470  0.6139  0.4595
  188MOL   C18437958   0.697   4.932   5.937  0.7725  0.0551  0.0849
  188MOL   C18537959   0.610   4.962   6.053 -0.4121  0.1940  0.3120
  188MOL   H18637960   0.860   4.681   5.811  1.0195 -0.5706 -2.5239
  188MOL   H18737961   0.874   4.847   5.749 -0.0292 -0.1016  1.2114
  188MOL   H18837962   0.629   4.741   5.928 -1.8365  2.5629  0.3129
  188MOL   H18937963   0.749   5.017   5.893  0.1322 -1.7517 -4.4795
  188MOL   H19037964   0.548   4.881   6.090 -1.5268  0.6824 -0.4555
  188MOL   H19137965   0.552   5.040   6.004 -0.2883 -1.6702 -2.9488
  188MOL   C19237966   0.698   5.010   6.171  0.0553 -0.0569  0.0916
  188MOL   C19337967   0.778   4.894   6.238 -0.6362 -0.1092  0.7176
  188MOL   C19437968   0.909   4.892   6.273  0.1996  0.2166  0.4114
  188MOL   C19537969   0.990   4.773   6.320  0.2471  0.5394  0.2594
  188MOL   H19637970   0.758   5.097   6.144  1.3892  0.1283  3.3657
  188MOL   H19737971   0.631   5.048   6.248 -2.1428 -0.3952 -1.6162
  188MOL   H19837972   0.710   4.820   6.277 -0.4955 -0.1335  0.9139
  188MOL   H19937973   0.971   4.975   6.240  1.3771 -1.1505 -0.8582
  188MOL   H20037974   1.053   4.751   6.233  0.5048 -0.2497  0.6459
  188MOL   H20137975   0.933   4.684   6.348  1.5009 -0.0050  1.1237
  188MOL   H20237976   1.046   4.800   6.409  0.3045 -1.9952  1.0399
  189MOL     C137977   0.882   0.263   4.903  0.0259  0.3267 -0.9531
  189MOL     C237978   0.835   0.277   4.757 -0.0332 -0.8138 -0.1523
  189MOL     C337979   0.763   0.182   4.698 -0.0186  0.0939 -1.4207
  189MOL     C437980   0.714   0.199   4.559 -0.6886 -0.3082  0.2897
  189MOL     H537981   0.835   0.179   4.955 -0.4470 -0.6620 -2.9593
  189MOL     H637982   0.867   0.360   4.950  1.0527  0.4064 -0.7741
  189MOL     H737983   0.874   0.363   4.704 -1.6566  0.2236  0.2834
  189MOL     H837984   0.726   0.093   4.747  0.7436  0.8814  0.5936
  189MOL     H937985   0.738   0.296   4.515  1.5137 -1.0547 -0.2153
  189MOL    H1037986   0.607   0.178   4.552 -0.8294  0.5620 -0.3165
  189MOL    H1137987   0.989   0.240   4.903  0.2409  1.3414 -2.4728
  189MOL    C1237988   0.783   0.096   4.465  0.1347 -0.6278  0.1894
  189MOL    C1337989   0.712   0.101   4.332  0.0658 -0.0696  0.0442
  189MOL    C1437990   0.614   0.007   4.305 -0.2390 -0.2410  0.0940
  189MOL    C1537991   0.535   7.976   4.172 -0.0473  0.2900  0.3350
  189MOL    H1637992   0.889   0.116   4.448 -0.2114 -0.2135 -1.6765
  189MOL    H1737993   0.773   7.973   4.508 -1.5452 -0.4717  0.2011
  189MOL    H1837994   0.745   0.175   4.260 -1.4910 -1.0747 -1.7419
  189MOL    H1937995   0.579   7.907   4.373  0.9423 -1.8400 -1.0655
  189MOL    H2037996   0.567   7.890   4.113  3.7989 -0.0467  2.7207
  189MOL    H2137997   0.574   0.083   4.113 -0.0736 -1.7953 -2.7947
  189MOL    C2237998   0.386   0.008   4.200 -0.7298 -0.0830  0.5477
  189MOL    C2337999   0.325   0.029   4.061  0.4354 -0.1670  0.0366
  189MOL    C2438000   0.225   7.931   4.014  0.2550 -1.0461 -0.2824
  189MOL    C2538001   0.158   7.963   3.884 -0.3466  0.0217 -0.2345
  189MOL    H2638002   0.350   7.895   4.250 -0.2824  0.5501  2.0048
  189MOL    H2738003   0.362   0.095   4.259  0.2008  0.7998 -0.3501
  189MOL    H2838004   0.358   0.112   4.000 -0.0196 -0.2190 -0.2854
  189MOL    H2938005   0.183   7.854   4.076 -1.6708  0.7098  0.6779
  189MOL    H3038006   0.221   0.057   3.830 -1.8924  0.6379 -1.2773
  189MOL    H3138007   0.056   0.018   3.904 -0.0162 -0.5732  2.6523
  189MOL    C3238008   0.155   7.843   3.788 -0.5571  0.0234  0.7977
  189MOL    C3338009   0.108   7.712   3.855  0.3201 -0.4002  0.3624
  189MOL    C3438010   0.185   7.603   3.857 -0.2256 -0.2994 -0.0647
  189MOL    C3538011   0.168   7.480   3.939  0.1870 -0.2890  0.7837
  189MOL    H3638012   0.105   7.862   3.693 -1.1922 -1.5023  0.8148
  189MOL    H3738013   0.258   7.826   3.758 -0.6504  2.6455 -1.1285
  189MOL    H3838014   0.022   7.715   3.920  0.2464  0.5915  0.2326
  189MOL    H3938015   0.270   7.605   3.791 -0.2840 -1.5484 -0.1907
  189MOL    H4038016   0.069   7.484   3.985  0.4318  1.7068  1.1739
  189MOL    H4138017   0.254   7.482   4.006 -0.2946  0.5265  1.3835
  189MOL    C4238018   0.174   7.342   3.863  0.0143 -0.2885 -0.1034
  189MOL    C4338019   0.314   7.315   3.800 -0.1067  0.8715 -1.2975
  189MOL    C4438020   0.328   7.331   3.666  0.0384 -0.0586 -0.6714
  189MOL    C4538021   0.462   7.315   3.603  0.7987 -0.3199 -0.1322
  189MOL    H4638022   0.148   7.255   3.924  0.4150 -2.5353 -2.9814
  189MOL    H4738023   0.094   7.343   3.790 -0.8086  0.2188  0.7986
  189MOL    H4838024   0.397   7.284   3.862 -1.3356  1.3817  0.6694
  189MOL    H4938025   0.245   7.347   3.598 -0.6638 -2.8063 -0.4861
  189MOL    H5038026   0.544   7.327   3.674  0.5205 -0.4787  0.2180
  189MOL    H5138027   0.483   7.399   3.536 -1.5429 -0.3811 -0.9972
  189MOL    C5238028   0.457   7.176   3.542 -0.2745  0.0507 -0.1934
  189MOL    C5338029   0.584   7.140   3.462  0.0886  0.2247  0.1822
  189MOL    C5438030   0.594   7.162   3.331  0.0731  0.4819  0.2929
  189MOL    C5538031   0.728   7.161   3.257  0.2121  0.4625  0.7888
  189MOL    H5638032   0.437   7.092   3.609  3.3586 -0.4228  0.4033
  189MOL    H5738033   0.376   7.181   3.469 -1.5903  0.3636  1.2581
  189MOL    H5838034   0.668   7.100   3.515 -0.0801 -1.1838 -0.5782
  189MOL    H5938035   0.506   7.198   3.279 -1.8908 -1.8557  1.9040
  189MOL    H6038036   0.729   7.255   3.202  2.1398  0.5311  0.8934
  189MOL    H6138037   0.724   7.084   3.181 -1.5946 -0.4867  1.8120
  189MOL    C6238038   0.853   7.137   3.335 -0.3163 -0.1307 -0.8433
  189MOL    C6338039   0.973   7.165   3.246 -0.0024  0.3150  0.2739
  189MOL    C6438040   1.084   7.236   3.282  0.4998  0.1827  0.2140
  189MOL    C6538041   1.209   7.246   3.200  0.3272  0.4857 -0.0042
  189MOL    H6638042   0.856   7.199   3.425 -0.2874 -0.3424 -0.6973
  189MOL    H6738043   0.863   7.030   3.353  3.4316 -0.0778 -2.2050
  189MOL    H6838044   0.978   7.105   3.157  0.1204 -0.1712  0.6085
  189MOL    H6938045   1.083   7.285   3.378 -1.3752 -1.9147  1.3171
  189MOL    H7038046   1.229   7.153   3.148  1.2775  0.9414 -0.4698
  189MOL    H7138047   1.287   7.251   3.276  2.0540 -1.0380 -1.6256
  189MOL    C7238048   1.211   7.370   3.106  0.2975  0.2250  0.2807
  189MOL    C7338049   1.335   7.371   3.013 -0.0257  0.6905 -0.0297
  189MOL    C7438050   1.442   7.287   3.024  0.5618 -0.2280  0.0637
  189MOL    C7538051   1.558   7.269   2.934  0.4397 -0.2416  0.1087
  189MOL    H7638052   1.120   7.354   3.048 -0.3893 -0.4099  1.5295
  189MOL    H7738053   1.202   7.465   3.159 -2.5587 -0.6925  1.5412
  189MOL    H7838054   1.330   7.433   2.926 -0.7285 -0.6412 -0.9637
  189MOL    H7938055   1.455   7.221   3.109  1.4985 -1.1216 -0.7658
  189MOL    H8038056   1.553   7.325   2.841 -0.2350  0.4859  0.5788
  189MOL    H8138057   1.548   7.168   2.893  2.5826  0.6195 -2.6537
  189MOL    C8238058   1.695   7.281   3.003  0.0993 -0.1021  0.4955
  189MOL    C8338059   1.809   7.235   2.901  0.5134  0.1338  0.1919
  189MOL    C8438060   1.891   7.321   2.842  0.4445  0.2142 -0.8169
  189MOL    C8538061   1.990   7.276   2.739  1.0237  0.5759 -0.4768
  189MOL    H8638062   1.707   7.385   3.033 -1.0925  0.7495 -1.8389
  189MOL    H8738063   1.700   7.220   3.093 -1.5752 -1.9734 -0.6537
  189MOL    H8838064   1.805   7.128   2.883 -0.0813  0.0047  1.0311
  189MOL    H8938065   1.894   7.428   2.857  1.9419  0.2258 -1.1418
  189MOL    H9038066   2.008   7.170   2.756  1.0283  0.6979  0.2922
  189MOL    H9138067   2.092   7.307   2.764  0.7690  2.2368 -1.4231
  189MOL    C9238068   1.948   7.305   2.592  0.6961 -0.0525  0.3308
  189MOL    C9338069   1.882   7.185   2.523  0.0478 -0.1704 -0.1275
  189MOL    C9438070   1.751   7.185   2.499 -0.1979 -0.1561  0.1358
  189MOL    C9538071   1.662   7.069   2.451 -0.1551  0.5459 -0.1399
  189MOL    H9638072   1.881   7.391   2.592  2.8436  1.6936 -1.7746
  189MOL    H9738073   2.034   7.329   2.529 -0.8018 -1.2383 -2.2345
  189MOL    H9838074   1.932   7.090   2.514  3.0413  1.5326 -2.0671
  189MOL    H9938075   1.690   7.272   2.513 -1.0939 -0.5192 -1.3862
  189MOL   H10038076   1.604   7.049   2.541  1.1432  1.1554  0.8611
  189MOL   H10138077   1.718   6.977   2.435 -1.2283 -0.2083  0.4692
  189MOL   C10238078   1.560   7.098   2.338  0.2295 -0.6555 -0.1582
  189MOL   C10338079   1.493   6.974   2.280 -0.3447 -0.3028 -0.0451
  189MOL   C10438080   1.536   6.904   2.171  0.1134  0.2057 -0.2945
  189MOL   C10538081   1.457   6.796   2.107  1.2294  0.2482 -0.0196
  189MOL   H10638082   1.495   7.181   2.365  2.9273  1.6302 -0.3937
  189MOL   H10738083   1.616   7.153   2.263 -1.4912  0.4011 -0.6812
  189MOL   H10838084   1.394   6.956   2.320 -0.2524 -0.9243 -0.0918
  189MOL   H10938085   1.634   6.927   2.134  0.2319 -0.5498 -0.4586
  189MOL   H11038086   1.421   6.829   2.010 -0.5403 -0.6749  0.2865
  189MOL   H11138087   1.366   6.785   2.166  2.2924  0.0159  1.6175
  189MOL   C11238088   1.535   6.669   2.100 -0.0738  0.0166  0.4616
  189MOL   C11338089   1.465   6.569   2.007  0.3439 -0.0969  0.7220
  189MOL   C11438090   1.526   6.520   1.899  0.9002  0.6241  0.6321
  189MOL   C11538091   1.457   6.423   1.813  1.3418 -0.1668  0.6334
  189MOL   H11638092   1.635   6.676   2.055  0.3047  0.7562  1.4051
  189MOL   H11738093   1.555   6.635   2.201  1.3868  1.6482  0.7473
  189MOL   H11838094   1.365   6.549   2.042  0.0115  0.4155  0.0747
  189MOL   H11938095   1.629   6.547   1.884  1.3202 -0.2621  1.8305
  189MOL   H12038096   1.433   6.472   1.719  1.5409 -0.7177  0.2928
  189MOL   H12138097   1.357   6.405   1.853  1.9348 -1.2236  1.6624
  189MOL   C12238098   1.533   6.284   1.813  0.0331  0.8989 -0.3637
  189MOL   C12338099   1.678   6.305   1.752  0.5351  0.0048  0.3617
  189MOL   C12438100   1.714   6.231   1.639 -0.6261  0.8067 -0.3624
  189MOL   C12538101   1.852   6.232   1.578  0.4004 -0.4636  0.4952
  189MOL   H12638102   1.539   6.249   1.917 -0.8889  0.0899 -0.5790
  189MOL   H12738103   1.474   6.209   1.761  1.7129 -0.8632  0.1675
  189MOL   H12838104   1.744   6.362   1.815 -0.0339  1.0565  0.0137
  189MOL   H12938105   1.639   6.166   1.597 -2.4938  1.5535  1.6934
  189MOL   H13038106   1.916   6.297   1.638 -0.1761  0.8186 -0.2482
  189MOL   H13138107   1.837   6.288   1.485  0.2019 -0.2936  0.6304
  189MOL   C13238108   1.907   6.093   1.547 -0.9914 -1.1017  0.2447
  189MOL   C13338109   2.044   6.104   1.482  0.1686  0.2124 -0.1953
  189MOL   C13438110   2.150   6.038   1.528  0.2592 -0.6801 -1.0085
  189MOL   C13538111   2.289   6.022   1.466  0.5807  0.1281 -0.8266
  189MOL   H13638112   1.912   6.035   1.639 -2.3566  0.3707  1.2673
  189MOL   H13738113   1.840   6.044   1.476 -0.8964 -1.7534  0.6047
  189MOL   H13838114   2.045   6.164   1.392 -0.5650  2.5040  1.2874
  189MOL   H13938115   2.147   5.967   1.609 -0.2051  1.3605  0.8117
  189MOL   H14038116   2.365   6.064   1.532 -3.1677  1.1859  2.9943
  189MOL   H14138117   2.298   6.071   1.368  1.7963 -0.3066 -0.9443
  189MOL   C14238118   2.313   5.879   1.436  1.3176  0.4760 -0.3226
  189MOL   C14338119   2.459   5.850   1.393  0.0554 -0.3028  0.0652
  189MOL   C14438120   2.504   5.803   1.278  0.2504  0.4651 -0.1326
  189MOL   C14538121   2.646   5.774   1.247 -0.0382 -0.2015 -0.5124
  189MOL   H14638122   2.290   5.821   1.525  1.0278  0.8328 -0.1613
  189MOL   H14738123   2.237   5.851   1.363  0.8531  0.4841  0.1578
  189MOL   H14838124   2.529   5.870   1.473  1.1158 -0.6218 -0.7724
  189MOL   H14938125   2.433   5.770   1.203  0.5522 -2.2106  0.7155
  189MOL   H15038126   2.661   5.666   1.253  1.0887 -0.0931 -1.2092
  189MOL   H15138127   2.710   5.822   1.322  0.9837 -0.3909 -1.2494
  189MOL   C15238128   2.695   5.826   1.109 -0.3717 -0.6163  0.3716
  189MOL   C15338129   2.655   5.968   1.094 -0.0729  0.0780  0.8238
  189MOL   C15438130   2.546   6.005   1.027  0.2752 -0.1353  0.7148
  189MOL   C15538131   2.487   6.149   1.008  0.2136 -0.1792  0.1463
  189MOL   H15638132   2.804   5.828   1.112 -0.3958  1.5949 -0.0164
  189MOL   H15738133   2.661   5.760   1.029 -0.0611  0.6360 -0.8089
  189MOL   H15838134   2.718   6.040   1.144  3.4058 -1.5118 -1.1549
  189MOL   H15938135   2.491   5.924   0.981  0.1069  0.8783 -0.9191
  189MOL   H16038136   2.569   6.221   1.008 -0.2915  0.4140  0.7092
  189MOL   H16138137   2.416   6.170   1.088 -1.1065 -0.0479 -1.0457
  189MOL   C16238138   2.401   6.149   0.879 -0.7654 -0.4901  0.1789
  189MOL   C16338139   2.291   6.261   0.880 -0.1359  0.9179 -0.5830
  189MOL   C16438140   2.284   6.377   0.815  0.5120 -0.4653  0.3907
  189MOL   C16538141   2.175   6.488   0.838 -0.4430  0.5910 -0.3652
  189MOL   H16638142   2.452   6.167   0.785 -1.9992 -0.9226 -0.5892
  189MOL   H16738143   2.344   6.058   0.860 -0.4976 -0.3112 -1.5521
  189MOL   H16838144   2.209   6.240   0.946 -1.0773 -1.1297 -2.3139
  189MOL   H16938145   2.357   6.393   0.737  1.5010 -1.9024  0.9935
  189MOL   H17038146   2.097   6.458   0.908 -0.2440  1.9630  0.4697
  189MOL   H17138147   2.145   6.495   0.734  3.7526 -0.6584 -1.7780
  189MOL   C17238148   2.239   6.629   0.870  0.2996 -0.9094 -0.4386
  189MOL   C17338149   2.114   6.723   0.897  0.0944  0.2099 -0.4058
  189MOL   C17438150   2.097   6.799   1.012  0.2212  0.1087  0.4413
  189MOL   C17538151   1.978   6.880   1.030 -0.2749  0.1951 -0.1674
  189MOL   H17638152   2.296   6.620   0.962 -0.9304  3.6148  0.8756
  189MOL   H17738153   2.293   6.666   0.783 -0.6611  0.8150 -0.3156
  189MOL   H17838154   2.049   6.727   0.811 -0.2097  0.0353 -0.1866
  189MOL   H17938155   2.167   6.784   1.093  0.9210 -2.6057 -0.6138
  189MOL   H18038156   1.943   6.879   1.133 -1.5386  0.9598 -0.5876
  189MOL   H18138157   1.892   6.847   0.973 -0.7649 -2.8147  2.1536
  189MOL   C18238158   2.019   7.030   1.011  0.6827  0.4577  0.4038
  189MOL   C18338159   1.898   7.119   1.016 -0.0467  0.1412  0.3911
  189MOL   C18438160   1.859   7.187   0.906 -0.1954  0.1608 -0.0987
  189MOL   C18538161   1.738   7.278   0.899 -0.2018  0.3834  0.1916
  189MOL   H18638162   2.072   7.064   1.100  1.3755  0.8041 -0.1376
  189MOL   H18738163   2.074   7.047   0.918  1.2151 -2.3144  0.1808
  189MOL   H18838164   1.851   7.128   1.113 -0.5382 -0.4601  0.2102
  189MOL   H18938165   1.920   7.189   0.818  0.9359  0.4361  0.6746
  189MOL   H19038166   1.761   7.369   0.844 -0.5569  0.9193  0.9059
  189MOL   H19138167   1.706   7.314   0.997 -1.5325 -0.9012  0.2479
  189MOL   C19238168   1.614   7.206   0.837  0.7677  0.6584 -0.6240
  189MOL   C19338169   1.548   7.098   0.923 -0.5809  0.5845 -0.2003
  189MOL   C19438170   1.531   6.971   0.895 -0.7993  0.3769  0.0090
  189MOL   C19538171   1.485   6.875   1.005 -0.5560  0.1719  0.6024
  189MOL   H19638172   1.538   7.282   0.819  1.6015  1.7650  0.4771
  189MOL   H19738173   1.633   7.160   0.740 -0.1278 -0.2992 -0.3618
  189MOL   H19838174   1.532   7.125   1.026 -0.3825 -0.9011  0.2305
  189MOL   H19938175   1.550   6.936   0.795  1.5324  0.0413  0.5310
  189MOL   H20038176   1.443   6.922   1.094 -0.3446  1.9949 -0.2366
  189MOL   H20138177   1.575   6.818   1.029 -1.4267 -2.2657 -1.6111
  189MOL   H20238178   1.399   6.815   0.974  0.4534 -1.4925  0.9719
  190MOL     C138179   7.449   4.853   5.172 -0.6861 -0.2340 -0.1087
  190MOL     C238180   7.353   4.939   5.249 -0.3334 -0.3154  0.4930
  190MOL     C338181   7.271   5.020   5.180  0.3317 -0.1745  0.0814
  190MOL     C438182   7.183   5.125   5.238 -0.6186  0.5836 -0.3115
  190MOL     H538183   7.430   4.852   5.064  0.0790  2.0463 -0.3114
  190MOL     H638184   7.471   4.753   5.209  2.4373  0.5174  0.2122
  190MOL     H738185   7.356   4.935   5.357 -1.9065  0.6258  0.5882
  190MOL     H838186   7.265   5.017   5.073  0.1516  0.1222  0.0835
  190MOL     H938187   7.224   5.223   5.213 -0.9804  1.4212  2.2398
  190MOL    H1038188   7.179   5.115   5.346 -1.0823  0.1955 -0.3616
  190MOL    H1138189   7.542   4.910   5.178 -1.2933  1.0776 -2.1747
  190MOL    C1238190   7.042   5.115   5.180 -0.6656 -0.3508 -0.7308
  190MOL    C1338191   6.973   4.978   5.194  0.2425 -0.7187  0.5246
  190MOL    C1438192   6.875   4.949   5.279  0.4116 -0.3143  0.4446
  190MOL    C1538193   6.803   4.814   5.304  0.0426  0.3048 -0.7209
  190MOL    H1638194   6.990   5.182   5.248  0.4139  0.4996 -0.7326
  190MOL    H1738195   7.037   5.154   5.079 -1.1587  2.0259  0.1865
  190MOL    H1838196   6.998   4.902   5.121 -0.9742 -1.1285  0.5202
  190MOL    H1938197   6.838   5.032   5.338 -0.7868 -0.3140 -0.2991
  190MOL    H2038198   6.859   4.736   5.254 -0.1998  0.3587 -1.0775
  190MOL    H2138199   6.707   4.823   5.252 -1.4172 -1.0260  1.6595
  190MOL    C2238200   6.798   4.770   5.447 -0.1349 -0.8195 -0.2973
  190MOL    C2338201   6.736   4.630   5.475  0.1429 -0.7392 -0.3002
  190MOL    C2438202   6.661   4.610   5.588 -0.5306 -0.5673  0.9112
  190MOL    C2538203   6.605   4.477   5.627  0.3257  0.4782 -0.8068
  190MOL    H2638204   6.896   4.779   5.493 -0.1847 -0.6408 -0.2236
  190MOL    H2738205   6.743   4.848   5.501  2.2595 -0.1347  1.2383
  190MOL    H2838206   6.746   4.548   5.406  0.8552 -1.8523  1.0883
  190MOL    H2938207   6.642   4.690   5.658  0.1495 -0.6379  1.1851
  190MOL    H3038208   6.658   4.405   5.565 -1.5401 -1.6704  0.0280
  190MOL    H3138209   6.503   4.471   5.589 -0.0940 -1.1104  0.5081
  190MOL    C3238210   6.619   4.438   5.777 -0.2075  0.6448  0.3866
  190MOL    C3338211   6.672   4.295   5.806  0.2709  0.1546  0.2519
  190MOL    C3438212   6.587   4.216   5.877  0.1619 -0.6130 -0.6427
  190MOL    C3538213   6.608   4.069   5.896  0.3413  0.0963  0.9763
  190MOL    H3638214   6.706   4.498   5.807  0.8227  0.2947 -1.8438
  190MOL    H3738215   6.539   4.477   5.839 -2.3090 -1.1930 -1.1171
  190MOL    H3838216   6.760   4.268   5.749 -1.1088 -0.8371 -1.4563
  190MOL    H3938217   6.498   4.263   5.915  0.2581  1.0673 -2.4646
  190MOL    H4038218   6.626   4.046   6.001 -1.7618  0.0866  1.3490
  190MOL    H4138219   6.698   4.036   5.845  0.1535  0.9322  0.0883
  190MOL    C4238220   6.492   3.979   5.833  0.1073  0.6466 -0.2182
  190MOL    C4338221   6.526   3.840   5.878  0.3128  0.2120  0.2804
  190MOL    C4438222   6.458   3.774   5.973 -0.3607  0.3074 -0.1257
  190MOL    C4538223   6.470   3.631   6.024  0.6446  0.2002 -0.0467
  190MOL    H4638224   6.389   3.994   5.867  0.1392  0.1836  0.0881
  190MOL    H4738225   6.470   3.985   5.727 -0.2542 -2.1215 -0.3347
  190MOL    H4838226   6.609   3.797   5.824 -1.0443  0.2999 -1.9073
  190MOL    H4938227   6.363   3.810   6.007 -1.5858 -1.7320 -1.2733
  190MOL    H5038228   6.417   3.628   6.119 -0.4201 -2.3194 -0.6681
  190MOL    H5138229   6.575   3.602   6.031  0.3468 -0.5528  1.4342
  190MOL    C5238230   6.386   3.523   5.946 -0.2252  0.1887  0.3381
  190MOL    C5338231   6.402   3.381   6.003  0.0369  0.3726 -0.0452
  190MOL    C5438232   6.305   3.311   6.054 -0.1366 -0.4059  0.4189
  190MOL    C5538233   6.315   3.173   6.101  0.3224  0.1254  0.7002
  190MOL    H5638234   6.282   3.557   5.939  0.6901  3.3750  1.4596
  190MOL    H5738235   6.416   3.526   5.841 -1.3445  2.9365  0.0522
  190MOL    H5838236   6.503   3.343   5.989 -0.0706  0.1377 -0.1838
  190MOL    H5938237   6.206   3.354   6.060 -0.2723 -0.9271  2.1934
  190MOL    H6038238   6.419   3.145   6.116 -0.1160 -0.4985  2.8526
  190MOL    H6138239   6.268   3.105   6.029  1.4527 -0.9044  0.9103
  190MOL    C6238240   6.244   3.158   6.236  0.3438  0.0377 -0.6600
  190MOL    C6338241   6.263   3.014   6.292  0.2301  0.6738 -0.0938
  190MOL    C6438242   6.168   2.932   6.343 -0.1920  0.2842 -0.2918
  190MOL    C6538243   6.181   2.797   6.417  0.4438 -0.7425  0.1818
  190MOL    H6638244   6.280   3.234   6.306  1.8623 -1.0656 -0.1941
  190MOL    H6738245   6.137   3.178   6.230  0.2111 -0.9592 -1.7374
  190MOL    H6838246   6.365   2.979   6.300  0.2824  0.2553 -2.1767
  190MOL    H6938247   6.067   2.971   6.341 -0.7063 -1.0670 -1.4132
  190MOL    H7038248   6.092   2.778   6.477 -0.7142  1.0046 -0.9451
  190MOL    H7138249   6.259   2.811   6.491 -1.7612 -0.7157  2.5614
  190MOL    C7238250   6.195   2.682   6.316 -0.0078  0.0904  0.0491
  190MOL    C7338251   6.335   2.631   6.299 -0.6443 -0.3020  0.0638
  190MOL    C7438252   6.385   2.596   6.186 -0.2773  0.7179  0.2689
  190MOL    C7538253   6.526   2.548   6.155  0.0176 -0.0390  0.1168
  190MOL    H7638254   6.136   2.605   6.365 -0.4730  1.8986  2.4354
  190MOL    H7738255   6.143   2.717   6.226 -0.5495  1.5375  0.8999
  190MOL    H7838256   6.387   2.617   6.393 -0.4844  0.7318  0.1361
  190MOL    H7938257   6.316   2.605   6.103  0.0448  0.8016  0.0115
  190MOL    H8038258   6.524   2.485   6.066 -0.9318  0.8309 -0.4874
  190MOL    H8138259   6.556   2.488   6.241 -1.5193  0.7562  1.2313
  190MOL    C8238260   6.616   2.671   6.143  0.1666 -0.2902  0.0300
  190MOL    C8338261   6.581   2.749   6.019  0.6085 -0.3785  0.2754
  190MOL    C8438262   6.539   2.878   6.002  0.2776 -0.9204  0.6687
  190MOL    C8538263   6.501   2.931   5.861  0.1175  0.1743  0.9252
  190MOL    H8638264   6.603   2.743   6.223 -1.3143  0.3201 -0.7336
  190MOL    H8738265   6.716   2.629   6.142  0.8671  1.3441 -1.2297
  190MOL    H8838266   6.584   2.687   5.931 -0.8858  0.1831 -0.1905
  190MOL    H8938267   6.534   2.948   6.084  1.8402 -0.5501  0.4619
  190MOL    H9038268   6.396   2.960   5.860 -0.1026 -0.4520  2.9645
  190MOL    H9138269   6.525   2.855   5.787  2.0142  1.8681 -0.2331
  190MOL    C9238270   6.592   3.050   5.818 -0.3737 -1.3745 -0.0861
  190MOL    C9338271   6.544   3.118   5.694  0.1157 -0.4411  0.2257
  190MOL    C9438272   6.626   3.211   5.639 -0.2171 -0.4349  0.8031
  190MOL    C9538273   6.598   3.306   5.522  0.8586  0.2462 -0.0530
  190MOL    H9638274   6.580   3.125   5.896 -1.9796  0.3385 -1.9183
  190MOL    H9738275   6.697   3.020   5.817 -0.1620 -0.6579 -2.4570
  190MOL    H9838276   6.445   3.099   5.656 -0.3656  2.0129  0.1755
  190MOL    H9938277   6.724   3.220   5.684 -0.7542 -0.9946  2.1142
  190MOL   H10038278   6.666   3.287   5.439  1.5945  0.6718  0.4507
  190MOL   H10138279   6.614   3.405   5.563 -1.9155  0.2007  1.3045
  190MOL   C10238280   6.444   3.310   5.478 -0.2149  0.7272  0.0024
  190MOL   C10338281   6.434   3.364   5.340  0.0181 -0.5114  0.0839
  190MOL   C10438282   6.354   3.327   5.239  0.1291 -0.2703 -0.3985
  190MOL   C10538283   6.345   3.392   5.105  0.7457 -0.5067 -0.8641
  190MOL   H10638284   6.399   3.210   5.474 -1.8780  1.5067 -1.4870
  190MOL   H10738285   6.388   3.381   5.539 -0.8331 -2.1076  2.9025
  190MOL   H10838286   6.473   3.464   5.333 -0.2714 -0.6062 -4.2086
  190MOL   H10938287   6.300   3.235   5.249 -0.5403  0.5082  4.1639
  190MOL   H11038288   6.337   3.500   5.122 -0.4373 -0.7175 -0.0260
  190MOL   H11138289   6.249   3.358   5.066 -0.4114  0.9221  0.7103
  190MOL   C11238290   6.466   3.357   5.016  0.5396  0.0082  0.0070
  190MOL   C11338291   6.468   3.446   4.893 -0.1899  0.5079 -0.6939
  190MOL   C11438292   6.448   3.407   4.763  0.3334 -0.2495  0.0798
  190MOL   C11538293   6.447   3.503   4.645  0.0233 -0.6876  0.2101
  190MOL   H11638294   6.561   3.381   5.063  0.6326  1.0813 -0.7251
  190MOL   H11738295   6.474   3.252   4.988  1.9915 -0.5189  2.3113
  190MOL   H11838296   6.485   3.552   4.907  0.0127  0.6973 -2.3070
  190MOL   H11938297   6.428   3.305   4.736 -0.3296 -0.1767  0.2823
  190MOL   H12038298   6.525   3.470   4.576 -0.6317  0.3225 -1.0127
  190MOL   H12138299   6.473   3.605   4.673  0.9364 -0.4782 -1.3093
  190MOL   C12238300   6.316   3.521   4.579  0.4035  0.4662 -0.1974
  190MOL   C12338301   6.328   3.582   4.443  0.1268 -0.0539  0.3591
  190MOL   C12438302   6.246   3.669   4.390  0.1935 -1.1420  0.6481
  190MOL   C12538303   6.260   3.735   4.252  0.2118  0.1041 -0.0767
  190MOL   H12638304   6.283   3.419   4.562 -0.9625  0.7816  0.5147
  190MOL   H12738305   6.232   3.558   4.637  0.4771  0.5874 -0.1659
  190MOL   H12838306   6.401   3.537   4.377 -1.0124 -2.3451  0.6174
  190MOL   H12938307   6.178   3.719   4.457  2.7849  3.6017 -0.0238
  190MOL   H13038308   6.175   3.701   4.193  0.2131 -0.5331  0.2825
  190MOL   H13138309   6.346   3.693   4.199  0.3127  0.6256 -0.3269
  190MOL   C13238310   6.279   3.888   4.267 -0.3519  0.6329  0.1057
  190MOL   C13338311   6.159   3.965   4.317  0.3681  0.0881  0.1042
  190MOL   C13438312   6.159   4.062   4.406  0.2801 -0.3671  0.3658
  190MOL   C13538313   6.041   4.153   4.438  0.6934  0.4322 -0.8321
  190MOL   H13638314   6.371   3.910   4.322 -0.6217  0.5382  0.6039
  190MOL   H13738315   6.308   3.921   4.167  2.0503  2.5287  1.3670
  190MOL   H13838316   6.060   3.949   4.279  0.4666  1.8080 -0.9368
  190MOL   H13938317   6.250   4.078   4.462 -0.3611 -1.7291  1.8509
  190MOL   H14038318   5.961   4.118   4.373 -0.7177 -1.6383  1.8978
  190MOL   H14138319   6.066   4.253   4.403  2.9220  0.8972  1.8538
  190MOL   C14238320   5.993   4.148   4.589  0.0834 -0.3268  0.2850
  190MOL   C14338321   5.866   4.228   4.601  0.0888  0.1285  0.3562
  190MOL   C14438322   5.828   4.350   4.553 -0.0320 -0.3271  0.8156
  190MOL   C14538323   5.682   4.398   4.579 -0.1312 -0.6869  0.7373
  190MOL   H14638324   5.975   4.047   4.625  1.3004 -0.3848  0.7678
  190MOL   H14738325   6.076   4.188   4.648 -0.6246  3.5266 -1.1778
  190MOL   H14838326   5.789   4.176   4.656 -1.2791 -0.9447 -2.4498
  190MOL   H14938327   5.888   4.415   4.491 -0.3409 -0.0185  0.8334
  190MOL   H15038328   5.615   4.320   4.613 -0.2413 -1.7674 -1.8181
  190MOL   H15138329   5.638   4.418   4.481 -1.3444 -0.4676  1.3108
  190MOL   C15238330   5.687   4.524   4.668 -0.2532 -0.0969 -0.3857
  190MOL   C15338331   5.546   4.569   4.698  0.1393  0.4057 -0.6886
  190MOL   C15438332   5.511   4.657   4.799 -0.2476  0.3211  0.1132
  190MOL   C15538333   5.366   4.698   4.841  0.8160 -0.4147 -0.1289
  190MOL   H15638334   5.741   4.485   4.755  0.7663  1.1116 -0.4679
  190MOL   H15738335   5.748   4.602   4.623  0.6214  0.2001  1.2734
  190MOL   H15838336   5.467   4.520   4.642  0.5497 -2.3383  1.0243
  190MOL   H15938337   5.590   4.694   4.863 -0.4753 -1.9929  1.8102
  190MOL   H16038338   5.287   4.641   4.790  0.4420 -0.4874  0.5154
  190MOL   H16138339   5.348   4.802   4.817  0.5166 -0.7128 -1.2126
  190MOL   C16238340   5.329   4.693   4.989 -0.0461 -0.1992 -0.3181
  190MOL   C16338341   5.198   4.752   5.025  1.3044 -0.1714  0.1899
  190MOL   C16438342   5.117   4.712   5.129 -0.2178  0.1162  0.3678
  190MOL   C16538343   4.997   4.791   5.182  0.0055  0.4322 -0.4987
  190MOL   H16638344   5.331   4.590   5.025 -0.1743 -1.3775 -3.5116
  190MOL   H16738345   5.398   4.760   5.041  0.7578  0.3979 -2.1159
  190MOL   H16838346   5.165   4.840   4.971 -1.0467 -1.7316 -1.0088
  190MOL   H16938347   5.146   4.627   5.190  1.0440  0.5937  0.4498
  190MOL   H17038348   4.988   4.875   5.112 -0.7147 -0.6753 -1.7615
  190MOL   H17138349   5.027   4.835   5.277  0.2980 -0.1889 -0.3057
  190MOL   C17238350   4.860   4.711   5.177  0.1261 -0.0025  0.6349
  190MOL   C17338351   4.740   4.780   5.247  0.4730 -0.0394  1.5380
  190MOL   C17438352   4.734   4.912   5.278 -0.1867 -0.3555  0.4621
  190MOL   C17538353   4.616   4.965   5.351 -0.0272  0.4701  0.1236
  190MOL   H17638354   4.835   4.690   5.073  1.0559 -0.0032  0.4074
  190MOL   H17738355   4.878   4.615   5.226  0.6567 -1.1456 -1.7546
  190MOL   H17838356   4.660   4.712   5.272  1.0646 -2.3021 -2.3029
  190MOL   H17938357   4.819   4.966   5.239  2.8793 -3.1505  2.9539
  190MOL   H18038358   4.563   4.879   5.392 -0.5849  0.6024 -0.3202
  190MOL   H18138359   4.544   5.016   5.288 -0.0163  1.0881  0.6096
  190MOL   C18238360   4.658   5.057   5.465 -0.5615 -0.4792  0.2614
  190MOL   C18338361   4.547   5.125   5.540 -0.5434  0.4723  0.0129
  190MOL   C18438362   4.523   5.108   5.672  0.3150 -0.0157 -0.2753
  190MOL   C18538363   4.402   5.167   5.737  0.7247  0.2542 -0.1738
  190MOL   H18638364   4.704   4.995   5.542  1.4123  0.5355 -0.0605
  190MOL   H18738365   4.735   5.124   5.426 -0.2073  0.4482  2.5006
  190MOL   H18838366   4.482   5.194   5.488 -1.5912 -0.7492 -0.3304
  190MOL   H18938367   4.582   5.042   5.735  0.3767  0.9163  0.6714
  190MOL   H19038368   4.343   5.235   5.676 -0.1354 -0.4210 -0.1008
  190MOL   H19138369   4.425   5.231   5.823 -0.0833  0.7455 -0.3176
  190MOL   C19238370   4.313   5.053   5.788  0.5764  0.3263 -0.1168
  190MOL   C19338371   4.215   5.099   5.897  0.5973  0.6173  0.0724
  190MOL   C19438372   4.246   5.133   6.022  0.2676 -0.0884  0.1636
  190MOL   C19538373   4.144   5.168   6.124  0.4580 -0.0663  0.1207
  190MOL   H19638374   4.254   5.008   5.708  1.1880  0.8444 -0.8664
  190MOL   H19738375   4.369   4.969   5.829  0.5723  0.5754  0.3938
  190MOL   H19838376   4.116   5.111   5.856  0.8885  3.2796  0.0589
  190MOL   H19938377   4.344   5.121   6.067  1.2215  1.6027 -1.3909
  190MOL   H20038378   4.171   5.256   6.182 -2.2407  0.5362  0.5722
  190MOL   H20138379   4.157   5.084   6.192  0.1145  0.8758  1.3704
  190MOL   H20238380   4.043   5.175   6.083  0.8791 -0.9382 -1.0985
  191MOL     C138381   4.826   3.479   6.936  0.1332  0.4930 -0.1584
  191MOL     C238382   4.878   3.341   6.894 -0.6789 -0.2116 -0.4611
  191MOL     C338383   4.819   3.222   6.917 -0.6946 -0.5508  0.7437
  191MOL     C438384   4.872   3.086   6.868 -0.5446  0.5434 -0.0111
  191MOL     H538385   4.750   3.470   7.014  0.5610  1.4714  0.3665
  191MOL     H638386   4.787   3.536   6.851  0.4436 -2.3599 -2.2816
  191MOL     H738387   4.977   3.347   6.851 -1.2570  1.6942 -1.5605
  191MOL     H838388   4.721   3.220   6.961 -0.8964 -1.1578  0.2880
  191MOL     H938389   4.954   3.101   6.798 -1.2406  0.9246 -0.7484
  191MOL    H1038390   4.803   3.036   6.800  0.1808 -0.0025 -0.3436
  191MOL    H1138391   4.909   3.536   6.977 -0.5461  1.1016  0.4001
  191MOL    C1238392   4.906   2.994   6.988  0.0631  0.0277  1.0810
  191MOL    C1338393   4.972   2.867   6.947 -0.1460 -0.6925  0.2509
  191MOL    C1438394   5.103   2.835   6.976  0.0974  0.2305  0.5181
  191MOL    C1538395   5.171   2.704   6.950  0.0134 -0.7941 -0.5275
  191MOL    H1638396   4.964   3.049   7.063  0.9065  0.2823  0.2552
  191MOL    H1738397   4.820   2.952   7.040 -1.0367  0.3369 -0.4786
  191MOL    H1838398   4.906   2.797   6.898  0.4758 -1.5483  0.6178
  191MOL    H1938399   5.168   2.907   7.025 -0.0566 -0.6148  1.9997
  191MOL    H2038400   5.104   2.638   6.894 -2.9355 -0.8894  2.9149
  191MOL    H2138401   5.176   2.664   7.051  1.5441 -0.6402 -0.5286
  191MOL    C2238402   5.311   2.717   6.890  0.5144  0.3690 -0.1218
  191MOL    C2338403   5.390   2.596   6.905 -0.6409 -0.0802  0.7503
  191MOL    C2438404   5.518   2.590   6.943  0.7163  0.3901  0.3524
  191MOL    C2538405   5.594   2.457   6.946 -0.6383  0.5269 -0.3906
  191MOL    H2638406   5.292   2.737   6.785 -0.2304  1.5973  0.2302
  191MOL    H2738407   5.363   2.799   6.939 -0.0201  0.7702 -0.2196
  191MOL    H2838408   5.341   2.510   6.861  1.2781 -1.6016  1.4766
  191MOL    H2938409   5.562   2.687   6.963  0.4892  1.2516 -3.0721
  191MOL    H3038410   5.521   2.376   6.939  0.5688 -0.6096  0.0033
  191MOL    H3138411   5.644   2.441   7.042  1.8577  2.1837 -1.3593
  191MOL    C3238412   5.685   2.424   6.828 -0.0975 -1.1792  0.0437
  191MOL    C3338413   5.671   2.519   6.711  0.1591  0.1594 -0.5848
  191MOL    C3438414   5.617   2.478   6.599 -0.3574  0.1037  0.6129
  191MOL    C3538415   5.589   2.573   6.482 -1.1521  1.1651  0.2990
  191MOL    H3638416   5.788   2.427   6.864  0.4011  0.9718 -1.4822
  191MOL    H3738417   5.664   2.323   6.795 -3.1771 -1.0604  1.4089
  191MOL    H3838418   5.693   2.623   6.727 -0.1450  0.0307  0.7757
  191MOL    H3938419   5.580   2.377   6.589 -2.0520  0.7713  0.0099
  191MOL    H4038420   5.604   2.523   6.386  0.9614  0.2554  1.0624
  191MOL    H4138421   5.650   2.663   6.491 -0.2533  0.5736  0.2799
  191MOL    C4238422   5.440   2.618   6.486 -1.1547  0.3529 -0.2747
  191MOL    C4338423   5.408   2.718   6.381 -0.5470  0.5848  0.2311
  191MOL    C4438424   5.375   2.841   6.417  0.4988  0.1804  0.0807
  191MOL    C4538425   5.348   2.958   6.321 -1.3711 -0.1640  0.1077
  191MOL    H4638426   5.366   2.539   6.470 -2.5100  1.2887  1.3037
  191MOL    H4738427   5.430   2.663   6.584  1.9588 -0.7903  0.6113
  191MOL    H4838428   5.424   2.699   6.276 -0.2838  0.2977  0.3249
  191MOL    H4938429   5.365   2.864   6.522 -2.3202  0.9714 -0.3165
  191MOL    H5038430   5.402   2.949   6.227  1.8949  1.2710  1.8005
  191MOL    H5138431   5.395   3.046   6.364 -0.1951 -0.1375 -1.1960
  191MOL    C5238432   5.197   2.973   6.300 -0.5544 -0.4263 -0.3647
  191MOL    C5338433   5.133   2.887   6.193  0.5864 -0.5023  0.0776
  191MOL    C5438434   5.048   2.947   6.104  0.2150  0.3370  0.0725
  191MOL    C5538435   4.969   2.864   6.006  0.4940 -0.2357 -0.3011
  191MOL    H5638436   5.150   2.973   6.399  0.7344  2.1914  0.3010
  191MOL    H5738437   5.179   3.079   6.282 -0.5475 -0.6734 -1.8259
  191MOL    H5838438   5.136   2.780   6.206 -0.2557 -0.3664  1.5081
  191MOL    H5938439   5.030   3.053   6.097 -1.6942  0.0304  0.0492
  191MOL    H6038440   4.997   2.759   6.016  3.5294  0.4548 -1.1220
  191MOL    H6138441   4.995   2.902   5.907 -0.8460 -0.1058 -0.6247
  191MOL    C6238442   4.817   2.866   6.018 -0.7118 -0.0960 -0.4269
  191MOL    C6338443   4.746   2.749   5.947  0.0584  0.1970 -0.2487
  191MOL    C6438444   4.637   2.758   5.870 -0.2781 -0.8991 -0.6493
  191MOL    C6538445   4.584   2.645   5.773 -0.0344  0.1447 -1.2210
  191MOL    H6638446   4.807   2.852   6.125  1.3767  0.3745 -0.1545
  191MOL    H6738447   4.776   2.965   6.000  2.5583  1.0478 -1.7750
  191MOL    H6838448   4.784   2.648   5.957  1.4458  0.7821  0.6416
  191MOL    H6938449   4.595   2.855   5.843  0.4783 -0.8647 -1.7336
  191MOL    H7038450   4.476   2.645   5.762 -0.3037 -0.1796  1.1784
  191MOL    H7138451   4.616   2.548   5.811  0.0518  0.9300  0.7672
  191MOL    C7238452   4.648   2.659   5.641  0.2317  0.2300 -0.6667
  191MOL    C7338453   4.646   2.538   5.557 -0.3277 -1.1604  0.0583
  191MOL    C7438454   4.752   2.471   5.507 -0.2047  0.4579  0.7337
  191MOL    C7538455   4.740   2.356   5.409 -1.2128  0.0186 -0.7928
  191MOL    H7638456   4.608   2.741   5.582  2.5628  2.0279  0.1626
  191MOL    H7738457   4.751   2.693   5.656 -0.1951  0.8219  1.0301
  191MOL    H7838458   4.547   2.513   5.520 -1.7886  0.6526  2.5554
  191MOL    H7938459   4.850   2.509   5.532  1.9561 -3.0275 -1.9446
  191MOL    H8038460   4.634   2.347   5.383 -1.4549 -0.5116  0.3717
  191MOL    H8138461   4.763   2.271   5.473 -1.1471  0.7096  0.0939
  191MOL    C8238462   4.838   2.368   5.293  0.3839  0.0376 -0.1352
  191MOL    C8338463   4.804   2.476   5.191  0.2997  0.5892  0.3143
  191MOL    C8438464   4.738   2.444   5.076 -0.3677  0.0306  0.7176
  191MOL    C8538465   4.681   2.547   4.983 -0.2695  0.3342 -0.0077
  191MOL    H8638466   4.931   2.409   5.334  0.3725 -0.2171  0.1493
  191MOL    H8738467   4.860   2.273   5.244  0.8805  0.7262 -1.2589
  191MOL    H8838468   4.820   2.578   5.220 -2.0293  0.7603  1.1674
  191MOL    H8938469   4.704   2.349   5.038 -0.8729  0.5061 -0.0339
  191MOL    H9038470   4.703   2.649   5.017 -1.3179  1.3688 -2.3740
  191MOL    H9138471   4.572   2.553   4.982 -0.2761  0.1261 -0.5194
  191MOL    C9238472   4.735   2.547   4.845  0.1473 -0.7471 -0.5313
  191MOL    C9338473   4.684   2.435   4.758 -0.4732  0.9269 -0.3596
  191MOL    C9438474   4.763   2.361   4.675  0.1302  0.9094 -0.1611
  191MOL    C9538475   4.718   2.260   4.571 -0.7660 -0.0657 -0.1836
  191MOL    H9638476   4.699   2.640   4.800  0.5930  0.4514  1.5186
  191MOL    H9738477   4.844   2.551   4.852  0.0449  0.7447  0.5050
  191MOL    H9838478   4.582   2.402   4.773  0.3478 -1.0473  1.1908
  191MOL    H9938479   4.867   2.388   4.664  0.7193  0.2356  3.1840
  191MOL   H10038480   4.774   2.262   4.478 -0.3124  2.6862  0.1142
  191MOL   H10138481   4.615   2.292   4.554 -1.3110 -0.4966  2.1109
  191MOL   C10238482   4.721   2.116   4.618 -0.5601 -0.5173  0.4358
  191MOL   C10338483   4.627   2.018   4.545  0.5236  0.0981 -0.0765
  191MOL   C10438484   4.669   1.902   4.499 -0.5274 -0.3618 -0.2567
  191MOL   C10538485   4.593   1.792   4.430 -0.3650  0.3139 -0.1218
  191MOL   H10638486   4.824   2.081   4.612 -0.0255  1.1845 -0.4401
  191MOL   H10738487   4.677   2.110   4.717  0.8520  0.5984  1.1450
  191MOL   H10838488   4.523   2.045   4.535  0.4172 -1.1840 -3.2590
  191MOL   H10938489   4.774   1.885   4.519 -0.4552 -0.3181 -0.6107
  191MOL   H11038490   4.627   1.760   4.331 -2.1877 -1.1996 -0.2898
  191MOL   H11138491   4.501   1.834   4.389  0.0073 -0.3732 -1.7079
  191MOL   C11238492   4.556   1.675   4.516 -0.3048  0.3605 -0.2752
  191MOL   C11338493   4.509   1.567   4.422  0.3848  0.3616 -0.4680
  191MOL   C11438494   4.392   1.505   4.433  0.8942  0.4714 -0.3681
  191MOL   C11538495   4.338   1.393   4.348 -0.2505  0.3135 -0.6107
  191MOL   H11638496   4.632   1.627   4.577 -0.9090 -0.2775 -0.0176
  191MOL   H11738497   4.475   1.703   4.584  0.0414 -1.5893  1.0050
  191MOL   H11838498   4.584   1.538   4.350 -0.0028 -1.7646 -0.0444
  191MOL   H11938499   4.326   1.532   4.515  2.1182  2.4473  0.0058
  191MOL   H12038500   4.349   1.293   4.389  2.0848  0.8962  0.2877
  191MOL   H12138501   4.397   1.394   4.257  1.6548  1.4789  0.5951
  191MOL   C12238502   4.187   1.426   4.308 -1.0738  0.2547 -0.6633
  191MOL   C12338503   4.140   1.314   4.220 -1.0073  0.0646  0.2979
  191MOL   C12438504   4.049   1.227   4.259 -0.3614  0.9183 -0.9625
  191MOL   C12538505   4.022   1.089   4.193 -0.0784  0.6225 -0.8157
  191MOL   H12638506   4.117   1.442   4.390  1.4576  0.9440  1.4347
  191MOL   H12738507   4.188   1.513   4.242  1.9502 -0.4223 -1.6024
  191MOL   H12838508   4.186   1.302   4.123  1.6289  0.9173  1.4136
  191MOL   H12938509   4.010   1.241   4.359 -0.6043  0.9614 -1.0643
  191MOL   H13038510   4.092   1.056   4.115  0.9066  0.5623  0.0855
  191MOL   H13138511   3.926   1.105   4.145  0.7876  0.5493 -2.6458
  191MOL   C13238512   4.013   0.973   4.295  0.5526  0.7400  0.4032
  191MOL   C13338513   4.133   0.959   4.388  0.1220  0.5038  0.1951
  191MOL   C13438514   4.131   0.973   4.521  1.1036  0.0330 -0.0772
  191MOL   C13538515   4.239   0.947   4.620 -0.1789  0.3524  0.5877
  191MOL   H13638516   3.932   0.985   4.367  0.8619  1.0826  0.6938
  191MOL   H13738517   4.003   0.876   4.247 -0.1970  0.3347  1.3578
  191MOL   H13838518   4.221   0.915   4.344 -0.7538 -0.7113 -0.3585
  191MOL   H13938519   4.040   1.011   4.564  0.6591 -0.6139 -0.4278
  191MOL   H14038520   4.321   0.909   4.559 -1.2957  1.2765 -1.5270
  191MOL   H14138521   4.203   0.867   4.683 -1.9717  0.5802 -0.1131
  191MOL   C14238522   4.285   1.064   4.699 -0.0007  0.0330  0.0557
  191MOL   C14338523   4.196   1.097   4.814  0.2283  0.5593  0.2240
  191MOL   C14438524   4.213   1.075   4.941 -0.4608 -0.6332  0.1558
  191MOL   C14538525   4.112   1.107   5.054 -0.4198 -0.0881 -0.0301
  191MOL   H14638526   4.382   1.044   4.743  0.8087  0.7416 -1.3716
  191MOL   H14738527   4.306   1.150   4.635 -1.1543 -0.0108 -0.4051
  191MOL   H14838528   4.105   1.141   4.775 -0.8006 -0.3688  1.5148
  191MOL   H14938529   4.310   1.030   4.962  0.7381  1.1878 -1.3111
  191MOL   H15038530   4.089   1.012   5.102  2.3055 -0.1107  1.3154
  191MOL   H15138531   4.014   1.140   5.020 -0.1508 -0.7975 -1.5409
  191MOL   C15238532   4.165   1.218   5.144  0.3746 -0.1464 -0.5139
  191MOL   C15338533   4.075   1.247   5.261 -0.2825 -0.8103 -0.8474
  191MOL   C15438534   4.115   1.219   5.387 -0.3697 -0.4313  0.1125
  191MOL   C15538535   4.035   1.239   5.518 -0.3525  0.3054 -0.7970
  191MOL   H15638536   4.267   1.190   5.170 -0.3669  0.8183  3.8289
  191MOL   H15738537   4.157   1.300   5.072 -1.2435 -0.2968 -0.5306
  191MOL   H15838538   3.979   1.293   5.243  0.7436  1.6636 -0.1351
  191MOL   H15938539   4.213   1.175   5.398  0.8851  2.4738  0.9734
  191MOL   H16038540   4.102   1.277   5.595 -1.0616  0.0100 -0.0351
  191MOL   H16138541   4.008   1.138   5.549 -1.9885  0.8573 -0.3789
  191MOL   C16238542   3.920   1.338   5.518 -0.1501 -0.7585  0.4149
  191MOL   C16338543   3.851   1.346   5.651  0.2381  0.2730 -0.9615
  191MOL   C16438544   3.840   1.457   5.729  0.5546  0.6698  0.1124
  191MOL   C16538545   3.778   1.463   5.871 -0.0553 -0.8634 -0.2271
  191MOL   H16638546   3.951   1.435   5.479 -0.4021 -0.4024  1.0954
  191MOL   H16738547   3.841   1.300   5.453 -0.5050  0.0231  0.3721
  191MOL   H16838548   3.819   1.252   5.692  1.6956 -0.6894 -1.9750
  191MOL   H16938549   3.873   1.550   5.685 -0.6345 -0.0786 -2.5041
  191MOL   H17038550   3.749   1.362   5.901 -0.5334 -0.7732 -0.3742
  191MOL   H17138551   3.693   1.529   5.854  1.5637  1.6576  1.1754
  191MOL   C17238552   3.877   1.514   5.973  0.0639  0.0722  0.7272
  191MOL   C17338553   3.994   1.430   5.990 -0.2454  0.7153 -0.4060
  191MOL   C17438554   4.048   1.396   6.106  0.1155  0.1712 -0.0095
  191MOL   C17538555   4.171   1.306   6.128 -0.0634 -0.5462  0.2264
  191MOL   H17638556   3.910   1.611   5.937  1.0097  0.0007  1.3592
  191MOL   H17738557   3.824   1.526   6.067 -0.8074 -0.9999  0.3848
  191MOL   H17838558   4.038   1.377   5.907  0.1377 -1.7001  1.2819
  191MOL   H17938559   4.004   1.440   6.194  0.0302  1.7467 -0.8050
  191MOL   H18038560   4.218   1.285   6.032 -0.6351  0.6123 -0.3190
  191MOL   H18138561   4.135   1.212   6.170  0.4100 -1.1400 -0.6586
  191MOL   C18238562   4.264   1.366   6.234  0.2149 -0.0157 -0.2845
  191MOL   C18338563   4.377   1.262   6.261  0.1000 -0.4835 -0.3930
  191MOL   C18438564   4.497   1.293   6.218 -0.3710  0.1122  0.7290
  191MOL   C18538565   4.602   1.195   6.254  0.9212  0.6411  0.0419
  191MOL   H18638566   4.302   1.463   6.202  1.1234 -0.6338 -1.1184
  191MOL   H18738567   4.206   1.389   6.324 -1.6702  1.3756 -1.8020
  191MOL   H18838568   4.350   1.181   6.326  0.4063 -0.5807 -0.3840
  191MOL   H18938569   4.513   1.375   6.149 -1.4229 -1.1910 -1.1264
  191MOL   H19038570   4.650   1.174   6.158 -0.7312 -0.9992 -0.4659
  191MOL   H19138571   4.563   1.100   6.290 -2.1046  1.9097  0.1971
  191MOL   C19238572   4.710   1.238   6.359 -0.1641 -0.8684 -0.3259
  191MOL   C19338573   4.778   1.367   6.327 -0.3478 -0.1210 -0.4702
  191MOL   C19438574   4.908   1.382   6.334 -0.4667 -0.2823 -0.5665
  191MOL   C19538575   4.978   1.519   6.311  0.9508  1.2527  0.4161
  191MOL   H19638576   4.689   1.231   6.466  0.5791  0.7413 -0.0662
  191MOL   H19738577   4.787   1.162   6.346 -0.5346 -0.9535 -2.1324
  191MOL   H19838578   4.715   1.453   6.314 -0.4995 -0.1581 -0.0222
  191MOL   H19938579   4.977   1.304   6.359  0.0659  0.6589  0.9701
  191MOL   H20038580   5.039   1.543   6.398  1.4749 -0.6267  0.5838
  191MOL   H20138581   4.921   1.609   6.286  0.3591  0.7294 -0.1488
  191MOL   H20238582   5.042   1.502   6.224 -0.9087  0.8861 -0.9091
  192MOL     C138583   7.373   2.338   2.119 -0.3652  0.1323  0.3496
  192MOL     C238584   7.329   2.234   2.015 -0.1661 -0.0870  0.1756
  192MOL     C338585   7.245   2.255   1.916  0.3541 -0.1600 -0.1338
  192MOL     C438586   7.193   2.150   1.820  0.6938  0.2109 -0.4982
  192MOL     H538587   7.317   2.311   2.209  1.4216 -0.6731  1.2339
  192MOL     H638588   7.338   2.439   2.099  1.4454  0.2237 -2.5635
  192MOL     H738589   7.382   2.141   2.030 -0.5879 -0.5145 -1.0084
  192MOL     H838590   7.218   2.358   1.897  1.7470  0.8843  3.0936
  192MOL     H938591   7.086   2.129   1.835  0.5584  1.7894  0.7834
  192MOL    H1038592   7.241   2.053   1.830 -3.1061 -1.6966  0.4108
  192MOL    H1138593   7.480   2.335   2.138 -0.3619 -1.1434  0.1730
  192MOL    C1238594   7.194   2.203   1.675 -0.1803  0.2939  0.3018
  192MOL    C1338595   7.110   2.127   1.575 -0.6607 -1.0341  0.6751
  192MOL    C1438596   7.052   2.009   1.595  0.6564 -0.0333  0.6700
  192MOL    C1538597   6.949   1.944   1.506  0.5297 -0.0814 -0.6632
  192MOL    H1638598   7.166   2.308   1.668 -0.7619  0.0859 -0.5665
  192MOL    H1738599   7.297   2.187   1.642  0.0933 -2.1718  2.1536
  192MOL    H1838600   7.092   2.174   1.480 -0.2341 -0.7270  0.7431
  192MOL    H1938601   7.065   1.964   1.692 -1.5958  0.8887  1.4168
  192MOL    H2038602   6.988   1.954   1.405  1.1370 -2.0972 -0.6345
  192MOL    H2138603   6.854   1.998   1.508 -0.0671 -1.1494  0.7146
  192MOL    C2238604   6.916   1.803   1.552  0.0980 -0.3558 -0.5515
  192MOL    C2338605   6.812   1.742   1.464 -0.1253 -0.3238  0.6667
  192MOL    C2438606   6.703   1.678   1.514 -0.5467 -0.2001 -0.0618
  192MOL    C2538607   6.598   1.617   1.428  0.4307 -0.5951 -0.2434
  192MOL    H2638608   7.002   1.737   1.555  0.2155 -0.1770  0.3851
  192MOL    H2738609   6.872   1.804   1.652  1.1779  1.3838 -0.0725
  192MOL    H2838610   6.834   1.736   1.358 -0.1703  0.4594  0.6129
  192MOL    H2938611   6.682   1.665   1.619 -1.9625 -1.8390 -0.5223
  192MOL    H3038612   6.622   1.516   1.395  0.4810 -0.2271 -1.3756
  192MOL    H3138613   6.592   1.663   1.329 -1.4571  1.4236  0.7801
  192MOL    C3238614   6.446   1.631   1.466  0.4304 -0.3408 -0.2623
  192MOL    C3338615   6.351   1.550   1.379 -0.1298 -0.3648  0.0897
  192MOL    C3438616   6.262   1.592   1.290  0.1874 -0.2376  0.5966
  192MOL    C3538617   6.174   1.498   1.207 -0.1022 -0.5434  0.6275
  192MOL    H3638618   6.448   1.587   1.566  3.4647  0.5992  0.1508
  192MOL    H3738619   6.411   1.732   1.485 -0.4042 -0.7547  0.4604
  192MOL    H3838620   6.373   1.445   1.391  3.4021  0.3795  0.6899
  192MOL    H3938621   6.249   1.699   1.281 -0.2323 -0.2330  1.2034
  192MOL    H4038622   6.081   1.476   1.261 -1.1654  1.2520 -0.4200
  192MOL    H4138623   6.229   1.405   1.204 -0.6884 -0.8597 -0.2745
  192MOL    C4238624   6.153   1.574   1.071  0.2218  0.7145 -0.3946
  192MOL    C4338625   6.069   1.500   0.971 -0.6665  0.4914  0.8999
  192MOL    C4438626   5.948   1.540   0.934  0.1351  0.8262  0.0124
  192MOL    C4538627   5.866   1.485   0.819  0.3665 -0.4313  0.1323
  192MOL    H4638628   6.119   1.677   1.076 -0.4582  0.5167 -0.9262
  192MOL    H4738629   6.248   1.604   1.027  1.0402  0.7344  1.3216
  192MOL    H4838630   6.118   1.413   0.929 -1.3166  1.2083 -1.3890
  192MOL    H4938631   5.905   1.625   0.986 -1.5811 -0.5613  0.9401
  192MOL    H5038632   5.761   1.490   0.848  0.1532  0.4274 -0.7903
  192MOL    H5138633   5.889   1.382   0.791  0.4741 -1.3591  3.4085
  192MOL    C5238634   5.863   1.592   0.707 -0.1135 -0.1381 -0.7035
  192MOL    C5338635   5.845   1.528   0.572 -0.3132 -0.0975  0.2570
  192MOL    C5438636   5.929   1.546   0.468 -0.3285 -0.1049  0.3088
  192MOL    C5538637   5.916   1.471   0.341  0.2045  0.1478 -0.3203
  192MOL    H5638638   5.784   1.663   0.732  1.0350  0.1613  2.2855
  192MOL    H5738639   5.951   1.658   0.702 -0.0277 -0.1864  0.1892
  192MOL    H5838640   5.756   1.468   0.565  0.4614 -1.2380 -0.0080
  192MOL    H5938641   6.019   1.604   0.484  0.4375 -1.9970  3.2719
  192MOL    H6038642   5.825   1.411   0.342 -0.1938  0.7400  1.4151
  192MOL    H6138643   5.995   1.396   0.333 -0.1357 -0.7254  3.4694
  192MOL    C6238644   5.922   1.559   0.212 -0.1924 -0.4088 -0.0382
  192MOL    C6338645   5.914   1.495   0.072  0.9491 -0.5626 -0.3284
  192MOL    C6438646   6.014   1.501   7.955  1.3258  0.3147 -0.1111
  192MOL    C6538647   5.992   1.458   7.808 -0.8927 -0.4527 -0.6851
  192MOL    H6638648   5.838   1.628   0.213  0.2944  0.1895  0.7348
  192MOL    H6738649   6.013   1.620   0.214  0.7111 -1.7166 -0.4096
  192MOL    H6838650   5.819   1.456   0.038  1.3260 -1.4131 -0.4109
  192MOL    H6938651   6.102   1.560   0.001  0.0932  2.2556 -0.2351
  192MOL    H7038652   5.989   1.548   7.748  2.6418  0.9510  1.0866
  192MOL    H7138653   5.902   1.396   7.803 -1.8984  1.0794 -2.0809
  192MOL    C7238654   6.107   1.364   7.758  0.3384  0.4328 -0.6407
  192MOL    C7338655   6.090   1.310   7.612  0.4198  0.1785 -0.2563
  192MOL    C7438656   6.094   1.175   7.584 -0.5601 -0.0577  1.1248
  192MOL    C7538657   6.092   1.102   7.449 -0.8151  0.7439 -0.4578
  192MOL    H7638658   6.192   1.432   7.754 -1.0392  2.2442 -0.2510
  192MOL    H7738659   6.135   1.288   7.830  2.8487 -0.9729 -3.0183
  192MOL    H7838660   6.061   1.384   7.540  0.0032  2.1808  1.8834
  192MOL    H7938661   6.106   1.111   7.670  0.0387  2.6606  3.1062
  192MOL    H8038662   6.107   1.167   7.364 -1.0941  2.0909  0.5149
  192MOL    H8138663   5.994   1.055   7.436 -0.5685  0.1335 -0.1376
  192MOL    C8238664   6.203   1.002   7.448  0.9242  0.1624  0.8211
  192MOL    C8338665   6.232   0.937   7.314 -0.2441  0.3090  0.3905
  192MOL    C8438666   6.333   0.857   7.290 -0.2088  0.6363 -0.0026
  192MOL    C8538667   6.383   0.817   7.158 -0.8292  0.7696  0.6323
  192MOL    H8638668   6.294   1.047   7.489 -0.1523  2.5464  0.6653
  192MOL    H8738669   6.181   0.924   7.522  0.1156 -0.3553  0.0318
  192MOL    H8838670   6.181   0.982   7.231 -0.5672 -0.0426  0.3951
  192MOL    H8938671   6.377   0.811   7.377  0.1348  0.9188 -0.0242
  192MOL    H9038672   6.484   0.779   7.176 -1.2080 -0.3997  0.3669
  192MOL    H9138673   6.406   0.905   7.098 -0.0824 -0.1022 -0.3911
  192MOL    C9238674   6.301   0.718   7.078  0.7938  0.3912 -0.3499
  192MOL    C9338675   6.329   0.728   6.926  0.5192 -0.7936  0.1449
  192MOL    C9438676   6.270   0.809   6.834 -0.1514  0.2039  0.3490
  192MOL    C9538677   6.311   0.811   6.687  0.1153 -0.0416 -0.5389
  192MOL    H9638678   6.322   0.619   7.119  1.1374 -0.4999 -2.6274
  192MOL    H9738679   6.194   0.734   7.082  0.3858 -1.6007 -2.1568
  192MOL    H9838680   6.407   0.659   6.895  0.6593 -0.4356 -0.3074
  192MOL    H9938681   6.206   0.893   6.857  0.4454  0.7400  0.0714
  192MOL   H10038682   6.357   0.715   6.664 -1.1993 -0.8199  0.0244
  192MOL   H10138683   6.378   0.896   6.676 -1.3037  1.3583  1.3104
  192MOL   C10238684   6.192   0.812   6.588 -0.3646  0.4076  0.2692
  192MOL   C10338685   6.112   0.942   6.587 -0.6335 -0.9367  0.2644
  192MOL   C10438686   5.983   0.949   6.564  0.3481  0.1547 -0.7266
  192MOL   C10538687   5.894   1.068   6.571 -0.0985 -0.0229 -0.9356
  192MOL   H10638688   6.219   0.795   6.484 -0.2127  1.8155  0.0684
  192MOL   H10738689   6.122   0.734   6.620 -0.7019  1.1549  1.3917
  192MOL   H10838690   6.166   1.032   6.613 -0.3275 -0.4581 -1.9924
  192MOL   H10938691   5.940   0.855   6.533 -0.7644  0.4187  0.0007
  192MOL   H11038692   5.896   1.105   6.468 -0.6490  0.5189 -0.7551
  192MOL   H11138693   5.945   1.143   6.631  1.1618 -1.9380  0.4335
  192MOL   C11238694   5.753   1.055   6.626  0.4374  0.0009  0.2637
  192MOL   C11338695   5.676   0.956   6.554 -0.3301 -0.2072  0.2390
  192MOL   C11438696   5.601   0.984   6.440 -0.4557 -0.1394 -0.2615
  192MOL   C11538697   5.528   0.874   6.364 -0.3919  0.0613  0.0077
  192MOL   H11638698   5.763   1.027   6.731 -0.5606  0.3722  0.4684
  192MOL   H11738699   5.698   1.149   6.617  1.6137  0.5893 -1.0063
  192MOL   H11838700   5.671   0.855   6.592  0.7955  0.1613  1.3737
  192MOL   H11938701   5.608   1.080   6.390  1.2948  0.3743  0.9172
  192MOL   H12038702   5.425   0.905   6.382  0.1689  2.4608 -0.7982
  192MOL   H12138703   5.544   0.775   6.408 -0.1702  0.1335  0.0905
  192MOL   C12238704   5.574   0.859   6.220  0.4281 -0.7249 -0.7395
  192MOL   C12338705   5.495   0.737   6.165 -0.0106 -0.0596  0.7563
  192MOL   C12438706   5.399   0.744   6.072 -0.6927 -0.2764 -0.3196
  192MOL   C12538707   5.308   0.633   6.018  0.0357  0.0609  0.1238
  192MOL   H12638708   5.560   0.948   6.158  1.7692  0.1544  0.1825
  192MOL   H12738709   5.681   0.849   6.204 -0.1826 -4.8360 -3.0016
  192MOL   H12838710   5.520   0.640   6.206 -1.9908  0.0696  2.3494
  192MOL   H12938711   5.388   0.842   6.029 -0.8801  0.7634  2.0497
  192MOL   H13038712   5.334   0.543   6.073  3.6695 -0.0954 -1.7074
  192MOL   H13138713   5.338   0.632   5.913 -1.2367  0.5779 -0.2640
  192MOL   C13238714   5.156   0.664   6.024 -0.9899 -0.3462 -0.8147
  192MOL   C13338715   5.068   0.555   5.974  0.3419 -0.3862 -0.0741
  192MOL   C13438716   4.958   0.588   5.905 -0.4054 -0.0239 -0.4675
  192MOL   C13538717   4.858   0.492   5.842  0.5272  0.1415 -0.3001
  192MOL   H13638718   5.134   0.676   6.130 -0.4120  1.2304 -0.8531
  192MOL   H13738719   5.132   0.760   5.979  1.4993  2.0445  2.6817
  192MOL   H13838720   5.087   0.451   5.994 -1.1065 -0.8759 -1.2045
  192MOL   H13938721   4.933   0.693   5.898  0.7386  0.2841 -0.1173
  192MOL   H14038722   4.870   0.395   5.890 -0.1008  0.6824  0.9637
  192MOL   H14138723   4.883   0.478   5.737  0.4071 -2.0746 -0.0670
  192MOL   C14238724   4.719   0.545   5.863 -0.4516  0.1810  0.1037
  192MOL   C14338725   4.609   0.451   5.816  0.1821  0.1063 -0.1733
  192MOL   C14438726   4.513   0.392   5.891 -0.3730  0.0247  0.3945
  192MOL   C14538727   4.404   0.305   5.825 -0.1388  0.2562 -0.4762
  192MOL   H14638728   4.702   0.562   5.969  0.6196  0.9631  0.1607
  192MOL   H14738729   4.708   0.644   5.820 -1.6471 -1.3737 -3.3444
  192MOL   H14838730   4.600   0.433   5.710 -0.5889 -0.6042  0.0125
  192MOL   H14938731   4.505   0.388   5.998 -0.9100 -0.0785  0.3524
  192MOL   H15038732   4.435   0.201   5.827  0.7667  0.5279  0.9277
  192MOL   H15138733   4.401   0.331   5.720  2.2959 -0.6734 -0.8130
  192MOL   C15238734   4.268   0.330   5.889  0.7042  0.8718 -0.6295
  192MOL   C15338735   4.261   0.289   6.034  0.1583 -0.3319  0.2713
  192MOL   C15438736   4.287   0.163   6.074  0.9469 -0.1199  0.2630
  192MOL   C15538737   4.275   0.126   6.221 -0.1799 -0.6066  0.2886
  192MOL   H15638738   4.256   0.438   5.889  0.3020  0.8272  0.2190
  192MOL   H15738739   4.194   0.278   5.829 -0.5833  0.0531  1.6077
  192MOL   H15838740   4.234   0.365   6.106  0.4005  1.0535 -1.0822
  192MOL   H15938741   4.300   0.083   6.003 -0.9831 -1.2689  1.1533
  192MOL   H16038742   4.267   0.210   6.290  0.6286 -1.2040  1.1009
  192MOL   H16138743   4.369   0.084   6.254  0.9852 -0.1808 -2.3753
  192MOL   C16238744   4.156   0.036   6.250  0.3251  0.1198 -0.2809
  192MOL   C16338745   4.178   7.878   6.176 -0.3821  0.0135 -0.2646
  192MOL   C16438746   4.095   7.833   6.081  0.0233 -0.6261 -0.7869
  192MOL   C16538747   4.107   7.708   5.995  0.1023 -0.1217  1.6926
  192MOL   H16638748   4.161   0.013   6.357  0.9378  1.0336 -0.1042
  192MOL   H16738749   4.064   0.089   6.226  0.2819 -0.8653 -2.3495
  192MOL   H16838750   4.268   7.822   6.195  0.5653  0.7653 -2.4487
  192MOL   H16938751   4.007   7.894   6.073  0.6637  0.7187  1.8651
  192MOL   H17038752   4.168   7.729   5.908 -1.5043 -0.0396  0.5592
  192MOL   H17138753   4.007   7.681   5.961 -0.8447  0.8135  3.6388
  192MOL   C17238754   4.179   7.592   6.051  0.4163 -0.2521  0.3513
  192MOL   C17338755   4.092   7.497   6.134 -0.3913  0.2566  0.0748
  192MOL   C17438756   4.095   7.361   6.127  0.5894 -0.4267  0.3764
  192MOL   C17538757   4.012   7.258   6.208 -0.6797 -0.1832  0.3586
  192MOL   H17638758   4.220   7.531   5.970 -1.2085 -0.8880 -0.0208
  192MOL   H17738759   4.262   7.625   6.113  0.6335  1.0991 -0.6360
  192MOL   H17838760   4.016   7.544   6.195 -2.4575 -0.9763 -1.4964
  192MOL   H17938761   4.167   7.318   6.059  0.3887  0.1764 -0.2306
  192MOL   H18038762   4.077   7.194   6.268 -2.0665  0.1037  2.2306
  192MOL   H18138763   3.973   7.196   6.127  0.5889  0.1511 -0.5131
  192MOL   C18238764   3.892   7.315   6.292  0.5304 -0.1047  0.2633
  192MOL   C18338765   3.794   7.211   6.354  0.3955 -0.8189 -0.0601
  192MOL   C18438766   3.741   7.215   6.481 -0.0830  0.4690  0.8755
  192MOL   C18538767   3.659   7.097   6.543 -0.4173 -0.4274  0.2803
  192MOL   H18638768   3.917   7.383   6.374  0.5007 -0.2448  0.3908
  192MOL   H18738769   3.830   7.368   6.221  0.0387 -1.0962 -0.0552
  192MOL   H18838770   3.776   7.124   6.293  1.7450 -0.7199 -0.6031
  192MOL   H18938771   3.758   7.297   6.549  2.5504  1.6046 -1.0483
  192MOL   H19038772   3.633   7.008   6.486 -1.1706 -0.1986  0.2531
  192MOL   H19138773   3.567   7.146   6.578 -0.5359  0.7622 -1.6459
  192MOL   C19238774   3.737   7.036   6.663  0.1400  0.1429 -0.4897
  192MOL   C19338775   3.650   6.933   6.734  0.2869 -1.1059  0.3302
  192MOL   C19438776   3.627   6.929   6.870  0.4698  0.4320  0.1892
  192MOL   C19538777   3.573   6.816   6.949  0.0249  0.2572 -0.4441
  192MOL   H19638778   3.833   6.997   6.630  1.0391  2.6059 -0.8386
  192MOL   H19738779   3.774   7.118   6.724  1.3534 -0.5890 -0.2291
  192MOL   H19838780   3.620   6.852   6.669 -0.7190 -1.0657  0.7396
  192MOL   H19938781   3.680   7.003   6.927  1.2796  0.5666 -0.7250
  192MOL   H20038782   3.494   6.760   6.899 -0.0300  1.4890 -1.7914
  192MOL   H20138783   3.535   6.851   7.045  0.4151 -2.1587  0.6248
  192MOL   H20238784   3.654   6.745   6.961  1.6136  2.1796  0.5969
  193MOL     C138785   6.769   4.087   1.845 -0.3212  0.5180 -0.3030
  193MOL     C238786   6.676   4.092   1.962  0.5456 -0.0560  0.6218
  193MOL     C338787   6.697   4.153   2.080  0.7636  0.9048 -0.6865
  193MOL     C438788   6.600   4.168   2.190  0.1684  0.0732  0.2225
  193MOL     H538789   6.784   3.982   1.818 -0.7435  0.3766 -0.0034
  193MOL     H638790   6.864   4.133   1.870  0.8483  0.1187 -3.7326
  193MOL     H738791   6.580   4.045   1.943  0.7687  0.1312 -1.0108
  193MOL     H838792   6.793   4.201   2.083  0.7629  1.0441 -2.1846
  193MOL     H938793   6.509   4.112   2.171  0.4877 -1.3816  2.7579
  193MOL    H1038794   6.576   4.275   2.191  1.0323  0.2695  1.1910
  193MOL    H1138795   6.718   4.126   1.756  0.2704 -0.5220 -1.1133
  193MOL    C1238796   6.644   4.129   2.331  0.1347 -0.0706 -0.2446
  193MOL    C1338797   6.537   4.147   2.443 -0.6175 -0.1577  0.4761
  193MOL    C1438798   6.551   4.232   2.547 -0.6356 -0.1837  0.5070
  193MOL    C1538799   6.452   4.252   2.646 -0.2631 -0.1584  0.9230
  193MOL    H1638800   6.671   4.024   2.327 -1.5694 -0.4593 -2.1689
  193MOL    H1738801   6.728   4.199   2.336 -0.9712  1.7505 -4.9338
  193MOL    H1838802   6.450   4.086   2.423  1.0235 -1.4670 -3.1782
  193MOL    H1938803   6.646   4.283   2.560  0.5172 -2.9644  3.7660
  193MOL    H2038804   6.490   4.216   2.741  4.4443 -1.0905 -1.1306
  193MOL    H2138805   6.365   4.193   2.619 -0.2420  0.2283 -0.0175
  193MOL    C2238806   6.398   4.390   2.666 -0.8421  0.1694  0.0025
  193MOL    C2338807   6.251   4.376   2.716 -0.6217  1.0347 -0.0695
  193MOL    C2438808   6.143   4.405   2.642  0.0696 -0.0400  0.5606
  193MOL    C2538809   5.999   4.400   2.691  1.2596 -0.4356  1.0711
  193MOL    H2638810   6.456   4.436   2.746  2.1565  1.0468 -2.5593
  193MOL    H2738811   6.385   4.449   2.575 -0.9259 -0.8965 -0.6866
  193MOL    H2838812   6.238   4.348   2.820 -2.0902  0.8048 -0.3083
  193MOL    H2938813   6.166   4.427   2.539  2.1589 -3.1310  0.2797
  193MOL    H3038814   5.997   4.321   2.766 -0.0064  0.3413  1.8754
  193MOL    H3138815   5.927   4.365   2.617  0.3066  1.9488  0.8206
  193MOL    C3238816   5.930   4.536   2.739 -0.5287  0.1344  0.4183
  193MOL    C3338817   5.796   4.503   2.790 -0.2728  0.4338  0.2614
  193MOL    C3438818   5.681   4.553   2.744  0.8766 -0.8792 -0.5027
  193MOL    C3538819   5.547   4.523   2.809 -0.5812  0.3413  0.4849
  193MOL    H3638820   5.992   4.587   2.813  0.8491 -1.1896  0.1926
  193MOL    H3738821   5.916   4.604   2.655 -0.5498 -1.5046 -0.9110
  193MOL    H3838822   5.790   4.434   2.873  2.3539  0.3532  0.4226
  193MOL    H3938823   5.691   4.629   2.668  0.9631 -1.3829 -0.9895
  193MOL    H4038824   5.489   4.615   2.811 -1.4901 -0.1840 -0.9518
  193MOL    H4138825   5.569   4.487   2.910 -0.9158  1.7023  1.0551
  193MOL    C4238826   5.472   4.419   2.732  0.6742 -0.1269 -0.4359
  193MOL    C4338827   5.327   4.402   2.784 -0.4799  0.2696 -0.7781
  193MOL    C4438828   5.217   4.448   2.725  0.2376 -0.7738  0.3234
  193MOL    C4538829   5.075   4.428   2.776 -0.0946 -0.0012 -0.0639
  193MOL    H4638830   5.471   4.441   2.625  1.6031 -1.5142 -0.7484
  193MOL    H4738831   5.527   4.326   2.748  0.9159  0.1294  0.2248
  193MOL    H4838832   5.317   4.345   2.876 -0.8043  2.6341  0.7059
  193MOL    H4938833   5.231   4.515   2.642 -0.4683 -1.2836 -0.2043
  193MOL    H5038834   5.076   4.347   2.849 -0.9134 -1.0912 -1.2537
  193MOL    H5138835   5.022   4.389   2.690 -0.6749 -0.8878  0.6956
  193MOL    C5238836   5.014   4.561   2.830  0.1740  0.0992 -0.2251
  193MOL    C5338837   4.857   4.576   2.809 -0.5878  0.7507 -0.2207
  193MOL    C5438838   4.761   4.575   2.906 -0.4265 -0.4426  0.1966
  193MOL    C5538839   4.613   4.584   2.883 -0.0178  0.2943  0.7685
  193MOL    H5638840   5.038   4.571   2.936 -1.0557 -2.0441  0.2927
  193MOL    H5738841   5.066   4.646   2.786  0.0963 -0.6165 -1.7148
  193MOL    H5838842   4.841   4.597   2.704  0.1066 -4.9083 -1.5843
  193MOL    H5938843   4.794   4.557   3.007 -1.1469  0.0638  0.5291
  193MOL    H6038844   4.554   4.510   2.936  0.2529 -0.5766 -0.1186
  193MOL    H6138845   4.580   4.555   2.783 -2.7567  0.0204  1.7135
  193MOL    C6238846   4.570   4.723   2.911 -0.1142 -0.0534  0.2088
  193MOL    C6338847   4.428   4.745   2.878  0.3902  0.0181  0.5027
  193MOL    C6438848   4.383   4.855   2.818 -0.6792 -0.1671 -0.3306
  193MOL    C6538849   4.244   4.903   2.790  0.0052  0.6068 -0.5801
  193MOL    H6638850   4.606   4.759   3.007 -1.4034  2.4901 -0.2307
  193MOL    H6738851   4.623   4.781   2.835  1.4855  0.3361  1.6012
  193MOL    H6838852   4.355   4.681   2.926 -2.2816  2.1434 -0.5430
  193MOL    H6938853   4.461   4.915   2.774 -1.4371 -0.4922 -2.1360
  193MOL    H7038854   4.177   4.820   2.813 -0.4762  0.3125 -2.8452
  193MOL    H7138855   4.223   4.932   2.687 -0.4050 -0.4527 -0.7964
  193MOL    C7238856   4.205   5.030   2.870  0.3505 -0.6377 -0.7608
  193MOL    C7338857   4.250   5.162   2.807  0.2891 -0.8080  0.1986
  193MOL    C7438858   4.314   5.255   2.872 -0.6231  0.2346 -0.2274
  193MOL    C7538859   4.353   5.393   2.820  0.2291 -0.2659 -0.5400
  193MOL    H7638860   4.096   5.029   2.876  0.4302 -0.0387  1.1340
  193MOL    H7738861   4.236   5.021   2.974  0.2864 -1.0608 -0.7757
  193MOL    H7838862   4.222   5.182   2.705  0.8622 -0.1202  0.1663
  193MOL    H7938863   4.336   5.238   2.976  0.7502  0.2453 -0.5008
  193MOL    H8038864   4.282   5.471   2.844 -2.2761 -2.0648 -1.9054
  193MOL    H8138865   4.359   5.394   2.711 -0.2656  0.5047 -0.5563
  193MOL    C8238866   4.495   5.440   2.876 -0.5416  0.2499  0.4329
  193MOL    C8338867   4.604   5.343   2.845 -0.5683  0.7631  0.4012
  193MOL    C8438868   4.686   5.291   2.931  0.3399 -0.4412  0.2387
  193MOL    C8538869   4.789   5.186   2.893 -0.1293 -0.1318  0.2588
  193MOL    H8638870   4.523   5.533   2.826 -0.3463 -0.3008 -0.5073
  193MOL    H8738871   4.487   5.447   2.984  0.9024  2.3753  0.4240
  193MOL    H8838872   4.593   5.312   2.742  1.0737 -0.8427  0.6947
  193MOL    H8938873   4.679   5.319   3.035  2.2144  0.7747  0.0459
  193MOL    H9038874   4.889   5.224   2.914  0.4768 -1.1557 -0.7166
  193MOL    H9138875   4.798   5.172   2.785  1.5719  0.2194  0.3480
  193MOL    C9238876   4.758   5.053   2.967 -1.0193 -0.1796  0.2037
  193MOL    C9338877   4.864   4.946   2.958 -0.5923 -0.6171  0.1416
  193MOL    C9438878   4.936   4.919   3.066 -0.5730 -0.1925  0.1408
  193MOL    C9538879   5.048   4.823   3.059  0.2636  0.9852 -0.2287
  193MOL    H9638880   4.732   5.081   3.069 -0.8477 -1.1592  0.5116
  193MOL    H9738881   4.666   5.018   2.921 -0.4566 -0.1030 -1.0068
  193MOL    H9838882   4.885   4.894   2.865  1.0696 -3.0845  1.8295
  193MOL    H9938883   4.917   4.970   3.160 -2.3599 -0.8817  0.1867
  193MOL   H10038884   5.082   4.802   2.958 -1.3822 -0.2850 -0.5360
  193MOL   H10138885   5.017   4.731   3.108  1.6307  0.7962  0.3096
  193MOL   C10238886   5.174   4.874   3.120 -0.1025  0.4396  0.6222
  193MOL   C10338887   5.284   4.770   3.118  0.7203  0.3636  0.0724
  193MOL   C10438888   5.319   4.699   3.222 -0.4238  0.9434 -0.0774
  193MOL   C10538889   5.446   4.618   3.224 -0.3292  0.0425  0.0010
  193MOL   H10638890   5.185   4.970   3.071  0.4602 -0.0236 -0.1799
  193MOL   H10738891   5.157   4.894   3.226  3.2873 -0.4639  1.4056
  193MOL   H10838892   5.335   4.761   3.024  1.5629  3.4256  0.1718
  193MOL   H10938893   5.263   4.701   3.315  1.2222 -0.5694  0.9792
  193MOL   H11038894   5.498   4.653   3.313  1.8727 -0.5889 -1.0107
  193MOL   H11138895   5.507   4.646   3.138  0.1493  1.9568  0.9357
  193MOL   C11238896   5.413   4.473   3.205  0.1952  0.8789  0.2046
  193MOL   C11338897   5.528   4.381   3.194  1.1456  0.3249 -0.2974
  193MOL   C11438898   5.525   4.253   3.158 -0.0460  0.4740 -0.3194
  193MOL   C11538899   5.639   4.160   3.141  0.4984  0.2214 -0.5400
  193MOL   H11638900   5.358   4.435   3.290  0.9925 -0.6480  0.0581
  193MOL   H11738901   5.341   4.472   3.123 -1.4723  0.8564  1.6392
  193MOL   H11838902   5.623   4.416   3.231  0.1210  0.6318  2.1463
  193MOL   H11938903   5.434   4.199   3.137 -0.1115  0.8246 -0.9551
  193MOL   H12038904   5.600   4.059   3.153 -0.3522  0.7590  1.3163
  193MOL   H12138905   5.706   4.174   3.226 -1.7609  0.2468  1.2693
  193MOL   C12238906   5.715   4.179   3.013  0.5610  0.4092  0.0996
  193MOL   C12338907   5.839   4.100   2.988 -0.3274 -0.2763 -0.5490
  193MOL   C12438908   5.879   4.036   2.876  0.0150  0.0969 -0.4519
  193MOL   C12538909   6.001   3.951   2.855  1.2549  0.2403 -0.1211
  193MOL   H12638910   5.645   4.174   2.930  1.7106 -1.1746 -0.7916
  193MOL   H12738911   5.747   4.284   3.011 -0.2819  0.6958  1.3258
  193MOL   H12838912   5.907   4.084   3.070 -0.5999 -1.3307 -0.5295
  193MOL   H12938913   5.811   4.043   2.792  0.7349  0.5106 -0.9965
  193MOL   H13038914   5.988   3.852   2.811 -1.7522  0.6866 -0.3729
  193MOL   H13138915   6.045   3.938   2.954 -0.7425 -2.1839  0.5087
  193MOL   C13238916   6.109   4.016   2.773 -0.5189 -0.2980 -0.2635
  193MOL   C13338917   6.214   3.923   2.716  0.0592  0.0833 -0.5734
  193MOL   C13438918   6.239   3.897   2.581  0.4993  0.2898 -0.4993
  193MOL   C13538919   6.339   3.794   2.532  0.1144  0.6103  0.9688
  193MOL   H13638920   6.068   4.078   2.693  1.7125  0.9114 -0.4907
  193MOL   H13738921   6.156   4.087   2.841 -1.9775  2.4714 -2.0347
  193MOL   H13838922   6.266   3.869   2.795 -1.9518  2.1419  2.2514
  193MOL   H13938923   6.175   3.955   2.517 -0.8233  0.7609  1.2054
  193MOL   H14038924   6.390   3.751   2.618 -0.6449 -1.0748  0.5921
  193MOL   H14138925   6.418   3.836   2.469  2.6623  0.3381  3.8811
  193MOL   C14238926   6.279   3.672   2.458  0.3897  0.7640 -0.4189
  193MOL   C14338927   6.373   3.576   2.400 -0.6336 -0.6483 -0.3659
  193MOL   C14438928   6.390   3.445   2.425 -0.0221 -0.2071  0.2950
  193MOL   C14538929   6.489   3.356   2.353  0.0452  0.2934  0.1469
  193MOL   H14638930   6.218   3.614   2.527  0.4625  1.1231 -0.0542
  193MOL   H14738931   6.224   3.714   2.373  1.1163  2.0091 -0.2874
  193MOL   H14838932   6.438   3.635   2.337 -0.4919  0.4134  0.7585
  193MOL   H14938933   6.326   3.396   2.497  0.4473 -0.8443  0.2863
  193MOL   H15038934   6.488   3.386   2.248  3.0374 -1.1964 -0.3506
  193MOL   H15138935   6.445   3.256   2.348  0.7184 -0.0010  0.0549
  193MOL   C15238936   6.632   3.337   2.409  0.5862 -1.1078 -0.1267
  193MOL   C15338937   6.627   3.301   2.558 -0.1521 -0.3016  0.3101
  193MOL   C15438938   6.701   3.204   2.613 -0.4406 -0.6322 -0.3204
  193MOL   C15538939   6.718   3.187   2.764  0.1129  0.7274 -0.5202
  193MOL   H15638940   6.688   3.263   2.352 -1.1431 -1.0974 -1.8941
  193MOL   H15738941   6.687   3.429   2.390  0.9162 -1.0728  0.9507
  193MOL   H15838942   6.562   3.363   2.618 -0.0619  0.0033  0.0934
  193MOL   H15938943   6.767   3.151   2.546 -0.2085 -1.5006  0.5845
  193MOL   H16038944   6.634   3.225   2.822  1.1453 -1.3419  2.4086
  193MOL   H16138945   6.809   3.242   2.787  1.0872 -0.4768 -1.4286
  193MOL   C16238946   6.727   3.038   2.809  0.4601 -0.2205 -0.7916
  193MOL   C16338947   6.731   3.024   2.960 -0.1854  0.2178  0.2851
  193MOL   C16438948   6.839   2.968   3.022  0.2451  0.9298  0.3119
  193MOL   C16538949   6.849   2.936   3.169  0.1179 -0.2819 -0.5072
  193MOL   H16638950   6.637   2.990   2.770 -0.8447  1.6347 -0.1452
  193MOL   H16738951   6.804   2.994   2.747  0.3747 -0.5901 -0.6333
  193MOL   H16838952   6.648   3.057   3.020 -1.2367  1.2369 -1.7042
  193MOL   H16938953   6.927   2.941   2.966  0.3929 -0.1346  1.0470
  193MOL   H17038954   6.757   2.966   3.220  0.0051 -2.2189  0.4679
  193MOL   H17138955   6.943   2.972   3.212  1.8826 -1.5349 -3.2138
  193MOL   C17238956   6.850   2.783   3.201 -0.0920  0.4342  0.8849
  193MOL   C17338957   6.887   2.749   3.343  0.4717 -0.6404 -0.0987
  193MOL   C17438958   7.005   2.687   3.371  0.2110 -0.7976  0.2581
  193MOL   C17538959   7.052   2.645   3.502 -0.1551 -0.9787 -0.0432
  193MOL   H17638960   6.756   2.731   3.183 -1.3064  2.9073 -0.1044
  193MOL   H17738961   6.927   2.730   3.146  0.8458 -0.7345  3.2634
  193MOL   H17838962   6.813   2.754   3.422  2.3098 -3.8256  1.9620
  193MOL   H17938963   7.077   2.688   3.290 -1.0484 -1.5767 -0.9039
  193MOL   H18038964   7.106   2.552   3.483  0.5985 -0.8278  1.3092
  193MOL   H18138965   6.959   2.619   3.552  1.2345 -1.3041  2.4414
  193MOL   C18238966   7.124   2.748   3.589 -0.5008  0.0586 -0.7558
  193MOL   C18338967   7.176   2.690   3.716  0.1266 -0.2813 -0.2787
  193MOL   C18438968   7.160   2.754   3.830 -0.3038  0.0329 -0.2893
  193MOL   C18538969   7.208   2.689   3.958 -1.3528 -0.1918  0.3683
  193MOL   H18638970   7.201   2.800   3.533  0.8369 -1.0226  0.0376
  193MOL   H18738971   7.052   2.826   3.616 -1.0032 -0.2837 -1.0950
  193MOL   H18838972   7.231   2.597   3.709 -0.6330 -0.8895  1.4996
  193MOL   H18938973   7.102   2.843   3.847  0.6607  0.6109  0.0595
  193MOL   H19038974   7.224   2.581   3.949  1.5850  0.1420  1.1091
  193MOL   H19138975   7.136   2.714   4.036  0.0422 -1.0197  1.9702
  193MOL   C19238976   7.345   2.755   3.999  0.1544  0.0045  0.4350
  193MOL   C19338977   7.343   2.904   3.989  0.3712  0.1320  0.2144
  193MOL   C19438978   7.359   2.991   4.094  0.3024  0.5220 -0.8912
  193MOL   C19538979   7.349   3.142   4.087 -0.3715  1.0490 -0.1472
  193MOL   H19638980   7.380   2.732   4.100  0.8814  1.9251  0.6512
  193MOL   H19738981   7.416   2.706   3.933 -0.0768 -0.1252  0.2835
  193MOL   H19838982   7.326   2.935   3.888 -2.1717 -1.7361  0.0040
  193MOL   H19938983   7.375   2.947   4.191 -1.3511 -0.3918 -1.0090
  193MOL   H20038984   7.441   3.187   4.125 -1.4934  2.8449  0.5187
  193MOL   H20138985   7.258   3.180   4.134  0.2647 -1.4628  3.2748
  193MOL   H20238986   7.344   3.175   3.983  0.5044 -0.1409 -0.5694
  194MOL     C138987   2.761   4.080   7.944 -0.6713  0.6175 -0.3773
  194MOL     C238988   2.648   4.004   7.883 -0.4254  0.4761 -0.1611
  194MOL     C338989   2.608   4.011   7.756  0.3085  0.9733  0.0313
  194MOL     C438990   2.484   3.948   7.700 -0.0469 -0.8467  0.4066
  194MOL     H538991   2.838   4.102   7.871  0.6955  0.2639  0.9233
  194MOL     H638992   2.810   4.018   0.043 -0.1256  0.2841 -0.9993
  194MOL     H738993   2.598   3.941   7.954  0.6343 -0.5184 -0.2722
  194MOL     H838994   2.658   4.084   7.693 -1.7322 -0.0613 -2.9302
  194MOL     H938995   2.413   4.006   7.642  1.4528 -0.2543 -0.8845
  194MOL    H1038996   2.430   3.911   7.787  2.5770  2.1612  3.4739
  194MOL    H1138997   2.731   4.172   0.019 -0.1709  0.2900  0.5146
  194MOL    C1238998   2.510   3.832   7.599 -0.3611 -0.4277 -0.2424
  194MOL    C1338999   2.380   3.792   7.526 -0.4060 -0.6825  0.4973
  194MOL    C1439000   2.293   3.707   7.571  0.4753  0.1250  0.1326
  194MOL    C1539001   2.174   3.668   7.495  0.0825  0.2078  0.2060
  194MOL    H1639002   2.586   3.858   7.526  2.2094  0.6202  2.7246
  194MOL    H1739003   2.543   3.745   7.657  1.2511 -0.0944 -0.6346
  194MOL    H1839004   2.354   3.851   7.440  0.5867 -0.1447  0.5560
  194MOL    H1939005   2.308   3.659   7.667  1.3940 -1.2688 -0.6954
  194MOL    H2039006   2.148   3.739   7.416 -0.4599 -0.9157 -0.6451
  194MOL    H2139007   2.084   3.668   7.556  0.0718 -1.5757  0.2042
  194MOL    C2239008   2.204   3.529   7.429  0.4764  0.5363  0.2003
  194MOL    C2339009   2.089   3.461   7.358  0.5380  0.1901 -0.4014
  194MOL    C2439010   2.102   3.388   7.247 -0.3827 -0.2007  0.1951
  194MOL    C2539011   1.988   3.332   7.166  0.3809 -0.1945 -0.2272
  194MOL    H2639012   2.286   3.539   7.359 -0.9836  1.5965 -1.3807
  194MOL    H2739013   2.228   3.460   7.510 -1.7802 -1.1132 -0.4875
  194MOL    H2839014   1.993   3.471   7.406 -0.1093 -1.9342 -1.1823
  194MOL    H2939015   2.198   3.394   7.198 -1.8109  0.1808 -2.6535
  194MOL    H3039016   1.898   3.328   7.227  0.0159  3.8855 -0.3297
  194MOL    H3139017   2.019   3.237   7.124  0.7968  0.2657 -0.9815
  194MOL    C3239018   1.961   3.417   7.044 -0.2885 -0.3109  0.2972
  194MOL    C3339019   1.872   3.350   6.937  0.2277 -0.4660  0.0565
  194MOL    C3439020   1.760   3.401   6.882 -0.7667 -0.3251  0.2077
  194MOL    C3539021   1.686   3.317   6.779 -0.4428 -0.3555 -0.3090
  194MOL    H3639022   1.911   3.512   7.063 -1.6031 -0.1877 -3.3388
  194MOL    H3739023   2.049   3.454   6.992 -2.2604  2.0705 -1.4502
  194MOL    H3839024   1.916   3.261   6.894  0.1298 -0.2348 -0.5398
  194MOL    H3939025   1.720   3.496   6.914  0.9536  0.0274  1.3944
  194MOL    H4039026   1.628   3.249   6.841  0.2132 -0.4459  0.2144
  194MOL    H4139027   1.757   3.256   6.723 -1.5937 -2.4977  0.4900
  194MOL    C4239028   1.598   3.398   6.678 -0.1381 -0.1984  0.2049
  194MOL    C4339029   1.687   3.491   6.598  0.2572 -0.5663  0.2956
  194MOL    C4439030   1.683   3.509   6.467  0.1559  0.2646  0.0810
  194MOL    C4539031   1.746   3.627   6.391  1.0380 -0.4381  0.3874
  194MOL    H4639032   1.545   3.338   6.603 -0.9802  1.1532 -0.3019
  194MOL    H4739033   1.517   3.456   6.723  0.2417  1.5066 -1.2299
  194MOL    H4839034   1.742   3.564   6.655  0.3667  0.2617 -0.8584
  194MOL    H4939035   1.623   3.438   6.412 -1.2775  1.2277  0.3800
  194MOL    H5039036   1.804   3.584   6.310 -1.5530 -1.8606 -0.7462
  194MOL    H5139037   1.806   3.680   6.466 -0.8501  0.3326  1.3775
  194MOL    C5239038   1.644   3.719   6.330  0.2213 -0.0935  0.1285
  194MOL    C5339039   1.579   3.801   6.441 -0.2396 -0.0204  0.1768
  194MOL    C5439040   1.462   3.765   6.496 -0.0140  0.3513 -0.1062
  194MOL    C5539041   1.405   3.826   6.617 -0.1471 -0.3744  0.1784
  194MOL    H5639042   1.699   3.787   6.264 -1.2158 -1.0601 -2.1007
  194MOL    H5739043   1.582   3.669   6.256  0.4229 -0.3143  0.1081
  194MOL    H5839044   1.630   3.886   6.483 -1.7326  0.5528  0.8595
  194MOL    H5939045   1.413   3.682   6.447 -0.7164  1.0907 -0.6876
  194MOL    H6039046   1.306   3.863   6.590  0.2830  0.1874 -0.6357
  194MOL    H6139047   1.466   3.908   6.653 -0.3889  0.2139 -0.7254
  194MOL    C6239048   1.404   3.717   6.736  0.3453  0.1054  0.1104
  194MOL    C6339049   1.338   3.775   6.862 -0.8340 -0.1035 -0.3834
  194MOL    C6439050   1.393   3.772   6.989  0.5101  0.5623  0.4629
  194MOL    C6539051   1.323   3.805   7.116  0.2179 -0.2336 -0.9224
  194MOL    H6639052   1.337   3.637   6.704  0.5837 -0.4001  0.8818
  194MOL    H6739053   1.504   3.681   6.760  0.6363 -0.7941 -2.2358
  194MOL    H6839054   1.235   3.807   6.850  0.4513  3.7607 -1.4945
  194MOL    H6939055   1.486   3.722   7.007  0.3200  0.0959  0.1536
  194MOL    H7039056   1.248   3.881   7.095 -0.3691 -0.3050  0.8388
  194MOL    H7139057   1.401   3.837   7.186 -0.8112  0.3365 -0.0289
  194MOL    C7239058   1.245   3.685   7.171 -0.3399  0.0497 -0.5472
  194MOL    C7339059   1.189   3.712   7.313 -0.7393  0.5408 -1.2006
  194MOL    C7439060   1.082   3.785   7.354 -0.0020  0.4107  0.2051
  194MOL    C7539061   1.050   3.815   7.501  0.0433  0.1423  0.4021
  194MOL    H7639062   1.150   3.675   7.118  0.0820  1.8450 -1.6531
  194MOL    H7739063   1.306   3.596   7.155  0.5319  0.0765  2.3752
  194MOL    H7839064   1.251   3.681   7.396 -2.0063  0.1474 -0.3968
  194MOL    H7939065   1.018   3.830   7.279  1.4322  1.5751 -0.3491
  194MOL    H8039066   1.062   3.922   7.522  2.4085  0.2418 -1.3018
  194MOL    H8139067   1.127   3.781   7.570  0.3590  2.2041  1.1135
  194MOL    C8239068   0.920   3.758   7.551 -0.0814  0.7391 -0.0665
  194MOL    C8339069   0.897   3.613   7.530 -1.5142 -0.1891  0.8432
  194MOL    C8439070   0.864   3.522   7.620  0.0784  0.1976 -0.0675
  194MOL    C8539071   0.835   3.374   7.591  0.5840 -0.4271 -0.7834
  194MOL    H8639072   0.922   3.775   7.659 -0.2098 -1.5498  0.3218
  194MOL    H8739073   0.828   3.807   7.520 -0.3369 -0.3202 -1.0217
  194MOL    H8839074   0.903   3.574   7.430 -2.2022  0.7277  0.4366
  194MOL    H8939075   0.843   3.552   7.721 -0.9905 -0.4804 -0.0876
  194MOL    H9039076   0.915   3.313   7.632 -2.3092 -1.6648  3.3135
  194MOL    H9139077   0.841   3.350   7.485  1.3904  0.9185 -1.0560
  194MOL    C9239078   0.702   3.335   7.656  0.4169 -0.2818 -0.5658
  194MOL    C9339079   0.697   3.310   7.807 -0.1217  0.3237  0.1439
  194MOL    C9439080   0.794   3.326   7.892  0.1037  0.3336 -0.1329
  194MOL    C9539081   0.787   3.302   0.067 -0.3584 -0.1679 -0.5258
  194MOL    H9639082   0.626   3.405   7.622 -0.3889  0.1969  2.0699
  194MOL    H9739083   0.665   3.240   7.617 -0.5921 -0.3194  0.4454
  194MOL    H9839084   0.599   3.282   7.844 -0.2938  0.2015 -0.4125
  194MOL    H9939085   0.893   3.349   7.856 -0.5097  1.0980 -1.3477
  194MOL   H10039086   0.845   3.211   0.086 -0.1904 -0.0458 -0.4556
  194MOL   H10139087   0.684   3.298   0.101 -0.6183 -2.0533 -1.4866
  194MOL   C10239088   0.859   3.418   0.125 -0.0944  0.2286 -0.2929
  194MOL   C10339089   0.847   3.427   0.279 -0.2602  0.2035  0.2220
  194MOL   C10439090   0.949   3.432   0.366  0.1826  0.1059  0.0457
  194MOL   C10539091   0.937   3.437   0.511  0.3761  0.1831  0.1314
  194MOL   H10639092   0.966   3.414   0.103 -0.5282  0.3089 -2.5651
  194MOL   H10739093   0.827   3.514   0.084  1.8317  1.2119  0.3988
  194MOL   H10839094   0.743   3.431   0.307 -0.0864  5.1481  0.5093
  194MOL   H10939095   1.049   3.410   0.330  0.8735  2.3049  0.5313
  194MOL   H11039096   0.939   3.345   0.570  1.7123 -0.3425 -0.7201
  194MOL   H11139097   0.835   3.469   0.532  0.2749 -1.2264  2.0058
  194MOL   C11239098   1.033   3.544   0.558 -0.3127  0.1190  0.5182
  194MOL   C11339099   1.009   3.581   0.709 -0.0410 -0.2330 -0.7884
  194MOL   C11439100   1.092   3.562   0.805 -0.9831 -0.2468 -0.2104
  194MOL   C11539101   1.070   3.609   0.949 -0.2437 -0.3410 -0.3422
  194MOL   H11639102   1.137   3.514   0.541  0.0669  1.5453  0.2763
  194MOL   H11739103   1.021   3.629   0.492 -1.5030 -0.4249  0.0262
  194MOL   H11839104   0.917   3.633   0.730 -0.0073 -0.2762 -0.5433
  194MOL   H11939105   1.188   3.515   0.786 -1.0928 -0.9235  0.9010
  194MOL   H12039106   0.970   3.654   0.957 -0.2489 -0.1563 -1.3547
  194MOL   H12139107   1.152   3.679   0.967 -0.0987 -0.7603  0.6400
  194MOL   C12239108   1.104   3.502   1.058  0.8666  0.4359  1.2291
  194MOL   C12339109   1.249   3.491   1.062 -0.0464  0.1791 -0.2595
  194MOL   C12439110   1.315   3.377   1.038 -0.5232 -0.5022 -0.5656
  194MOL   C12539111   1.461   3.363   1.069  0.0807 -0.6489  0.3943
  194MOL   H12639112   1.078   3.550   1.153  2.8166  4.9260 -0.3596
  194MOL   H12739113   1.054   3.405   1.051  1.0261  0.5340 -2.2689
  194MOL   H12839114   1.301   3.572   1.111  0.9965 -0.4486 -0.3242
  194MOL   H12939115   1.268   3.291   0.994  0.1334 -0.8273 -0.6377
  194MOL   H13039116   1.474   3.316   1.166 -0.6477 -0.3944  0.6264
  194MOL   H13139117   1.489   3.469   1.075  0.8636 -0.8373  0.0933
  194MOL   C13239118   1.541   3.275   0.959  0.7740  0.2633 -0.4051
  194MOL   C13339119   1.679   3.246   1.002 -0.6710  0.6405  0.5224
  194MOL   C13439120   1.784   3.227   0.911 -0.7761 -0.2275  0.1525
  194MOL   C13539121   1.933   3.217   0.952 -0.1921  0.2591 -0.4645
  194MOL   H13639122   1.484   3.183   0.948  1.4846  0.0040 -2.1513
  194MOL   H13739123   1.547   3.340   0.871 -0.5550 -0.7600 -1.2624
  194MOL   H13839124   1.692   3.252   1.109  1.5939  1.3236  0.2419
  194MOL   H13939125   1.762   3.232   0.806 -3.2343  1.5791  0.6957
  194MOL   H14039126   1.971   3.133   0.893  0.8664  1.8645 -2.1022
  194MOL   H14139127   1.934   3.184   1.056 -0.5790 -0.1417 -0.5847
  194MOL   C14239128   2.010   3.345   0.927  0.4682 -0.5001 -0.6798
  194MOL   C14339129   1.957   3.465   1.002  0.3224 -0.7680 -0.0251
  194MOL   C14439130   1.988   3.499   1.127  0.2159  0.1004 -0.1934
  194MOL   C14539131   1.932   3.611   1.213 -0.2834  0.4306  0.3619
  194MOL   H14639132   2.107   3.329   0.974  0.8891 -0.8081 -1.6380
  194MOL   H14739133   2.015   3.354   0.818 -1.6058 -1.0022 -0.8427
  194MOL   H14839134   1.878   3.524   0.957  1.3162  0.3510 -0.3211
  194MOL   H14939135   2.074   3.453   1.173 -0.7064  0.4582  1.9514
  194MOL   H15039136   1.830   3.645   1.196 -1.3876 -2.7644  0.2655
  194MOL   H15139137   1.991   3.698   1.185  0.7308  0.1861  1.6765
  194MOL   C15239138   1.937   3.581   1.364 -0.0988  0.2181 -0.6096
  194MOL   C15339139   2.085   3.556   1.418  0.7221 -0.1573 -0.1794
  194MOL   C15439140   2.129   3.459   1.503 -0.3955 -0.0857  0.4749
  194MOL   C15539141   2.272   3.433   1.550 -0.0095  0.2391 -0.5321
  194MOL   H15639142   1.900   3.674   1.408 -2.2103 -0.3017 -1.2340
  194MOL   H15739143   1.865   3.503   1.389  2.6840 -2.1295  0.4096
  194MOL   H15839144   2.162   3.625   1.388  1.9979 -2.0872 -1.4860
  194MOL   H15939145   2.064   3.391   1.557 -2.7457  1.4341 -0.3921
  194MOL   H16039146   2.274   3.493   1.642  1.8472  0.3399 -0.6137
  194MOL   H16139147   2.339   3.479   1.477  1.4849 -1.2597 -0.1321
  194MOL   C16239148   2.320   3.293   1.566  0.7769  0.2457  0.7054
  194MOL   C16339149   2.464   3.287   1.625  0.0796 -0.2913 -0.1208
  194MOL   C16439150   2.572   3.238   1.562  0.5294 -0.0912 -0.5340
  194MOL   C16539151   2.720   3.253   1.614  0.0108  0.4503 -0.4376
  194MOL   H16639152   2.259   3.238   1.638 -1.2363  0.8640 -0.5087
  194MOL   H16739153   2.325   3.247   1.467 -0.5816 -0.0068  0.7518
  194MOL   H16839154   2.467   3.333   1.723 -0.7459 -0.3078 -0.0778
  194MOL   H16939155   2.549   3.203   1.463  0.7641  2.0465 -1.3597
  194MOL   H17039156   2.773   3.158   1.612 -0.4824  0.1721 -2.8711
  194MOL   H17139157   2.710   3.286   1.717  0.1729  0.2628 -0.3618
  194MOL   C17239158   2.793   3.354   1.528 -0.2809  0.0725  0.3695
  194MOL   C17339159   2.800   3.490   1.601 -0.2207  0.5085 -0.2819
  194MOL   C17439160   2.739   3.599   1.557  0.2668  0.2991  0.0344
  194MOL   C17539161   2.743   3.729   1.622 -0.4453 -0.0930 -0.9259
  194MOL   H17639162   2.893   3.324   1.498 -0.5756  1.9190 -2.7254
  194MOL   H17739163   2.743   3.369   1.433  1.1114  0.9738 -0.2353
  194MOL   H17839164   2.861   3.485   1.689 -0.2619 -2.0766 -0.3696
  194MOL   H17939165   2.676   3.592   1.469  1.8106 -0.9930 -1.0036
  194MOL   H18039166   2.828   3.732   1.690 -0.0978  1.9365 -1.4100
  194MOL   H18139167   2.653   3.733   1.683 -1.0497 -0.9596 -1.7369
  194MOL   C18239168   2.748   3.846   1.531  0.1433  0.6463  0.4569
  194MOL   C18339169   2.763   3.981   1.601 -0.0035  0.4652  0.3009
  194MOL   C18439170   2.689   4.086   1.564 -0.3204  0.3613  0.2659
  194MOL   C18539171   2.695   4.221   1.625  0.0432 -0.4964 -0.1067
  194MOL   H18639172   2.840   3.829   1.475 -0.4576  1.6844 -0.9117
  194MOL   H18739173   2.655   3.857   1.474  0.2531  1.5716  0.4388
  194MOL   H18839174   2.828   3.991   1.686  0.0589 -1.3361  0.4814
  194MOL   H18939175   2.609   4.074   1.492 -1.9378 -1.1765  2.2959
  194MOL   H19039176   2.734   4.292   1.552  0.7910 -0.9205 -0.1219
  194MOL   H19139177   2.763   4.230   1.710 -0.5165 -0.0937  0.3136
  194MOL   C19239178   2.551   4.265   1.672 -0.1086  0.1294 -0.1245
  194MOL   C19339179   2.563   4.391   1.756  0.7268 -0.1141 -0.6293
  194MOL   C19439180   2.664   4.479   1.759 -0.1581  0.1607 -0.1252
  194MOL   C19539181   2.670   4.598   1.851 -0.2174  0.0481  0.2813
  194MOL   H19639182   2.488   4.281   1.584  0.6480  4.0822 -0.0088
  194MOL   H19739183   2.500   4.198   1.741 -1.8132  2.6920  1.1763
  194MOL   H19839184   2.486   4.400   1.831  0.7248  0.2302 -0.6722
  194MOL   H19939185   2.744   4.471   1.687  0.8487  0.2807  0.9706
  194MOL   H20039186   2.575   4.621   1.899 -0.7850 -3.5407  1.0245
  194MOL   H20139187   2.697   4.678   1.783 -2.1286  0.7274  0.2999
  194MOL   H20239188   2.752   4.593   1.923 -1.1411 -0.9022  1.2920
  195MOL     C139189   7.054   4.582   2.125 -0.3984 -0.3278  0.4640
  195MOL     C239190   7.012   4.578   1.979 -0.2535 -0.0484  0.4855
  195MOL     C339191   6.910   4.503   1.931  0.4374 -0.4412  0.1562
  195MOL     C439192   6.864   4.501   1.783  1.0393  0.2612 -0.5012
  195MOL     H539193   7.161   4.593   2.141 -0.3291 -0.5906  0.1777
  195MOL     H639194   7.020   4.494   2.179 -2.5158  1.7739  2.6893
  195MOL     H739195   7.066   4.652   1.922 -1.9224  0.9684  0.1926
  195MOL     H839196   6.858   4.438   2.000  0.0516 -0.0807  0.2091
  195MOL     H939197   6.756   4.516   1.778  0.8445 -0.8172  0.3587
  195MOL    H1039198   6.886   4.406   1.734 -0.8368  0.3420 -1.5577
  195MOL    H1139199   7.012   4.670   2.175 -3.5788 -0.6887 -1.4300
  195MOL    C1239200   6.948   4.605   1.699  0.5082 -0.7229  0.6412
  195MOL    C1339201   6.909   4.597   1.550  0.6091 -0.4824  0.5635
  195MOL    C1439202   6.869   4.699   1.472  0.1477 -0.0234 -0.7251
  195MOL    C1539203   6.816   4.676   1.329  0.0635  0.2717 -0.4669
  195MOL    H1639204   6.928   4.710   1.723 -2.1173 -0.8711 -0.7262
  195MOL    H1739205   7.057   4.594   1.705  0.7163  0.6561 -0.3897
  195MOL    H1839206   6.916   4.494   1.515 -0.6222 -0.0036 -1.1658
  195MOL    H1939207   6.875   4.803   1.500 -1.7111 -0.0407 -0.1634
  195MOL    H2039208   6.715   4.712   1.309 -0.3651 -0.3488  0.5675
  195MOL    H2139209   6.799   4.569   1.318 -0.3356  0.3107 -0.2489
  195MOL    C2239210   6.910   4.736   1.231 -0.1803 -0.2829  0.6597
  195MOL    C2339211   6.856   4.728   1.092  0.1408  0.2422  0.4873
  195MOL    C2439212   6.778   4.628   1.046  0.6223  0.2013  0.3623
  195MOL    C2539213   6.714   4.637   0.903 -0.5055  0.0817 -0.0034
  195MOL    H2639214   6.906   4.841   1.261  0.9172 -0.5074  1.6290
  195MOL    H2739215   7.014   4.704   1.234  0.3472  1.0588 -1.8262
  195MOL    H2839216   6.899   4.802   1.026  1.6553  0.7299  2.0007
  195MOL    H2939217   6.749   4.551   1.116 -1.8283 -0.7019 -1.5662
  195MOL    H3039218   6.758   4.558   0.842  0.0473 -0.5980  1.2328
  195MOL    H3139219   6.743   4.731   0.857  1.4310 -0.8037 -0.6724
  195MOL    C3239220   6.557   4.631   0.896 -0.6902  0.4105 -0.1158
  195MOL    C3339221   6.511   4.633   0.745  0.1579 -0.8590 -0.3076
  195MOL    C3439222   6.431   4.723   0.691 -0.2519  0.6596  0.3622
  195MOL    C3539223   6.380   4.716   0.548 -0.0604  1.1239  0.1728
  195MOL    H3639224   6.510   4.537   0.926  0.1388  0.0060 -0.0673
  195MOL    H3739225   6.507   4.714   0.944 -0.8917 -0.1855  0.7172
  195MOL    H3839226   6.556   4.549   0.694 -0.8402 -1.5892  0.0043
  195MOL    H3939227   6.392   4.801   0.754 -0.0494  1.1538 -0.1245
  195MOL    H4039228   6.373   4.821   0.520  1.6988  0.8485 -1.4532
  195MOL    H4139229   6.282   4.670   0.534  0.0162  1.6171 -2.3420
  195MOL    C4239230   6.465   4.638   0.441 -0.0649 -0.2600  0.0023
  195MOL    C4339231   6.601   4.703   0.411  0.6327  0.2899  0.0968
  195MOL    C4439232   6.642   4.758   0.292 -0.2917  0.1945 -0.5239
  195MOL    C4539233   6.778   4.825   0.281 -0.3590 -0.0362 -0.7330
  195MOL    H4639234   6.468   4.534   0.473 -1.7147 -0.4733 -0.4824
  195MOL    H4739235   6.404   4.628   0.352  1.5137 -1.4393 -0.9838
  195MOL    H4839236   6.659   4.713   0.502  1.7142  0.3132 -0.5864
  195MOL    H4939237   6.579   4.762   0.204 -0.6100  0.7801 -0.2753
  195MOL    H5039238   6.808   4.793   0.181 -1.0568  1.2014 -1.3539
  195MOL    H5139239   6.852   4.781   0.348 -0.7824  0.8199  0.3114
  195MOL    C5239240   6.777   4.981   0.287 -0.6077  0.2559  0.4278
  195MOL    C5339241   6.916   5.041   0.262  0.0445 -0.0744 -0.1771
  195MOL    C5439242   6.938   5.135   0.176 -0.1805 -0.4342  0.1219
  195MOL    C5539243   7.078   5.198   0.146 -0.7059 -0.6069  0.3079
  195MOL    H5639244   6.700   4.994   0.210 -1.4946  2.1472  1.5927
  195MOL    H5739245   6.744   5.010   0.387 -1.6037 -1.1799  0.5260
  195MOL    H5839246   6.998   4.995   0.316 -1.6538  0.1295  2.7027
  195MOL    H5939247   6.851   5.169   0.121 -1.8249 -1.3776  2.0685
  195MOL    H6039248   7.079   5.195   0.037 -0.9110 -1.8589  0.3357
  195MOL    H6139249   7.156   5.132   0.183  0.5899  1.1419  0.7896
  195MOL    C6239250   7.090   5.341   0.198  0.4694 -0.5127 -0.7987
  195MOL    C6339251   7.204   5.406   0.126  0.1372 -0.1777 -0.0883
  195MOL    C6439252   7.324   5.441   0.183  0.1787  0.2069 -0.0874
  195MOL    C6539253   7.449   5.478   0.111 -0.9283 -0.2553  0.3885
  195MOL    H6639254   7.000   5.393   0.167  0.0204 -1.1202 -0.5369
  195MOL    H6739255   7.102   5.347   0.306 -0.6821  0.0535 -0.7052
  195MOL    H6839256   7.196   5.415   0.019  0.8467 -0.8941 -0.2063
  195MOL    H6939257   7.331   5.436   0.291 -0.6232  0.2558 -0.0325
  195MOL    H7039258   7.529   5.414   0.149  1.9573  3.2885  0.5368
  195MOL    H7139259   7.467   5.581   0.140  0.3481 -0.3686  0.0463
  195MOL    C7239260   7.444   5.492   7.938 -0.7005 -0.1735 -0.1665
  195MOL    C7339261   7.578   5.540   7.891  0.4717  0.2096  0.1815
  195MOL    C7439262   7.661   5.485   7.800  0.3769 -0.3880 -0.4119
  195MOL    C7539263   7.790   5.536   7.756  0.9527  0.2303  0.2258
  195MOL    H7639264   7.424   5.396   7.890 -0.2790  0.5059 -1.7320
  195MOL    H7739265   7.372   5.566   7.902 -0.4087  0.8363  1.2829
  195MOL    H7839266   7.608   5.637   7.926 -2.0169  0.7676  0.9101
  195MOL    H7939267   7.630   5.393   7.752 -3.0037  0.2737  0.4438
  195MOL    H8039268   7.815   5.633   7.800  1.1913  1.5878 -2.7836
  195MOL    H8139269   7.781   5.550   7.648  0.8611 -0.8684  0.0858
  195MOL    C8239270   7.909   5.443   7.795 -0.3985 -0.1806  0.3465
  195MOL    C8339271   0.060   5.501   7.720 -0.8393 -0.8349 -0.0976
  195MOL    C8439272   0.155   5.557   7.795 -0.1043  0.6181 -0.0278
  195MOL    C8539273   0.260   5.662   7.746  0.2946 -0.2557  0.5371
  195MOL    H8639274   7.907   5.448   7.904 -1.1944 -1.0634  0.3781
  195MOL    H8739275   7.907   5.338   7.765 -0.1584 -0.0806 -0.0183
  195MOL    H8839276   0.069   5.496   7.613 -1.4296 -2.0573 -0.1051
  195MOL    H8939277   0.144   5.564   7.902  0.9254  1.4113  0.0402
  195MOL    H9039278   0.275   5.728   7.832  0.4340  0.6523 -0.1767
  195MOL    H9139279   0.224   5.729   7.668 -0.6277 -1.6070 -0.2021
  195MOL    C9239280   0.397   5.605   7.707  0.5359 -0.4336 -0.5315
  195MOL    C9339281   0.489   5.724   7.674 -0.5199  0.3846  0.0588
  195MOL    C9439282   0.612   5.741   7.720 -0.3102  0.0727  0.0512
  195MOL    C9539283   0.702   5.850   7.666 -0.1739 -0.8126 -0.3929
  195MOL    H9639284   0.442   5.544   7.784  0.4167 -1.8553 -1.5800
  195MOL    H9739285   0.386   5.535   7.624 -0.4705  0.9881 -1.6517
  195MOL    H9839286   0.451   5.786   7.594  1.2707  2.9134  1.1170
  195MOL    H9939287   0.650   5.677   7.798 -1.8955  0.3013  1.0349
  195MOL   H10039288   0.661   5.911   7.585  0.2473 -1.1797 -0.8825
  195MOL   H10139289   0.795   5.814   7.621 -0.3620  0.1165 -1.5482
  195MOL   C10239290   0.748   5.931   7.789 -0.2963 -0.1108  0.6500
  195MOL   C10339291   0.855   6.031   7.747 -0.1815 -0.4781  0.0250
  195MOL   C10439292   0.851   6.151   7.800 -0.4691  0.5620  0.3984
  195MOL   C10539293   0.951   6.264   7.783 -0.0336 -0.2770 -0.1466
  195MOL   H10639294   0.663   5.978   7.839 -0.8759 -0.0350 -0.3884
  195MOL   H10739295   0.810   5.871   7.856 -0.2387 -0.0164  0.6801
  195MOL   H10839296   0.935   6.005   7.680 -0.0789  0.0395 -0.0515
  195MOL   H10939297   0.766   6.167   7.864 -0.8691  1.0715 -0.2500
  195MOL   H11039298   0.887   6.337   7.733  1.5024 -0.4123 -2.3837
  195MOL   H11139299   1.030   6.240   7.712 -0.7824 -0.2986 -0.9800
  195MOL   C11239300   0.998   6.312   7.926  0.3702  0.7979 -0.1706
  195MOL   C11339301   1.061   6.443   7.922  0.4120  0.1075 -1.1057
  195MOL   C11439302   1.182   6.480   7.974 -0.1961 -0.2107 -0.0397
  195MOL   C11539303   1.238   6.619   7.976  0.2048 -0.4033  0.1093
  195MOL   H11639304   0.908   6.314   0.010  0.7940  0.2819  0.4827
  195MOL   H11739305   1.074   6.242   7.961 -0.2509  0.3958  0.3807
  195MOL   H11839306   0.990   6.516   7.886 -0.7139 -0.2750  0.2722
  195MOL   H11939307   1.255   6.409   0.031  0.2392 -0.6330 -1.8142
  195MOL   H12039308   1.222   6.664   7.878  2.5999  0.0735 -0.0979
  195MOL   H12139309   1.347   6.612   0.002  0.2024 -0.5146 -0.0750
  195MOL   C12239310   1.201   6.700   0.121 -0.3058  0.3628  0.4783
  195MOL   C12339311   1.059   6.755   0.107  0.3491 -0.6814  0.0326
  195MOL   C12439312   0.962   6.725   0.195 -0.0136  0.6425 -0.2740
  195MOL   C12539313   0.818   6.767   0.187  0.2534 -0.3911 -0.0143
  195MOL   H12639314   1.205   6.650   0.217  1.1225 -0.8269 -0.1749
  195MOL   H12739315   1.277   6.779   0.131 -0.7065  0.8988 -0.5639
  195MOL   H12839316   1.037   6.808   0.015  0.8783  1.7439  1.2804
  195MOL   H12939317   0.988   6.678   0.289  2.8438  0.7123 -0.9750
  195MOL   H13039318   0.776   6.668   0.169  1.9437 -0.8393 -1.7078
  195MOL   H13139319   0.810   6.834   0.102  1.8714  1.5284  1.3059
  195MOL   C13239320   0.755   6.826   0.317 -0.5414 -0.3683  0.9206
  195MOL   C13339321   0.777   6.974   0.331 -0.5208 -0.8297  0.3488
  195MOL   C13439322   0.714   7.050   0.422  0.9480 -0.8190  0.7137
  195MOL   C13539323   0.725   7.206   0.440 -0.1807  0.4350 -0.8138
  195MOL   H13639324   0.646   6.817   0.320 -0.7275  1.4571  0.5797
  195MOL   H13739325   0.801   6.786   0.407  3.6963 -0.9855 -1.3832
  195MOL   H13839326   0.848   7.011   0.258 -1.4197  0.3562  0.0478
  195MOL   H13939327   0.638   7.004   0.484  1.3230 -1.9233  0.3685
  195MOL   H14039328   0.626   7.246   0.419 -0.7659 -1.4917 -1.8667
  195MOL   H14139329   0.799   7.244   0.370  0.4880 -1.9737 -1.4772
  195MOL   C14239330   0.754   7.240   0.586 -0.5429 -0.1955 -0.0254
  195MOL   C14339331   0.892   7.192   0.619 -0.4130  0.6125 -0.3330
  195MOL   C14439332   0.998   7.268   0.658 -0.1099 -0.1444  0.5486
  195MOL   C14539333   1.138   7.213   0.681  0.3507 -0.2972  0.8206
  195MOL   H14639334   0.740   7.348   0.595 -0.9383 -0.0918 -1.7223
  195MOL   H14739335   0.681   7.183   0.644 -3.1136  0.5897 -2.3878
  195MOL   H14839336   0.913   7.088   0.601 -0.6604  1.0175 -3.2887
  195MOL   H14939337   0.999   7.376   0.664  2.6670 -0.0443 -0.5930
  195MOL   H15039338   1.202   7.244   0.599 -0.1368 -1.6468 -0.0871
  195MOL   H15139339   1.129   7.106   0.661 -1.6246 -0.3539  1.8747
  195MOL   C15239340   1.211   7.249   0.812 -0.1034  0.4804  0.1335
  195MOL   C15339341   1.180   7.160   0.928  0.5239  0.4301  0.0754
  195MOL   C15439342   1.108   7.197   1.036 -0.1648  0.1557 -0.5484
  195MOL   C15539343   1.061   7.112   1.147 -0.1388  0.2613 -0.2368
  195MOL   H15639344   1.318   7.245   0.791 -0.2367 -0.8713 -0.3123
  195MOL   H15739345   1.193   7.354   0.838 -0.0494  0.4935  0.1207
  195MOL   H15839346   1.215   7.061   0.903 -1.4938 -0.1636 -0.4916
  195MOL   H15939347   1.071   7.298   1.038 -0.8387 -0.1016  1.6459
  195MOL   H16039348   1.079   7.157   1.245  1.1764 -0.3099 -0.2063
  195MOL   H16139349   1.129   7.027   1.152 -0.0008  0.3920  0.0885
  195MOL   C16239350   0.905   7.066   1.125 -0.0110 -0.1235  0.4347
  195MOL   C16339351   0.891   6.948   1.031  0.1147 -0.6134 -0.6610
  195MOL   C16439352   0.817   6.952   0.918  0.3311 -0.3547 -0.5841
  195MOL   C16539353   0.797   6.835   0.821  1.1314  0.5279  0.1571
  195MOL   H16639354   0.868   7.057   1.227 -3.8958  0.9604 -0.7916
  195MOL   H16739355   0.858   7.158   1.090  0.0789 -1.0016 -2.0991
  195MOL   H16839356   0.946   6.860   1.062 -0.0767  0.0083  1.4832
  195MOL   H16939357   0.763   7.044   0.902  2.4518  0.9707 -0.4532
  195MOL   H17039358   0.765   6.877   0.726 -0.3903  3.4646  1.8935
  195MOL   H17139359   0.719   6.770   0.863 -0.8078  1.4628 -1.8828
  195MOL   C17239360   0.913   6.744   0.796  0.3208  0.1753  0.8309
  195MOL   C17339361   1.038   6.814   0.735 -0.0546 -0.4204 -0.0421
  195MOL   C17439362   1.087   6.789   0.613 -0.0221 -0.0461  0.0570
  195MOL   C17539363   1.207   6.846   0.543 -0.9199  0.4660 -0.3786
  195MOL   H17639364   0.941   6.699   0.891 -0.7119  1.3910  1.7151
  195MOL   H17739365   0.882   6.664   0.728 -1.0663  0.7283  0.8017
  195MOL   H17839366   1.083   6.893   0.794 -3.4752  2.3361 -0.9380
  195MOL   H17939367   1.046   6.704   0.560  0.6709 -0.8896  0.8487
  195MOL   H18039368   1.283   6.779   0.503 -0.4739  0.1772  0.9181
  195MOL   H18139369   1.265   6.907   0.612 -0.4688  1.7459 -1.8682
  195MOL   C18239370   1.164   6.945   0.426 -0.4339 -0.6331  0.0051
  195MOL   C18339371   1.287   7.007   0.363  0.2717  0.2426  0.1844
  195MOL   C18439372   1.385   7.082   0.422  0.5813  1.3890 -0.6795
  195MOL   C18539373   1.504   7.137   0.358  0.0702 -0.5349  0.2906
  195MOL   H18639374   1.108   6.888   0.351 -0.4225  0.3519 -0.7576
  195MOL   H18739375   1.094   7.019   0.463 -0.5265 -0.2142 -1.0074
  195MOL   H18839376   1.312   6.982   0.261 -0.1367  3.2851 -0.6954
  195MOL   H18939377   1.385   7.096   0.529 -1.4879 -0.3630 -0.4015
  195MOL   H19039378   1.556   7.209   0.421 -1.0761  1.4477 -0.9568
  195MOL   H19139379   1.467   7.193   0.271  4.1255  0.9776 -0.6130
  195MOL   C19239380   1.587   7.017   0.319  0.0826 -0.0006 -0.0851
  195MOL   C19339381   1.713   7.052   0.245  0.0010 -0.5382 -0.4138
  195MOL   C19439382   1.734   7.018   0.116  0.5058 -0.5399 -0.5542
  195MOL   C19539383   1.869   7.033   0.050 -0.4075  1.3249 -0.5047
  195MOL   H19639384   1.628   6.959   0.402  0.9261  1.6514  0.6726
  195MOL   H19739385   1.525   6.947   0.262 -1.3617  1.4268 -0.3139
  195MOL   H19839386   1.786   7.100   0.308 -0.7439 -0.9968  0.8216
  195MOL   H19939387   1.657   6.964   0.064  0.5378 -2.8598  1.7165
  195MOL   H20039388   1.934   7.107   0.097  1.7941 -0.7398 -0.2531
  195MOL   H20139389   1.860   7.054   7.920 -1.8464 -1.2229 -0.9264
  195MOL   H20239390   1.906   6.931   0.049  0.4216  1.5609  2.1303
  196MOL     C139391   1.611   1.482   3.825 -0.1165 -0.3992 -0.1337
  196MOL     C239392   1.671   1.626   3.822 -0.0955  0.3172 -0.3733
  196MOL     C339393   1.799   1.652   3.825  0.3658  0.4393  0.3623
  196MOL     C439394   1.856   1.787   3.828  0.2698 -0.0381  0.6417
  196MOL     H539395   1.503   1.478   3.810 -0.5030  0.2358  2.2320
  196MOL     H639396   1.625   1.450   3.928 -3.3300  1.1403  0.8683
  196MOL     H739397   1.598   1.705   3.820 -0.7080 -0.2648 -1.0832
  196MOL     H839398   1.870   1.571   3.821 -0.7096 -0.4258 -2.1492
  196MOL     H939399   1.785   1.864   3.798  1.4892  0.6015 -0.6631
  196MOL    H1039400   1.925   1.793   3.743  0.2805  0.1715  0.6629
  196MOL    H1139401   1.656   1.420   3.749  0.7551 -0.1630  0.1813
  196MOL    C1239402   1.930   1.833   3.954 -0.4778 -0.0416  0.0706
  196MOL    C1339403   2.016   1.960   3.915  0.4415 -0.6499 -0.2146
  196MOL    C1439404   1.990   2.085   3.951  0.3546  0.6865 -0.1140
  196MOL    C1539405   2.069   2.206   3.899  0.0889 -0.2264  0.0386
  196MOL    H1639406   1.866   1.846   4.041  0.7815  1.8101  0.7479
  196MOL    H1739407   1.995   1.758   3.998 -1.6602 -0.3582  1.3281
  196MOL    H1839408   2.091   1.936   3.841  0.7336 -2.2035  0.5680
  196MOL    H1939409   1.903   2.106   4.011  0.7742  2.1664 -0.0027
  196MOL    H2039410   1.998   2.258   3.834 -0.5741 -0.6477  0.4104
  196MOL    H2139411   2.139   2.166   3.826  0.1370 -0.4258  0.1938
  196MOL    C2239412   2.138   2.292   4.014  0.0092  0.4026 -0.1517
  196MOL    C2339413   2.209   2.414   3.959 -0.4381 -0.3295 -0.7097
  196MOL    C2439414   2.163   2.536   3.988 -0.1406 -0.2522 -0.2701
  196MOL    C2539415   2.225   2.665   3.939 -0.1641 -0.1040 -0.2104
  196MOL    H2639416   2.071   2.312   4.098  0.9135 -0.7080  0.8514
  196MOL    H2739417   2.216   2.224   4.049 -0.0987  0.3264 -0.0590
  196MOL    H2839418   2.292   2.401   3.892 -1.3511 -1.3336 -1.6523
  196MOL    H2939419   2.069   2.535   4.041 -1.1850 -0.4450 -2.1105
  196MOL    H3039420   2.141   2.728   3.910 -2.1519 -1.9692  1.4096
  196MOL    H3139421   2.267   2.636   3.842  0.4305  1.0789 -0.3144
  196MOL    C3239422   2.335   2.728   4.033  0.1633 -0.3220 -0.2170
  196MOL    C3339423   2.276   2.767   4.168 -0.1244  0.0411  0.0539
  196MOL    C3439424   2.336   2.733   4.284 -0.1672 -0.1755 -0.0262
  196MOL    C3539425   2.280   2.758   4.419  0.4638 -0.1227 -0.4525
  196MOL    H3639426   2.417   2.663   4.064  0.1062  0.0860  0.8292
  196MOL    H3739427   2.377   2.817   3.987  1.2790 -0.9017 -0.3274
  196MOL    H3839428   2.183   2.821   4.159  0.3736  0.6429 -1.8307
  196MOL    H3939429   2.432   2.685   4.293 -0.7511 -0.8673  3.1284
  196MOL    H4039430   2.206   2.837   4.413  0.0254 -0.4173  0.8069
  196MOL    H4139431   2.364   2.799   4.476  1.2953 -0.7591 -1.2015
  196MOL    C4239432   2.220   2.631   4.482 -0.2634 -0.3758 -1.0563
  196MOL    C4339433   2.090   2.592   4.403 -0.5699  0.3770  0.0913
  196MOL    C4439434   1.962   2.610   4.438 -0.0065 -0.6155 -0.6144
  196MOL    C4539435   1.844   2.596   4.340 -0.8615 -0.0366 -0.2436
  196MOL    H4639436   2.293   2.553   4.462  1.0775  0.4336  0.5080
  196MOL    H4739437   2.198   2.648   4.587  0.0982  0.3714 -1.0921
  196MOL    H4839438   2.089   2.577   4.296 -3.5521  0.1362  0.0872
  196MOL    H4939439   1.941   2.654   4.535  1.5953  0.7073 -0.8508
  196MOL    H5039440   1.883   2.581   4.239  2.5936  0.9348  0.8740
  196MOL    H5139441   1.801   2.696   4.332  0.3670  0.4488 -0.8174
  196MOL    C5239442   1.748   2.487   4.391 -0.1774 -0.6605  1.0775
  196MOL    C5339443   1.665   2.547   4.503  0.3640  0.0643 -0.2949
  196MOL    C5439444   1.687   2.534   4.635  0.3839 -0.0070 -0.4554
  196MOL    C5539445   1.611   2.589   4.753  0.4662 -0.8961  0.0070
  196MOL    H5639446   1.672   2.454   4.320 -0.9664  1.1268  1.0659
  196MOL    H5739447   1.802   2.403   4.435 -1.3681 -0.5842  2.7091
  196MOL    H5839448   1.584   2.610   4.467  0.5550  0.5292  0.0946
  196MOL    H5939449   1.767   2.468   4.665  0.2448  0.9333  2.1322
  196MOL    H6039450   1.524   2.638   4.709  1.4954  0.5961 -0.3702
  196MOL    H6139451   1.673   2.663   4.802  0.7744 -0.1263 -1.5314
  196MOL    C6239452   1.566   2.480   4.850  0.2028 -0.2988 -0.1360
  196MOL    C6339453   1.441   2.500   4.924  0.0533  0.2858 -1.1054
  196MOL    C6439454   1.439   2.535   5.052  0.2343  0.3753 -0.1100
  196MOL    C6539455   1.316   2.576   5.124  0.0606  0.0607  0.5417
  196MOL    H6639456   1.572   2.384   4.798  1.1498 -0.2097 -0.2009
  196MOL    H6739457   1.650   2.467   4.918  0.1861  0.0415 -0.0502
  196MOL    H6839458   1.348   2.481   4.872 -0.6832 -0.9350  0.5987
  196MOL    H6939459   1.527   2.565   5.107  0.1838 -0.5856  0.5010
  196MOL    H7039460   1.238   2.611   5.056 -1.2892 -3.6453  0.0837
  196MOL    H7139461   1.345   2.670   5.170  1.6994 -0.2012  0.0889
  196MOL    C7239462   1.263   2.476   5.227  0.4761  0.0118  0.3516
  196MOL    C7339463   1.137   2.526   5.299 -0.2238 -0.3615  0.0056
  196MOL    C7439464   1.148   2.630   5.389 -0.2025  0.2790  0.7544
  196MOL    C7539465   1.021   2.692   5.455 -0.7240 -0.6603 -0.2716
  196MOL    H7639466   1.241   2.380   5.180  0.8470 -0.3434  0.8986
  196MOL    H7739467   1.338   2.451   5.303  0.7724  1.7116  0.6293
  196MOL    H7839468   1.039   2.490   5.272 -0.1976 -0.6055  0.2416
  196MOL    H7939469   1.249   2.656   5.418  1.3537 -2.9587 -1.4382
  196MOL    H8039470   0.937   2.670   5.390 -0.0182  0.6774 -1.6682
  196MOL    H8139471   1.046   2.798   5.455 -1.1836 -0.5250  2.1691
  196MOL    C8239472   1.011   2.667   5.604 -0.0042  0.4303  0.1230
  196MOL    C8339473   1.137   2.726   5.681 -0.4885  0.3302 -0.6794
  196MOL    C8439474   1.123   2.788   5.801 -0.5308  0.1302 -0.4003
  196MOL    C8539475   1.241   2.840   5.881  0.0477  0.4882 -0.3784
  196MOL    H8639476   0.919   2.701   5.651 -0.8262 -0.9871 -0.4501
  196MOL    H8739477   1.016   2.560   5.624  1.4810  0.5349  0.4088
  196MOL    H8839478   1.235   2.695   5.648  0.5124 -0.2722  2.6930
  196MOL    H8939479   1.026   2.822   5.834 -0.6619  0.4369 -1.0795
  196MOL    H9039480   1.326   2.775   5.862 -1.1618 -0.7593 -1.6788
  196MOL    H9139481   1.215   2.818   5.985 -0.1355  1.8470 -0.1243
  196MOL    C9239482   1.271   2.983   5.854  0.4078 -0.1528  0.1109
  196MOL    C9339483   1.387   3.029   5.947 -0.3350 -0.4099  0.2308
  196MOL    C9439484   1.496   3.093   5.889 -0.1320  0.2228 -0.0664
  196MOL    C9539485   1.624   3.131   5.964 -0.0251  0.4518  0.5935
  196MOL    H9639486   1.290   2.997   5.747  0.1149  2.2196  0.3394
  196MOL    H9739487   1.181   3.038   5.882  0.0325  0.0610 -1.4321
  196MOL    H9839488   1.376   3.012   6.053  0.1632 -0.0722  0.3383
  196MOL    H9939489   1.504   3.097   5.782 -0.6071 -1.3491 -0.1784
  196MOL   H10039490   1.608   3.153   6.069  1.7852 -1.8169  1.4019
  196MOL   H10139491   1.664   3.225   5.924  0.8817 -0.3668 -0.4748
  196MOL   C10239492   1.715   3.010   5.952  0.4649  0.0405  0.0631
  196MOL   C10339493   1.797   3.023   5.826 -0.1257 -0.3176  0.4146
  196MOL   C10439494   1.927   3.032   5.820  0.2722 -0.9150  0.4573
  196MOL   C10539495   2.021   3.027   5.700  0.4714  0.1552  0.1669
  196MOL   H10639496   1.773   3.001   6.043 -0.4070  0.2552  0.6476
  196MOL   H10739497   1.665   2.914   5.959  0.5733 -0.0350 -0.2088
  196MOL   H10839498   1.733   3.031   5.739 -0.8993  0.5854  1.0622
  196MOL   H10939499   1.975   3.038   5.917  2.3667 -0.4247 -0.5640
  196MOL   H11039500   1.973   2.967   5.622  0.3093  1.0429 -0.4223
  196MOL   H11139501   2.102   2.964   5.736  0.1347  1.0947  2.6169
  196MOL   C11239502   2.065   3.159   5.659 -0.2697  0.2175  0.2154
  196MOL   C11339503   2.171   3.149   5.549  0.4879 -0.2663  0.1232
  196MOL   C11439504   2.243   3.042   5.508 -1.0651 -0.4916  0.3706
  196MOL   C11539505   2.335   3.052   5.382  0.5842 -0.0020 -0.2517
  196MOL   H11639506   1.982   3.213   5.613  0.0282  0.6133  0.1376
  196MOL   H11739507   2.100   3.229   5.734  1.1703 -0.4252  0.1552
  196MOL   H11839508   2.177   3.247   5.504 -0.3208  0.1972  1.0013
  196MOL   H11939509   2.226   2.946   5.554 -1.2277 -0.1260  1.0832
  196MOL   H12039510   2.437   3.027   5.412  0.6554 -1.8402 -1.9391
  196MOL   H12139511   2.342   3.153   5.341 -0.1753  0.5870  1.0618
  196MOL   C12239512   2.296   2.950   5.271 -0.3748  0.3396 -0.1467
  196MOL   C12339513   2.406   2.903   5.174 -0.2460 -0.1559  0.1534
  196MOL   C12439514   2.464   2.780   5.166  0.2931 -0.5945 -0.0025
  196MOL   C12539515   2.572   2.744   5.070 -0.7304  0.1345  0.5788
  196MOL   H12639516   2.258   2.862   5.322 -1.8965 -0.2571 -2.2586
  196MOL   H12739517   2.218   2.995   5.210 -0.7353 -1.8102 -1.2919
  196MOL   H12839518   2.449   2.975   5.106 -0.0103  0.8418  1.3327
  196MOL   H12939519   2.451   2.710   5.247  0.8716  1.8980  2.3168
  196MOL   H13039520   2.573   2.808   4.982 -0.5473 -1.4854 -0.6277
  196MOL   H13139521   2.534   2.650   5.029 -1.4290  1.0291 -0.8374
  196MOL   C13239522   2.713   2.724   5.133  0.3479  0.5264  0.1893
  196MOL   C13339523   2.819   2.672   5.039 -0.3121  0.7244 -0.7625
  196MOL   C13439524   2.893   2.560   5.055 -0.5043  0.6207  0.9209
  196MOL   C13539525   3.002   2.519   4.957  0.9788 -0.3704  0.2439
  196MOL   H13639526   2.746   2.823   5.166  1.0170 -0.1282  1.5275
  196MOL   H13739527   2.692   2.659   5.218  0.3027 -0.6941 -0.7615
  196MOL   H13839528   2.833   2.725   4.946 -1.5399  0.4062 -1.1404
  196MOL   H13939529   2.870   2.488   5.131  1.1273 -1.9196 -0.9131
  196MOL   H14039530   3.004   2.604   4.888 -1.7608 -1.9791 -1.9143
  196MOL   H14139531   2.978   2.444   4.881  0.2870  0.2521 -0.1611
  196MOL   C14239532   3.141   2.508   5.011  0.7408  0.0577  0.2754
  196MOL   C14339533   3.172   2.368   5.057 -0.3117 -0.0615 -0.3072
  196MOL   C14439534   3.269   2.289   5.021  0.0991 -0.0697  0.3864
  196MOL   C14539535   3.280   2.145   5.069 -0.1116  0.8023 -0.5052
  196MOL   H14639536   3.220   2.525   4.938  1.2357 -1.8457  0.3183
  196MOL   H14739537   3.161   2.571   5.098  1.2216 -1.5715  1.3774
  196MOL   H14839538   3.096   2.336   5.126  0.0779 -2.8514 -1.1196
  196MOL   H14939539   3.346   2.321   4.952  2.0850  1.6439  3.2928
  196MOL   H15039540   3.183   2.102   5.094  0.2164 -1.1319 -2.3654
  196MOL   H15139541   3.347   2.143   5.155 -0.1919  0.2769 -0.4527
  196MOL   C15239542   3.337   2.055   4.961  0.2595  0.1021 -0.6023
  196MOL   C15339543   3.367   1.916   5.017  0.4596  0.3239 -0.3456
  196MOL   C15439544   3.301   1.800   4.984  0.2980 -0.2892  0.0129
  196MOL   C15539545   3.333   1.672   5.053  0.0112  0.0970 -0.4304
  196MOL   H15639546   3.256   2.031   4.892  0.5716  0.0233 -0.9410
  196MOL   H15739547   3.417   2.102   4.905  0.1259  0.5633 -0.4044
  196MOL   H15839548   3.447   1.907   5.089 -0.1914 -0.6181  0.2850
  196MOL   H15939549   3.216   1.801   4.918 -0.5729 -0.0530  1.1227
  196MOL   H16039550   3.438   1.647   5.066  0.1482  1.6907  1.9422
  196MOL   H16139551   3.296   1.595   4.986  1.4062 -2.0964  1.2363
  196MOL   C16239552   3.277   1.661   5.194  0.1663  0.4759  0.4251
  196MOL   C16339553   3.306   1.524   5.252  0.0444  0.2850  0.6746
  196MOL   C16439554   3.356   1.507   5.377 -0.5675 -0.2042  0.4623
  196MOL   C16539555   3.365   1.371   5.441 -0.2993  0.2591 -0.0973
  196MOL   H16639556   3.333   1.739   5.246  1.7850  0.5470 -1.4114
  196MOL   H16739557   3.169   1.676   5.186 -0.1813 -1.8880  0.4143
  196MOL   H16839558   3.281   1.442   5.186 -0.2727  1.9340 -1.3121
  196MOL   H16939559   3.394   1.593   5.429 -3.5609  1.2059  0.4336
  196MOL   H17039560   3.301   1.306   5.381 -0.0696  0.7747 -0.9196
  196MOL   H17139561   3.337   1.375   5.546  0.4180  1.3611  0.0598
  196MOL   C17239562   3.505   1.320   5.430 -0.5639  0.2384 -0.3144
  196MOL   C17339563   3.511   1.179   5.482  0.4881  0.3151  0.4054
  196MOL   C17439564   3.583   1.129   5.584 -0.0026 -0.1723  0.1121
  196MOL   C17539565   3.584   0.985   5.628 -0.3067  0.0387 -0.2810
  196MOL   H17639566   3.547   1.309   5.330 -0.1254 -1.4902  0.0366
  196MOL   H17739567   3.562   1.396   5.484 -0.1646 -0.5600  0.4143
  196MOL   H17839568   3.448   1.112   5.424  1.0666 -1.9319  2.2829
  196MOL   H17939569   3.643   1.203   5.636 -0.2860 -0.9781  1.6365
  196MOL   H18039570   3.510   0.933   5.567 -0.1370 -0.0762 -0.3873
  196MOL   H18139571   3.550   0.980   5.732  1.0203 -2.9844  0.0630
  196MOL   C18239572   3.728   0.925   5.623 -0.7924 -0.2106 -0.4804
  196MOL   C18339573   3.780   0.905   5.481  0.5572  0.6805 -0.0941
  196MOL   C18439574   3.711   0.893   5.368 -0.2999 -0.2305  1.3288
  196MOL   C18539575   3.777   0.867   5.233 -0.6155  0.5210 -0.3649
  196MOL   H18639576   3.790   1.003   5.670 -0.0809 -0.8878 -0.2809
  196MOL   H18739577   3.744   0.828   5.669 -1.4430 -0.3366 -0.5286
  196MOL   H18839578   3.888   0.899   5.471  0.5754 -0.2828  0.6230
  196MOL   H18939579   3.603   0.893   5.361 -0.1586 -1.0212 -1.5214
  196MOL   H19039580   3.783   0.758   5.226 -1.2001  0.3740  1.2767
  196MOL   H19139581   3.881   0.898   5.241  0.1356 -1.1841 -2.9318
  196MOL   C19239582   3.706   0.930   5.111  0.5474  0.5899  0.2978
  196MOL   C19339583   3.781   0.928   4.978 -0.4596  0.0318  0.0159
  196MOL   C19439584   3.868   0.833   4.945 -1.0754 -0.2527  0.3923
  196MOL   C19539585   3.933   0.818   4.809 -0.1496 -0.5235  0.2110
  196MOL   H19639586   3.608   0.883   5.098  0.9465 -0.3088  0.5735
  196MOL   H19739587   3.685   1.035   5.134  0.1581  0.4622  0.5307
  196MOL   H19839588   3.747   1.003   4.908 -0.2037  0.9782  0.8908
  196MOL   H19939589   3.892   0.760   5.021  1.6669  1.8130  1.5867
  196MOL   H20039590   3.880   0.745   4.747 -2.2144  1.7949 -0.8480
  196MOL   H20139591   4.036   0.782   4.815  0.4924  0.8938 -1.6858
  196MOL   H20239592   3.935   0.914   4.757  2.2083 -0.0432  1.1344
  197MOL     C139593   0.957   1.128   0.279  0.1584 -0.5378 -0.0428
  197MOL     C239594   0.913   0.994   0.336 -0.0913 -0.0738 -0.1627
  197MOL     C339595   0.855   0.973   0.455  0.1940  0.1764 -0.8316
  197MOL     C439596   0.803   0.839   0.511 -0.5321  0.1558 -0.1386
  197MOL     H539597   0.871   1.157   0.218  1.4380 -1.6212 -2.4375
  197MOL     H639598   1.033   1.120   0.201  1.2112  1.9750  0.6547
  197MOL     H739599   0.934   0.910   0.272 -0.6892 -0.7559  0.5259
  197MOL     H839600   0.838   1.058   0.519  1.7461 -0.2048  0.1037
  197MOL     H939601   0.840   0.747   0.467  0.2945 -0.4442  1.7380
  197MOL    H1039602   0.694   0.838   0.504 -0.5257  0.1723 -0.2391
  197MOL    H1139603   0.986   1.204   0.351 -1.7683 -0.4063  0.6256
  197MOL    C1239604   0.845   0.826   0.653  0.4491  0.1031 -0.2788
  197MOL    C1339605   0.824   0.684   0.710  0.5518  0.6679  0.3302
  197MOL    C1439606   0.873   0.571   0.658 -0.7554 -0.7867 -0.1024
  197MOL    C1539607   0.835   0.434   0.715 -0.2830 -0.3187  0.1018
  197MOL    H1639608   0.946   0.862   0.671  0.6383 -0.6405  0.1483
  197MOL    H1739609   0.788   0.901   0.708  0.7020 -0.6597  1.0558
  197MOL    H1839610   0.784   0.670   0.809  1.0338  1.3734  0.6383
  197MOL    H1939611   0.923   0.580   0.563 -2.5200 -2.1158 -1.1877
  197MOL    H2039612   0.792   0.381   0.630 -2.5749  1.8170 -0.0969
  197MOL    H2139613   0.755   0.450   0.787  1.3851  0.4989  1.8118
  197MOL    C2239614   0.962   0.366   0.765 -0.4869 -0.3397 -0.1080
  197MOL    C2339615   0.922   0.234   0.831  0.5439 -0.3973  0.1882
  197MOL    C2439616   0.928   0.196   0.960  0.5524  0.1800 -0.1836
  197MOL    C2539617   0.893   0.054   1.006  0.5084  0.4329 -0.4475
  197MOL    H2639618   1.032   0.335   0.688  0.5461 -1.2013  1.1535
  197MOL    H2739619   1.011   0.432   0.836  0.9577  1.6890 -2.9217
  197MOL    H2839620   0.886   0.167   0.755 -0.6079 -0.7367  1.0146
  197MOL    H2939621   0.959   0.260   1.041 -1.8943 -1.0813  1.8136
  197MOL    H3039622   0.841   0.010   0.921 -0.3850  3.2556 -1.4230
  197MOL    H3139623   0.827   0.054   1.092 -0.6681 -0.5331 -1.3417
  197MOL    C3239624   1.020   7.959   1.042  0.0255  0.9896 -0.2469
  197MOL    C3339625   0.988   7.811   1.066 -0.6269 -0.4891 -0.0295
  197MOL    C3439626   0.998   7.722   0.965  0.7616 -0.5474  0.2085
  197MOL    C3539627   0.949   7.575   0.970  0.0051  0.1836  0.1119
  197MOL    H3639628   1.099   7.975   0.968 -1.1059 -0.3096 -1.7653
  197MOL    H3739629   1.065   0.025   1.132  0.2292 -1.8374  1.0508
  197MOL    H3839630   0.937   7.787   1.158 -1.2386 -1.2459 -0.5572
  197MOL    H3939631   1.040   7.754   0.870  0.9908  0.1258  0.5316
  197MOL    H4039632   0.921   7.545   1.071 -2.1834  0.3268 -0.4300
  197MOL    H4139633   1.031   7.508   0.943 -1.7151 -1.4019 -1.2521
  197MOL    C4239634   0.837   7.547   0.876 -0.0130  0.0450 -0.8892
  197MOL    C4339635   0.752   7.429   0.904 -0.4525 -0.5615 -0.1058
  197MOL    C4439636   0.674   7.427   1.014  0.3833  0.3598 -0.3509
  197MOL    C4539637   0.587   7.307   1.039  1.3390  0.2289 -0.9427
  197MOL    H4639638   0.775   7.636   0.882  0.7274  0.3922  2.1693
  197MOL    H4739639   0.873   7.547   0.773  0.2481 -1.7246 -0.8201
  197MOL    H4839640   0.758   7.355   0.826 -1.7281  0.5344 -1.2765
  197MOL    H4939641   0.660   7.520   1.067 -1.6413 -0.2290  0.1578
  197MOL    H5039642   0.592   7.284   1.145 -1.4767  1.2855 -0.5214
  197MOL    H5139643   0.629   7.219   0.991 -0.6187 -0.5741 -1.2340
  197MOL    C5239644   0.439   7.322   1.006  0.3548  0.6692 -0.1209
  197MOL    C5339645   0.403   7.359   0.864 -0.5254 -0.1543  1.0142
  197MOL    C5439646   0.304   7.437   0.814 -0.2836  1.1968  0.3913
  197MOL    C5539647   0.275   7.427   0.662 -0.1932 -0.0950 -0.3989
  197MOL    H5639648   0.379   7.239   1.042 -0.3559  1.6518  0.9694
  197MOL    H5739649   0.409   7.408   1.066  1.9911  2.1483 -1.3273
  197MOL    H5839650   0.455   7.302   0.789 -0.1958  1.2427  0.1521
  197MOL    H5939651   0.236   7.493   0.876 -1.0791  0.8018 -0.1180
  197MOL    H6039652   0.174   7.392   0.642  0.2908 -1.3840 -0.6266
  197MOL    H6139653   0.347   7.360   0.616  1.7512 -0.4182  2.9373
  197MOL    C6239654   0.286   7.565   0.591  0.0169 -0.6094  0.1278
  197MOL    C6339655   0.270   7.562   0.444  0.8631  0.3974 -0.0568
  197MOL    C6439656   0.176   7.640   0.379 -0.9575 -0.9453  0.5327
  197MOL    C6539657   0.180   7.664   0.223  0.0939 -1.0528  0.4159
  197MOL    H6639658   0.218   7.630   0.645 -1.4375 -1.2958 -0.8421
  197MOL    H6739659   0.383   7.612   0.607 -0.3091  1.1330 -2.5736
  197MOL    H6839660   0.338   7.497   0.391 -0.1296 -1.6886  1.1507
  197MOL    H6939661   0.108   7.697   0.441  0.1690  1.5457 -0.4578
  197MOL    H7039662   0.180   7.770   0.198  0.6969 -1.0021  0.6142
  197MOL    H7139663   0.092   7.619   0.176 -2.2127  3.1497  0.5147
  197MOL    C7239664   0.297   7.603   0.152 -0.2442 -0.5288 -0.5772
  197MOL    C7339665   0.298   7.627   0.003 -0.3615  0.0923  0.6133
  197MOL    C7439666   0.193   7.616   7.896  0.0679  0.3784 -0.1956
  197MOL    C7539667   0.183   7.657   7.749  0.6695 -0.4525  0.4667
  197MOL    H7639668   0.390   7.649   0.187 -0.4816 -0.4793  0.0038
  197MOL    H7739669   0.310   7.497   0.173 -1.3162 -0.9385 -1.9289
  197MOL    H7839670   0.388   7.667   7.937  0.0769  0.7308  2.0929
  197MOL    H7939671   0.099   7.578   7.932 -1.2661  2.6109 -1.2130
  197MOL    H8039672   0.119   7.744   7.735 -1.2106 -2.1437 -1.8648
  197MOL    H8139673   0.112   7.588   7.703  2.1909 -0.9948 -1.1184
  197MOL    C8239674   0.309   7.666   7.668 -0.2821 -0.1801 -0.0607
  197MOL    C8339675   0.380   7.528   7.670 -0.2143 -0.5196 -0.4151
  197MOL    C8439676   0.515   7.506   7.661  0.2886  0.6269  0.3230
  197MOL    C8539677   0.585   7.372   7.666 -0.2543 -0.3121 -0.0514
  197MOL    H8639678   0.282   7.689   7.565  2.2136  0.6071 -0.5595
  197MOL    H8739679   0.369   7.746   7.711 -1.4137 -0.2942  1.7927
  197MOL    H8839680   0.328   7.433   7.675  0.7874 -1.0576 -0.0841
  197MOL    H8939681   0.578   7.593   7.653  1.6668 -0.4588 -0.7630
  197MOL    H9039682   0.536   7.314   7.744  2.8040 -0.6650  1.6659
  197MOL    H9139683   0.689   7.389   7.692 -0.8303  2.3026  0.7358
  197MOL    C9239684   0.564   7.297   7.532  0.7586 -0.0429  0.0793
  197MOL    C9339685   0.606   7.148   7.523 -0.3786  0.5393 -0.0721
  197MOL    C9439686   0.653   7.073   7.628 -0.5724 -0.2887 -0.1545
  197MOL    C9539687   0.707   6.929   7.611 -0.3030  0.0124  0.5886
  197MOL    H9639688   0.461   7.291   7.497  1.0350 -1.0904 -0.5940
  197MOL    H9739689   0.629   7.351   7.463  0.7983 -0.4000 -0.1675
  197MOL    H9839690   0.602   7.100   7.426  1.1329  1.4979 -0.6256
  197MOL    H9939691   0.662   7.104   7.731  2.3567  0.5813 -0.6195
  197MOL   H10039692   0.692   6.896   7.508  0.0559  0.4207  0.4017
  197MOL   H10139693   0.640   6.869   7.672 -0.7447 -0.8327 -0.7157
  197MOL   C10239694   0.850   6.902   7.658 -0.1168  0.6186 -0.1868
  197MOL   C10339695   0.895   6.759   7.642 -0.1934  0.5764 -1.0404
  197MOL   C10439696   0.995   6.721   7.562  0.1838  0.6590  0.0307
  197MOL   C10539697   1.049   6.584   7.562 -0.0101  0.3120  0.9726
  197MOL   H10639698   0.926   6.959   7.603  0.5059 -1.2241 -1.2995
  197MOL   H10739699   0.850   6.943   7.759 -0.3447 -0.7750  0.3851
  197MOL   H10839700   0.840   6.686   7.701  0.6414  1.4257  0.8361
  197MOL   H10939701   1.055   6.791   7.506 -2.5242  1.2374 -2.2167
  197MOL   H11039702   1.016   6.548   7.465 -0.8882 -0.3553  1.5041
  197MOL   H11139703   1.001   6.531   7.645 -1.2707  1.9372  1.3128
  197MOL   C11239704   1.197   6.564   7.559  0.1468 -0.0994 -0.5845
  197MOL   C11339705   1.251   6.421   7.529  0.2810 -0.3682  0.1569
  197MOL   C11439706   1.316   6.351   7.619  0.0763  0.0530  0.7857
  197MOL   C11539707   1.361   6.214   7.610  0.0933  0.1954 -0.6476
  197MOL   H11639708   1.236   6.628   7.480  2.1752  0.8155  1.0973
  197MOL   H11739709   1.238   6.597   7.655 -0.3737  0.2630 -0.4878
  197MOL   H11839710   1.214   6.379   7.438 -1.3145  0.6672  0.3128
  197MOL   H11939711   1.339   6.395   7.715  2.7563  3.2940 -1.2717
  197MOL   H12039712   1.329   6.164   7.519 -0.7026 -0.1763 -0.1613
  197MOL   H12139713   1.325   6.158   7.696 -1.0458  0.2568 -1.0767
  197MOL   C12239714   1.512   6.206   7.626  0.2918 -0.7608  0.0167
  197MOL   C12339715   1.576   6.072   7.598 -0.0263 -0.1774  0.1623
  197MOL   C12439716   1.609   5.984   7.694 -0.4419  0.3792  0.6207
  197MOL   C12539717   1.675   5.852   7.664 -0.4154  0.0054  0.5073
  197MOL   H12639718   1.567   6.274   7.561 -3.0697  1.6722 -0.3907
  197MOL   H12739719   1.534   6.226   7.731 -2.5688 -0.7583  0.6550
  197MOL   H12839720   1.579   6.052   7.492 -0.9805 -1.1118  0.3016
  197MOL   H12939721   1.604   6.018   7.796  0.6176  0.5240  0.6296
  197MOL   H13039722   1.668   5.789   7.753  1.0585 -0.4493  0.3247
  197MOL   H13139723   1.780   5.869   7.640 -0.6898 -0.2792 -0.9140
  197MOL   C13239724   1.612   5.770   7.551 -0.3684  0.1159 -0.5738
  197MOL   C13339725   1.629   5.626   7.576  0.4576 -0.9517  0.2165
  197MOL   C13439726   1.700   5.546   7.499  0.5180  0.0566 -0.1429
  197MOL   C13539727   1.726   5.397   7.515  0.0336 -0.0128  0.2457
  197MOL   H13639728   1.504   5.784   7.545 -0.5935 -1.4245 -0.4116
  197MOL   H13739729   1.664   5.804   7.462  1.9475  3.5403  1.9521
  197MOL   H13839730   1.584   5.567   7.656  1.1345 -2.6271 -0.6059
  197MOL   H13939731   1.745   5.593   7.413  1.2273  0.1490  0.2805
  197MOL   H14039732   1.664   5.338   7.582 -0.8135 -0.9714 -1.3427
  197MOL   H14139733   1.826   5.397   7.558  0.1019  1.5469  0.1108
  197MOL   C14239734   1.707   5.318   7.388  0.5093  0.2989 -0.3578
  197MOL   C14339735   1.759   5.183   7.407  0.2641  0.6473  0.3040
  197MOL   C14439736   1.782   5.101   7.301 -0.1642  0.5219  0.5105
  197MOL   C14539737   1.831   4.954   7.311 -0.1564  0.9468  0.1417
  197MOL   H14639738   1.601   5.306   7.363  0.8667  0.2393 -1.9387
  197MOL   H14739739   1.760   5.359   7.302  2.1450 -2.7296 -0.8618
  197MOL   H14839740   1.786   5.141   7.503  0.9125 -0.7572 -0.4844
  197MOL   H14939741   1.756   5.131   7.200  1.6590  0.4783 -0.0021
  197MOL   H15039742   1.746   4.893   7.279 -0.0814 -0.5296  2.6761
  197MOL   H15139743   1.854   4.924   7.413  0.0943 -0.3306 -0.2821
  197MOL   C15239744   1.956   4.934   7.228 -0.2320  0.1873 -0.6095
  197MOL   C15339745   2.018   4.793   7.217 -0.1581 -0.0988 -0.8264
  197MOL   C15439746   1.975   4.687   7.285  0.1974  0.0198 -0.7244
  197MOL   C15539747   2.056   4.554   7.275  0.2208 -0.1215  0.1545
  197MOL   H15639748   1.965   4.965   7.124 -1.2335 -2.4477 -1.5423
  197MOL   H15739749   2.029   4.986   7.290  0.0694 -1.0976  0.1426
  197MOL   H15839750   2.093   4.782   7.140  0.1397 -0.9645 -0.4139
  197MOL   H15939751   1.902   4.684   7.365 -1.6254 -2.9382 -2.4108
  197MOL   H16039752   2.076   4.530   7.379 -0.7061  0.4259  0.4627
  197MOL   H16139753   2.154   4.572   7.230  0.3806 -1.5940 -0.1058
  197MOL   C16239754   1.976   4.447   7.211  0.6184  0.7822  0.1173
  197MOL   C16339755   2.056   4.325   7.208  0.3091 -0.1723  0.2252
  197MOL   C16439756   2.012   4.204   7.251  0.9242 -0.8682 -0.4326
  197MOL   C16539757   2.097   4.073   7.263 -0.0507 -0.8144 -0.4647
  197MOL   H16639758   1.882   4.430   7.262  0.7433 -1.8260 -0.4463
  197MOL   H16739759   1.968   4.479   7.107  2.3903  4.5037  1.0332
  197MOL   H16839760   2.159   4.336   7.177  0.8602 -1.8002  1.3940
  197MOL   H16939761   1.907   4.202   7.280  1.7950 -0.2080  3.0441
  197MOL   H17039762   2.031   3.987   7.279 -2.5052  0.6084 -2.6881
  197MOL   H17139763   2.159   4.078   7.353 -1.4671 -0.3292  0.5025
  197MOL   C17239764   2.195   4.042   7.142 -0.2705 -0.7459  0.8728
  197MOL   C17339765   2.230   3.893   7.137 -0.5103 -0.0656 -0.4829
  197MOL   C17439766   2.340   3.833   7.089  0.1569  0.6368  0.2331
  197MOL   C17539767   2.362   3.685   7.082 -0.0107  0.3115 -0.2040
  197MOL   H17639768   2.155   4.067   7.044 -0.9638  1.7752  1.7627
  197MOL   H17739769   2.287   4.100   7.155 -0.4306  0.0010 -1.1578
  197MOL   H17839770   2.154   3.826   7.175 -0.8068  0.3084 -0.4164
  197MOL   H17939771   2.421   3.895   7.051 -0.7122  1.9764  0.5212
  197MOL   H18039772   2.291   3.625   7.139 -1.1994  1.0162 -0.9168
  197MOL   H18139773   2.454   3.646   7.126 -0.4815  1.0492  1.5065
  197MOL   C18239774   2.356   3.639   6.940 -0.1950 -0.1081 -0.4860
  197MOL   C18339775   2.394   3.497   6.923 -0.5550  0.2618  0.4549
  197MOL   C18439776   2.467   3.449   6.819  0.4641  0.1720 -0.7380
  197MOL   C18539777   2.504   3.304   6.790 -0.0897 -0.1347  0.6749
  197MOL   H18639778   2.257   3.640   6.894 -0.1818 -0.9848 -0.5375
  197MOL   H18739779   2.420   3.701   6.877  0.3146 -0.3502 -0.2054
  197MOL   H18839780   2.349   3.432   6.996 -1.5928  0.8339  0.3315
  197MOL   H18939781   2.512   3.512   6.744  0.8854 -0.3981 -0.9702
  197MOL   H19039782   2.474   3.269   6.691  3.0734 -2.2773  0.3991
  197MOL   H19139783   2.466   3.227   6.857  0.2459 -1.4517 -0.6229
  197MOL   C19239784   2.658   3.276   6.785  0.1907 -0.1913 -0.0401
  197MOL   C19339785   2.702   3.135   6.833 -0.5199 -1.1869  0.4341
  197MOL   C19439786   2.831   3.088   6.816  0.7661 -0.1334 -0.2694
  197MOL   C19539787   2.875   2.970   6.891 -0.3324 -0.1880  0.4138
  197MOL   H19639788   2.683   3.303   6.682  2.5192 -0.6521  0.3756
  197MOL   H19739789   2.711   3.338   6.858  0.6571 -0.6724  0.0333
  197MOL   H19839790   2.630   3.087   6.898 -0.0752  0.2293  2.0188
  197MOL   H19939791   2.908   3.145   6.766  0.0208  1.4672  0.3748
  197MOL   H20039792   2.788   2.949   6.954 -1.4064  2.2270 -0.2176
  197MOL   H20139793   2.965   2.999   6.945  0.2177 -0.9462 -0.0732
  197MOL   H20239794   2.901   2.885   6.827 -1.1052 -0.2348  0.1585
  198MOL     C139795   5.153   3.830   5.948 -0.3147 -0.4448 -0.6305
  198MOL     C239796   5.207   3.703   5.890 -0.4975  0.6391  0.2174
  198MOL     C339797   5.165   3.654   5.771 -0.0633 -0.0688  0.3573
  198MOL     C439798   5.231   3.537   5.702 -0.4117  0.4971 -0.4353
  198MOL     H539799   5.160   3.912   5.878 -0.4205 -1.2522 -1.5998
  198MOL     H639800   5.201   3.856   6.042 -0.5042  0.4289 -0.7739
  198MOL     H739801   5.287   3.650   5.938 -0.5568 -1.3585 -1.7973
  198MOL     H839802   5.088   3.708   5.717 -0.3663  1.2955  2.1047
  198MOL     H939803   5.302   3.498   5.775 -1.2650  0.8033  0.5868
  198MOL    H1039804   5.297   3.567   5.621 -0.5538 -0.2759 -0.8422
  198MOL    H1139805   5.047   3.820   5.972 -0.1953 -0.0671  0.0726
  198MOL    C1239806   5.139   3.428   5.658  0.5643  0.0608 -0.0323
  198MOL    C1339807   5.212   3.329   5.579 -0.0762 -0.0399  0.4775
  198MOL    C1439808   5.167   3.280   5.459 -0.1056  0.5857 -0.1342
  198MOL    C1539809   5.238   3.185   5.364  0.5132 -0.5109  0.1877
  198MOL    H1639810   5.122   3.378   5.753  0.0829 -1.3671 -0.8491
  198MOL    H1739811   5.042   3.457   5.617  0.7611 -1.0460 -1.2970
  198MOL    H1839812   5.302   3.288   5.622 -1.9372 -1.9591  2.7006
  198MOL    H1939813   5.079   3.324   5.416 -0.8851  0.3412  1.1582
  198MOL    H2039814   5.300   3.245   5.297 -0.1865  0.4527  0.4021
  198MOL    H2139815   5.159   3.169   5.291  0.5648  0.3477 -0.0622
  198MOL    C2239816   5.306   3.061   5.432  0.2463  0.1287 -0.5600
  198MOL    C2339817   5.385   2.963   5.336 -0.4022  0.2358  0.5193
  198MOL    C2439818   5.417   2.998   5.208 -0.3434  0.0711 -0.0772
  198MOL    C2539819   5.475   2.903   5.111  0.0247 -0.5745  0.0788
  198MOL    H2639820   5.387   3.096   5.497 -1.8139  1.6743  1.2571
  198MOL    H2739821   5.238   3.005   5.496  0.9280  1.1530  1.1193
  198MOL    H2839822   5.427   2.875   5.383 -0.4099 -0.1218 -0.1400
  198MOL    H2939823   5.392   3.097   5.172 -2.1231 -0.5189 -0.5066
  198MOL    H3039824   5.407   2.910   5.026  0.9532  1.8203 -0.5077
  198MOL    H3139825   5.459   2.801   5.146 -2.2304 -0.3961 -0.3967
  198MOL    C3239826   5.623   2.942   5.076  0.5284  0.3734 -0.6240
  198MOL    C3339827   5.651   2.888   4.940  0.5830 -0.5940 -0.4141
  198MOL    C3439828   5.749   2.799   4.912  0.3513  0.0340 -0.0746
  198MOL    C3539829   5.762   2.728   4.777 -0.0833  0.1122 -0.0303
  198MOL    H3639830   5.625   3.051   5.071  1.2557  0.2613 -3.3214
  198MOL    H3739831   5.696   2.928   5.156  1.2002  1.1536 -1.0909
  198MOL    H3839832   5.574   2.906   4.866  0.0086 -1.3155  0.0031
  198MOL    H3939833   5.819   2.766   4.988  0.3070  1.0964  0.4262
  198MOL    H4039834   5.667   2.734   4.723 -0.1997 -0.7719  0.0666
  198MOL    H4139835   5.771   2.620   4.792  1.0762  0.1192 -0.6517
  198MOL    C4239836   5.868   2.792   4.683  0.5074 -0.8798  0.1337
  198MOL    C4339837   5.833   2.930   4.633  0.4249 -0.2502  0.3185
  198MOL    C4439838   5.776   2.948   4.516 -0.3024 -0.0835  0.7744
  198MOL    C4539839   5.754   3.081   4.456  1.1926 -0.0222  0.2107
  198MOL    H4639840   5.950   2.817   4.750  0.7501 -1.3319  0.0053
  198MOL    H4739841   5.903   2.721   4.608 -1.2948  0.3775 -1.9583
  198MOL    H4839842   5.858   3.009   4.702 -0.3139  0.2049  0.0670
  198MOL    H4939843   5.768   2.860   4.453 -0.1479  0.6173 -0.2423
  198MOL    H5039844   5.803   3.082   4.359 -0.5609 -0.8697 -0.7086
  198MOL    H5139845   5.802   3.163   4.509  0.6614 -1.7513  3.4991
  198MOL    C5239846   5.604   3.119   4.445 -0.6251  0.4659  0.9716
  198MOL    C5339847   5.572   3.220   4.552 -0.4209 -0.0389 -0.0768
  198MOL    C5439848   5.476   3.205   4.641  0.0553 -0.0081 -0.1741
  198MOL    C5539849   5.433   3.307   4.746  0.1520 -0.2899  0.0027
  198MOL    H5639850   5.595   3.161   4.345  3.2863 -1.0058 -0.0993
  198MOL    H5739851   5.536   3.036   4.431  0.7261 -0.0812 -2.8857
  198MOL    H5839852   5.624   3.314   4.540  0.3171 -0.3686  0.5179
  198MOL    H5939853   5.414   3.116   4.640  0.6019 -0.4044  0.5618
  198MOL    H6039854   5.334   3.346   4.725  0.4754  1.0652  0.9059
  198MOL    H6139855   5.502   3.391   4.737 -0.7560  0.2790 -1.8992
  198MOL    C6239856   5.434   3.238   4.889  0.2466  0.0362  1.2053
  198MOL    C6339857   5.354   3.320   4.990 -0.2597 -0.3399 -0.1899
  198MOL    C6439858   5.224   3.305   5.010  0.1717 -0.3240  0.3451
  198MOL    C6539859   5.145   3.391   5.107 -0.0640  0.6587  0.6149
  198MOL    H6639860   5.388   3.139   4.883  1.2522 -0.3078 -1.8258
  198MOL    H6739861   5.533   3.220   4.933  0.2973 -0.4573  0.8863
  198MOL    H6839862   5.413   3.393   5.044  2.4776 -1.1057 -2.0745
  198MOL    H6939863   5.164   3.230   4.960  0.1827  0.1578 -0.4068
  198MOL    H7039864   5.206   3.458   5.168  1.2976 -2.0570  2.3547
  198MOL    H7139865   5.079   3.338   5.176 -1.3987 -2.4251 -2.8931
  198MOL    C7239866   5.055   3.485   5.030  0.6246  0.4130 -0.2890
  198MOL    C7339867   4.921   3.417   4.994 -0.4332 -0.9250  0.4937
  198MOL    C7439868   4.803   3.469   4.997  0.3843 -0.8123  0.0003
  198MOL    C7539869   4.678   3.400   4.951  0.2132  0.9439 -0.2765
  198MOL    H7639870   5.031   3.578   5.081 -0.0434 -0.1647  0.4579
  198MOL    H7739871   5.109   3.518   4.941 -1.6382  0.6166 -1.6211
  198MOL    H7839872   4.924   3.316   4.955 -0.0105 -0.2694 -1.1971
  198MOL    H7939873   4.801   3.575   5.021  0.2140 -0.8845  0.3097
  198MOL    H8039874   4.588   3.433   5.004 -0.0732  2.6599 -1.7822
  198MOL    H8139875   4.685   3.291   4.954  0.8768  1.0088  1.2031
  198MOL    C8239876   4.661   3.426   4.808  0.0787  0.4534  0.1626
  198MOL    C8339877   4.524   3.383   4.753  0.5278 -0.2192 -0.5014
  198MOL    C8439878   4.503   3.288   4.654  0.3310 -0.0672 -0.1051
  198MOL    C8539879   4.370   3.281   4.580  0.0346  0.0595  0.0261
  198MOL    H8639880   4.671   3.530   4.775 -0.9759  0.5439  0.1120
  198MOL    H8739881   4.735   3.372   4.750 -0.4661 -1.0706  0.8807
  198MOL    H8839882   4.436   3.421   4.803  0.5370 -0.0884 -0.5849
  198MOL    H8939883   4.593   3.244   4.613 -0.3886  0.0728 -1.8784
  198MOL    H9039884   4.292   3.335   4.634  1.1606 -0.5535  2.3265
  198MOL    H9139885   4.339   3.177   4.591 -0.1279 -0.0753 -1.6186
  198MOL    C9239886   4.377   3.320   4.428  0.0762  0.3166  0.2917
  198MOL    C9339887   4.432   3.202   4.346  0.5440  0.0666  0.5091
  198MOL    C9439888   4.506   3.217   4.238  0.6798  0.0863  0.1672
  198MOL    C9539889   4.581   3.102   4.165  0.8715  0.2846  0.7417
  198MOL    H9639890   4.284   3.343   4.376 -0.5351 -0.2748  1.0987
  198MOL    H9739891   4.439   3.406   4.407  0.4867  0.2084  1.0548
  198MOL    H9839892   4.418   3.105   4.391  0.9631  0.5278  1.6746
  198MOL    H9939893   4.518   3.315   4.194 -0.8325  0.9871  1.6692
  198MOL   H10039894   4.554   3.007   4.212 -2.6209 -0.4083 -2.4150
  198MOL   H10139895   4.690   3.111   4.169  0.6724  3.4819 -0.0102
  198MOL   C10239896   4.544   3.087   4.016 -0.0648 -0.1155  0.2302
  198MOL   C10339897   4.572   2.947   3.953  0.1967  0.2158 -0.1683
  198MOL   C10439898   4.471   2.871   3.905  0.2183 -0.3481 -0.2039
  198MOL   C10539899   4.500   2.742   3.829 -0.1826  0.2249  0.3924
  198MOL   H10639900   4.438   3.113   4.017  0.5982  2.7260 -0.8239
  198MOL   H10739901   4.586   3.166   3.954  0.2641 -2.2010 -2.2999
  198MOL   H10839902   4.676   2.921   3.940 -0.4281 -1.7926 -1.3321
  198MOL   H10939903   4.369   2.906   3.897  1.1670  2.1708 -2.1296
  198MOL   H11039904   4.460   2.660   3.889  0.7186 -1.4168 -1.1755
  198MOL   H11139905   4.608   2.726   3.822 -0.2182 -0.0338  0.4247
  198MOL   C11239906   4.452   2.732   3.685  0.5124  0.7630  0.6446
  198MOL   C11339907   4.453   2.582   3.651 -0.3242 -0.1987 -0.0298
  198MOL   C11439908   4.553   2.520   3.586  0.8489 -0.2213  0.0563
  198MOL   C11539909   4.554   2.363   3.551  0.2254 -1.2640  0.6185
  198MOL   H11639910   4.352   2.772   3.671  0.4511  0.5184  0.3809
  198MOL   H11739911   4.505   2.794   3.612 -0.8182  0.9041 -0.2222
  198MOL   H11839912   4.369   2.524   3.685  0.2398 -1.8270 -1.3730
  198MOL   H11939913   4.628   2.582   3.540  0.4495  1.2752  1.3896
  198MOL   H12039914   4.582   2.374   3.446  0.6073 -1.1798  0.7281
  198MOL   H12139915   4.447   2.342   3.557  0.2141 -2.2874 -2.2057
  198MOL   C12239916   4.648   2.296   3.642 -0.3225 -0.6270 -0.0086
  198MOL   C12339917   4.661   2.146   3.632  0.0821 -0.1529  0.4560
  198MOL   C12439918   4.620   2.072   3.528 -0.1583  0.3563  0.2835
  198MOL   C12539919   4.643   1.924   3.528  0.3506  0.5690 -0.3258
  198MOL   H12639920   4.746   2.344   3.632 -0.1590 -0.8660  0.4205
  198MOL   H12739921   4.626   2.310   3.748 -0.4778  1.3841 -0.2963
  198MOL   H12839922   4.719   2.112   3.716  0.3232  1.1833  0.8462
  198MOL   H12939923   4.566   2.117   3.446  1.7427  0.1856 -1.1207
  198MOL   H13039924   4.732   1.906   3.590 -0.8015  1.4434  1.6102
  198MOL   H13139925   4.673   1.873   3.436 -1.5225  0.2513 -0.7743
  198MOL   C13239926   4.523   1.850   3.586 -0.0161  0.4717 -0.8434
  198MOL   C13339927   4.396   1.859   3.497 -0.1161  0.5889  0.0668
  198MOL   C13439928   4.339   1.743   3.450  0.1940 -0.1081 -0.3767
  198MOL   C13539929   4.230   1.743   3.350 -0.2732 -0.6003  0.5663
  198MOL   H13639930   4.554   1.748   3.606 -0.4692  0.5150  0.1393
  198MOL   H13739931   4.494   1.887   3.685  2.5439 -0.1342  0.1815
  198MOL   H13839932   4.372   1.962   3.474  0.3948  1.0014  1.3186
  198MOL   H13939933   4.378   1.645   3.475 -0.6473 -0.3261  0.0838
  198MOL   H14039934   4.217   1.843   3.306 -0.7308 -0.3198  1.3355
  198MOL   H14139935   4.133   1.711   3.389 -0.7127  0.0025 -0.0188
  198MOL   C14239936   4.265   1.649   3.234  0.3105 -0.2045 -0.2479
  198MOL   C14339937   4.142   1.637   3.147  0.1557 -0.1648 -0.0303
  198MOL   C14439938   4.070   1.526   3.118  0.3704  0.7159  0.0736
  198MOL   C14539939   3.954   1.531   3.017 -0.0787  0.8783 -0.5336
  198MOL   H14639940   4.336   1.699   3.168  3.3436 -3.4002  0.4492
  198MOL   H14739941   4.312   1.555   3.261 -0.2816 -0.1148  1.1646
  198MOL   H14839942   4.117   1.735   3.111 -1.4752 -0.5883 -0.0873
  198MOL   H14939943   4.099   1.429   3.156  1.1019  1.6204  1.8545
  198MOL   H15039944   3.973   1.457   2.939 -1.7674  0.6026 -0.7000
  198MOL   H15139945   3.951   1.624   2.961 -0.2427  1.4099  0.3470
  198MOL   C15239946   3.817   1.513   3.077  0.6426 -0.5614  0.1607
  198MOL   C15339947   3.788   1.372   3.113  0.0996  0.3621 -0.1941
  198MOL   C15439948   3.706   1.286   3.055  0.0989 -0.2980 -0.0260
  198MOL   C15539949   3.698   1.138   3.075 -0.8433 -0.5389 -0.2880
  198MOL   H15639950   3.795   1.568   3.168 -3.1198 -1.0974 -0.3735
  198MOL   H15739951   3.748   1.541   2.997  0.1629 -1.1532  0.3642
  198MOL   H15839952   3.848   1.330   3.192 -1.0667 -1.8495 -0.4514
  198MOL   H15939953   3.648   1.319   2.969  2.3212  1.4038 -0.9187
  198MOL   H16039954   3.773   1.120   3.152 -0.3848  0.3206 -0.5306
  198MOL   H16139955   3.735   1.081   2.989 -0.8946  0.6950 -1.1362
  198MOL   C16239956   3.563   1.079   3.128 -0.1976  0.1953  0.2261
  198MOL   C16339957   3.563   0.930   3.108  0.7111 -0.5178  0.0836
  198MOL   C16439958   3.537   0.848   3.207  0.6173  0.4426  0.0259
  198MOL   C16539959   3.543   0.694   3.191  0.2830  0.0741 -0.6796
  198MOL   H16639960   3.560   1.110   3.233  2.8733 -0.5226  0.5713
  198MOL   H16739961   3.475   1.122   3.081 -1.4448 -1.2769  1.1445
  198MOL   H16839962   3.593   0.902   3.008 -0.0265  1.9455 -0.8468
  198MOL   H16939963   3.519   0.882   3.308 -0.3190 -1.1323  0.4092
  198MOL   H17039964   3.599   0.688   3.097  2.0550  2.6618  0.1162
  198MOL   H17139965   3.442   0.658   3.175 -0.3396  0.9273  1.1441
  198MOL   C17239966   3.619   0.613   3.297 -0.1396 -0.6837  0.2686
  198MOL   C17339967   3.573   0.468   3.296 -1.0573 -0.0008 -0.3013
  198MOL   C17439968   3.512   0.399   3.394 -0.6346 -0.4789  0.2521
  198MOL   C17539969   3.478   0.252   3.378 -0.1627 -0.3703 -0.3454
  198MOL   H17639970   3.728   0.612   3.286 -0.0371 -2.4090  1.1782
  198MOL   H17739971   3.602   0.659   3.395 -1.1468 -1.1961  0.3359
  198MOL   H17839972   3.586   0.417   3.201  0.4102 -0.3597  0.0927
  198MOL   H17939973   3.497   0.443   3.491 -0.7027 -3.3957  1.6365
  198MOL   H18039974   3.552   0.207   3.444  0.7422  0.4908 -0.7496
  198MOL   H18139975   3.501   0.224   3.275  0.9365  1.2647 -0.5717
  198MOL   C18239976   3.330   0.226   3.403 -0.5639  0.6705 -0.3590
  198MOL   C18339977   3.254   0.240   3.277  0.5719  0.3134  0.6666
  198MOL   C18439978   3.164   0.148   3.230 -0.4502 -0.1222  0.5391
  198MOL   C18539979   3.074   0.163   3.103 -0.1522  0.4282 -0.7352
  198MOL   H18639980   3.309   0.127   3.444  0.8892 -0.0006 -1.2180
  198MOL   H18739981   3.299   0.304   3.473 -1.5757  0.0015 -0.0497
  198MOL   H18839982   3.257   0.337   3.230  1.8136 -1.1540 -2.4115
  198MOL   H18939983   3.164   0.053   3.283  1.6069 -0.3971  0.0877
  198MOL   H19039984   2.967   0.165   3.123 -0.1948 -0.4736 -0.8593
  198MOL   H19139985   3.088   0.066   3.055  0.7067  0.5655 -0.7613
  198MOL   C19239986   3.115   0.262   2.994  0.7500 -0.6065  0.3149
  198MOL   C19339987   3.257   0.241   2.953  0.3989 -0.4026 -0.5964
  198MOL   C19439988   3.353   0.336   2.966 -0.6866  0.4092  0.1504
  198MOL   C19539989   3.499   0.309   2.930  0.0255  0.3272 -0.2770
  198MOL   H19639990   3.057   0.255   2.902  2.0479 -1.5485 -0.4490
  198MOL   H19739991   3.110   0.364   3.031  3.0128 -0.7582  1.1345
  198MOL   H19839992   3.293   0.143   2.922 -0.1719 -0.7781 -0.0792
  198MOL   H19939993   3.340   0.439   2.995 -0.1354  0.5508 -0.0820
  198MOL   H20039994   3.517   0.365   2.838  3.9558  0.0041  0.2020
  198MOL   H20139995   3.526   0.204   2.920  0.1180  0.3326 -0.0783
  198MOL   H20239996   3.554   0.355   3.012 -0.6499  2.1546 -0.8072
  199MOL     C139997   7.046   0.608   7.213  0.2594  0.8161  0.2891
  199MOL     C239998   7.098   0.474   7.260  0.2093  0.0933  0.4860
  199MOL     C339999   7.216   0.444   7.314 -0.0963 -0.1666 -0.4942
  199MOL     C440000   7.268   0.305   7.336  0.0944  0.6132 -0.1050
  199MOL     H540001   7.027   0.614   7.106 -1.7068  2.0676  0.6942
  199MOL     H640002   7.111   0.696   7.219  1.6865 -0.1416 -0.7300
  199MOL     H740003   7.027   0.394   7.247  1.9346 -1.5098  0.7263
  199MOL     H840004   7.277   0.527   7.346 -0.4799 -0.0192 -0.1434
  199MOL     H940005   7.201   0.220   7.320 -0.3965  1.0635 -0.4570
  199MOL    H1040006   7.303   0.313   7.439  1.2577 -0.8730 -0.3684
  199MOL    H1140007   6.952   0.636   7.258 -0.2765 -0.4113 -0.0497
  199MOL    C1240008   7.390   0.289   7.256 -0.0052  0.3859 -0.0352
  199MOL    C1340009   7.380   0.297   7.103 -0.3741  0.6432 -0.3763
  199MOL    C1440010   7.279   0.234   7.034 -0.4964 -0.2946 -0.1475
  199MOL    C1540011   7.248   0.261   6.889 -0.2336 -0.5102 -0.0513
  199MOL    H1640012   7.463   0.367   7.276  0.3543 -0.1579  0.8279
  199MOL    H1740013   7.447   0.200   7.282 -0.0391  0.2237 -0.5261
  199MOL    H1840014   7.458   0.355   7.055 -0.7532 -0.3613 -2.2671
  199MOL    H1940015   7.198   0.182   7.083 -1.1692  1.5114  0.7037
  199MOL    H2040016   7.293   0.186   6.824 -2.6066 -1.5098 -0.5812
  199MOL    H2140017   7.298   0.355   6.868  1.1867 -1.3005 -0.2353
  199MOL    C2240018   7.097   0.274   6.854 -0.0940  0.1140  0.1240
  199MOL    C2340019   7.075   0.329   6.713  0.2487 -0.1992  0.6156
  199MOL    C2440020   6.973   0.277   6.642 -0.2830  0.2853  0.3338
  199MOL    C2540021   6.902   0.339   6.523  0.7402 -0.5069 -0.0882
  199MOL    H2640022   7.046   0.178   6.868 -0.6560  0.6746  2.0049
  199MOL    H2740023   7.039   0.332   6.925 -0.2016  0.5587 -0.3244
  199MOL    H2840024   7.110   0.424   6.677 -0.4917  0.6770  2.1421
  199MOL    H2940025   6.920   0.192   6.682  0.0025 -1.2352 -2.4229
  199MOL    H3040026   6.821   0.273   6.490  0.7306 -0.0216 -1.0425
  199MOL    H3140027   6.958   0.337   6.430 -1.8856 -2.4037 -1.7203
  199MOL    C3240028   6.828   0.470   6.558  0.0557 -0.2249  0.3745
  199MOL    C3340029   6.741   0.453   6.675 -0.2977 -0.1016  0.5413
  199MOL    C3440030   6.780   0.500   6.798 -0.6347 -0.1921  0.5606
  199MOL    C3540031   6.683   0.486   6.920  0.3002  0.2431 -0.2115
  199MOL    H3640032   6.893   0.556   6.574  0.0810 -0.5446  2.1121
  199MOL    H3740033   6.760   0.501   6.479 -1.3979  0.4222  1.8554
  199MOL    H3840034   6.643   0.411   6.661 -1.4756  2.1944  1.6210
  199MOL    H3940035   6.875   0.551   6.803  0.5527 -2.1206 -1.3556
  199MOL    H4040036   6.591   0.440   6.885  1.3123 -0.4478 -2.0416
  199MOL    H4140037   6.661   0.588   6.953  4.7778  0.7833  1.4898
  199MOL    C4240038   6.750   0.396   7.029  0.7720  0.4951 -0.0532
  199MOL    C4340039   6.762   0.252   6.988 -0.0718  0.2160 -0.0161
  199MOL    C4440040   6.726   0.140   7.056  0.2480 -0.2144 -0.0498
  199MOL    C4540041   6.756   7.975   7.023 -0.6405  0.4186  0.8725
  199MOL    H4640042   6.850   0.431   7.051  0.2515  1.4641  0.8125
  199MOL    H4740043   6.692   0.410   7.121  1.5835  2.4505  0.1776
  199MOL    H4840044   6.806   0.235   6.890  2.0356 -1.0639  1.1013
  199MOL    H4940045   6.680   0.156   7.152  0.2654 -4.7205  0.8438
  199MOL    H5040046   6.835   7.964   6.949 -1.7443 -1.8418 -0.0024
  199MOL    H5140047   6.667   7.940   6.972  0.1312 -0.0262 -0.1761
  199MOL    C5240048   6.787   7.887   7.146 -0.0467 -0.3064  0.1746
  199MOL    C5340049   6.930   7.907   7.201  0.1884 -0.4533  0.1529
  199MOL    C5440050   7.019   7.808   7.225 -0.6217  0.1953 -0.4834
  199MOL    C5540051   7.152   7.835   7.288 -0.1021 -0.8076  0.2403
  199MOL    H5640052   6.723   7.894   7.234 -0.5702 -1.6796 -0.0768
  199MOL    H5740053   6.779   7.781   7.119 -0.3843 -0.1868 -0.2009
  199MOL    H5840054   6.961   0.033   7.211  1.8511 -1.0174  0.8916
  199MOL    H5940055   6.997   7.703   7.214  2.5014 -0.3851 -1.7974
  199MOL    H6040056   7.150   7.939   7.321  0.0461 -0.9418  0.6805
  199MOL    H6140057   7.237   7.826   7.221 -0.3669 -1.8037  0.0338
  199MOL    C6240058   7.197   7.743   7.401 -0.2096 -0.1183 -0.2099
  199MOL    C6340059   7.198   7.599   7.351  0.1633  0.3240  0.2155
  199MOL    C6440060   7.166   7.493   7.433 -0.1102 -0.4299 -0.0288
  199MOL    C6540061   7.150   7.357   7.371  0.2148 -0.1815 -0.2928
  199MOL    H6640062   7.300   7.759   7.434 -0.4397  0.7801  0.0926
  199MOL    H6740063   7.127   7.746   7.485  0.2116  0.3702  0.1291
  199MOL    H6840064   7.227   7.575   7.250  0.6355  0.2981  0.3558
  199MOL    H6940065   7.149   7.510   7.538 -2.1387  1.1568 -0.5973
  199MOL    H7040066   7.156   7.347   7.262 -0.8099  0.9382 -0.4629
  199MOL    H7140067   7.048   7.328   7.392 -0.3391  0.2624 -2.2145
  199MOL    C7240068   7.238   7.251   7.433 -0.0832  0.1287  0.0559
  199MOL    C7340069   7.389   7.280   7.422 -0.6439  0.7459  0.1951
  199MOL    C7440070   7.474   7.196   7.363  0.5841 -0.1237 -0.3785
  199MOL    C7540071   7.621   7.228   7.347 -0.7245  0.0403  0.4912
  199MOL    H7640072   7.217   7.244   7.540  2.1511  0.6919  0.5655
  199MOL    H7740073   7.216   7.151   7.396  0.6785  0.1599 -0.4985
  199MOL    H7840074   7.428   7.374   7.459 -0.2309  0.0233  1.6523
  199MOL    H7940075   7.448   7.095   7.336 -0.5408 -0.4815  1.9670
  199MOL    H8040076   7.668   7.171   7.426 -1.3555 -2.7558 -1.0969
  199MOL    H8140077   7.642   7.333   7.368  1.7440 -0.5348  0.9929
  199MOL    C8240078   7.681   7.160   7.217 -0.5254 -0.3826  1.0040
  199MOL    C8340079   7.823   7.116   7.228  0.7590 -0.1586  0.0328
  199MOL    C8440080   7.865   6.989   7.253 -0.2161  0.5340  0.6920
  199MOL    C8540081   0.031   6.943   7.255 -0.2736  0.4392 -0.2208
  199MOL    H8640082   7.612   7.086   7.176  1.0809 -0.6455 -1.2750
  199MOL    H8740083   7.679   7.236   7.139 -1.0128 -1.4530 -0.0495
  199MOL    H8840084   7.898   7.194   7.217  0.6376 -0.1385 -0.6779
  199MOL    H8940085   7.790   6.911   7.256  0.8602 -0.5188  0.3991
  199MOL    H9040086   0.037   6.893   7.352 -0.5998  1.5074  0.3594
  199MOL    H9140087   0.098   7.029   7.263 -0.9031  0.8474  0.8508
  199MOL    C9240088   0.072   6.858   7.134  0.2568 -0.8987  0.0678
  199MOL    C9340089   0.213   6.804   7.147  0.8575 -0.6123 -0.2467
  199MOL    C9440090   0.312   6.829   7.060 -0.2357  0.5268  0.3772
  199MOL    C9540091   0.444   6.759   7.063 -1.0468  0.5595  0.0186
  199MOL    H9640092   7.972   6.783   7.114 -1.9020  1.7100 -1.7438
  199MOL    H9740093   0.066   6.910   7.039  0.3433  1.8881  1.5171
  199MOL    H9840094   0.229   6.737   7.230 -0.2289 -1.8702 -1.0389
  199MOL    H9940095   0.303   6.900   6.979  1.6032  1.1092  0.6622
  199MOL   H10040096   0.448   6.693   7.150  0.3410 -0.0837 -0.5163
  199MOL   H10140097   0.524   6.830   7.084 -0.6614  0.2835 -0.4916
  199MOL   C10240098   0.468   6.686   6.932 -0.3348 -0.7268  0.0829
  199MOL   C10340099   0.587   6.595   6.929  0.1644  0.3747  0.3080
  199MOL   C10440100   0.587   6.461   6.916  0.4414 -0.3806 -0.4347
  199MOL   C10540101   0.714   6.385   6.912 -1.2839  0.2289  0.4700
  199MOL   H10640102   0.383   6.622   6.908 -0.7120 -0.3931  0.5384
  199MOL   H10740103   0.477   6.762   6.854 -1.8832 -2.2518 -1.6197
  199MOL   H10840104   0.678   6.651   6.939  0.5953 -0.3910  0.7048
  199MOL   H10940105   0.497   6.403   6.901  0.1180 -0.7024  2.6165
  199MOL   H11040106   0.691   6.290   6.960 -0.7867 -0.6764 -1.0262
  199MOL   H11140107   0.791   6.430   6.974 -1.7947  0.7441  0.7383
  199MOL   C11240108   0.767   6.363   6.766  0.2315  0.3521 -0.3207
  199MOL   C11340109   0.907   6.301   6.777  0.0928 -0.4054  0.3924
  199MOL   C11440110   0.942   6.194   6.703  0.8776 -0.5262  0.6084
  199MOL   C11540111   1.077   6.132   6.702  0.4080  0.4257  0.6156
  199MOL   H11640112   0.696   6.300   6.712  0.6773  1.0633 -1.7656
  199MOL   H11740113   0.775   6.457   6.711  0.6753 -0.3908 -1.5299
  199MOL   H11840114   0.977   6.355   6.838 -1.7134  0.1394  2.0461
  199MOL   H11940115   0.873   6.149   6.632  2.6701 -1.6110 -0.4876
  199MOL   H12040116   1.109   6.134   6.598 -0.0658  2.6444  0.5042
  199MOL   H12140117   1.065   6.028   6.733  0.9088 -0.1320 -0.9849
  199MOL   C12240118   1.175   6.190   6.814 -0.4086 -0.6475 -0.2168
  199MOL   C12340119   1.321   6.138   6.806  0.1758  0.3406 -0.4791
  199MOL   C12440120   1.415   6.192   6.725 -0.1220 -0.8212 -0.0963
  199MOL   C12540121   1.564   6.142   6.721  0.1013 -0.1488 -0.6454
  199MOL   H12640122   1.184   6.299   6.815  0.2959 -0.7074  0.6615
  199MOL   H12740123   1.129   6.167   6.910 -0.8838 -2.0627 -0.7745
  199MOL   H12840124   1.345   6.050   6.863  3.3176  0.7491 -1.1020
  199MOL   H12940125   1.396   6.281   6.668  0.6247 -0.9845 -0.6195
  199MOL   H13040126   1.610   6.200   6.801 -0.6157  1.2726 -1.2450
  199MOL   H13140127   1.615   6.190   6.638  3.4741 -1.7957  0.3578
  199MOL   C13240128   1.579   5.982   6.736  0.5584  0.2049  0.1639
  199MOL   C13340129   1.722   5.940   6.717  0.0010  0.1198 -0.0157
  199MOL   C13440130   1.769   5.817   6.750  0.0000  0.2998  0.7240
  199MOL   C13540131   1.907   5.763   6.726  0.1323 -0.2705 -0.5888
  199MOL   H13640132   1.540   5.950   6.833  0.0123 -1.6193 -0.6327
  199MOL   H13740133   1.517   5.926   6.666 -0.1171 -1.4382  2.0400
  199MOL   H13840134   1.795   5.999   6.664  0.8013  0.9721  1.9868
  199MOL   H13940135   1.704   5.746   6.799  1.1354 -0.2694  1.4435
  199MOL   H14040136   1.958   5.730   6.817  0.9776  1.0832 -0.5642
  199MOL   H14140137   1.975   5.843   6.699  0.1505 -0.7345 -1.9705
  199MOL   C14240138   1.904   5.645   6.637 -0.6558  0.3186  0.2766
  199MOL   C14340139   2.046   5.607   6.600 -0.3422  0.3465 -0.4647
  199MOL   C14440140   2.103   5.483   6.602 -0.6900 -0.4223  0.5810
  199MOL   C14540141   2.242   5.465   6.555  0.3112 -0.1441  0.0747
  199MOL   H14640142   1.853   5.566   6.691  2.7141 -0.0619  3.0914
  199MOL   H14740143   1.849   5.651   6.543 -0.7628 -2.8798  0.0778
  199MOL   H14840144   2.101   5.686   6.549  1.9087 -0.4983  0.6065
  199MOL   H14940145   2.056   5.391   6.631 -0.4015 -1.2597 -1.5405
  199MOL   H15040146   2.307   5.430   6.635 -0.5743 -2.0486 -0.0265
  199MOL   H15140147   2.277   5.561   6.517 -4.0195  1.8345  0.8494
  199MOL   C15240148   2.249   5.357   6.449  0.1032  0.3773  0.5700
  199MOL   C15340149   2.389   5.344   6.383 -0.3348 -0.3464 -0.3413
  199MOL   C15440150   2.412   5.403   6.263  0.6781  0.7106  0.9775
  199MOL   C15540151   2.548   5.424   6.207 -0.5935  0.0234 -0.0679
  199MOL   H15640152   2.227   5.265   6.503  0.4074 -0.2442 -0.3506
  199MOL   H15740153   2.175   5.378   6.372  1.9455  0.5225 -1.1895
  199MOL   H15840154   2.471   5.307   6.443 -0.7255 -0.5505  0.0708
  199MOL   H15940155   2.338   5.441   6.194  1.4139 -1.0819 -0.8478
  199MOL   H16040156   2.619   5.402   6.287  0.4607  0.7195 -0.7987
  199MOL   H16140157   2.568   5.529   6.184  2.7937 -0.5615 -0.1471
  199MOL   C16240158   2.571   5.327   6.090 -0.4934 -0.0783  0.2286
  199MOL   C16340159   2.481   5.347   5.966 -0.0538 -0.5568  0.6811
  199MOL   C16440160   2.527   5.375   5.842  0.2657 -0.5348  0.1625
  199MOL   C16540161   2.435   5.394   5.721 -0.4636 -0.2016  0.0211
  199MOL   H16640162   2.675   5.310   6.061 -0.4872 -1.5651  1.0640
  199MOL   H16740163   2.554   5.229   6.136 -1.0874  0.6546  1.5882
  199MOL   H16840164   2.374   5.346   5.980 -0.0266  1.2706  1.1704
  199MOL   H16940165   2.632   5.378   5.817  0.2219 -1.1132 -0.0864
  199MOL   H17040166   2.335   5.377   5.762 -0.4158  0.3502  0.3615
  199MOL   H17140167   2.458   5.315   5.649 -2.7321 -0.1512 -0.8010
  199MOL   C17240168   2.440   5.538   5.664 -0.3208 -0.1326  0.3182
  199MOL   C17340169   2.359   5.533   5.526  0.0191 -0.3645  0.2050
  199MOL   C17440170   2.419   5.538   5.408 -0.0724  0.0057 -0.0321
  199MOL   C17540171   2.341   5.549   5.278 -0.7414 -0.2780 -0.3165
  199MOL   H17640172   2.392   5.613   5.727 -1.3022 -1.2385  0.9132
  199MOL   H17740173   2.544   5.570   5.660  0.4558 -2.5030  0.7200
  199MOL   H17840174   2.252   5.514   5.528  0.2199 -1.5040  0.4103
  199MOL   H17940175   2.526   5.544   5.398 -0.3309  1.5367 -2.4744
  199MOL   H18040176   2.245   5.500   5.263 -2.3715  2.6240  0.4179
  199MOL   H18140177   2.401   5.499   5.200  0.8349 -0.0194  0.7096
  199MOL   C18240178   2.328   5.688   5.215 -0.1299 -0.3283 -0.0705
  199MOL   C18340179   2.314   5.798   5.314  0.9549  0.4986 -0.1570
  199MOL   C18440180   2.220   5.894   5.303 -0.9540  0.0453  0.2282
  199MOL   C18540181   2.197   6.002   5.407  0.0680 -0.0092  0.2788
  199MOL   H18640182   2.408   5.709   5.144  0.3230 -1.5587  0.0502
  199MOL   H18740183   2.235   5.679   5.158  0.0994  0.4615 -0.5791
  199MOL   H18840184   2.374   5.794   5.404 -0.1148 -1.4403  0.5111
  199MOL   H18940185   2.155   5.887   5.217  0.9687 -2.3618 -1.0618
  199MOL   H19040186   2.246   6.090   5.366 -1.8750  0.6054 -0.7503
  199MOL   H19140187   2.245   5.961   5.497  1.3601 -4.1459 -2.1651
  199MOL   C19240188   2.047   6.026   5.419 -0.3656 -0.0875 -0.5110
  199MOL   C19340189   1.977   6.052   5.296  0.0285 -0.3010  0.1512
  199MOL   C19440190   1.883   5.969   5.248  0.2346 -0.1319 -0.2374
  199MOL   C19540191   1.799   5.989   5.122 -0.1284  0.0784 -0.9062
  199MOL   H19640192   1.998   5.951   5.481 -2.8089  0.7770 -1.3273
  199MOL   H19740193   2.022   6.115   5.476 -0.1770 -0.0405 -0.5019
  199MOL   H19840194   1.989   6.152   5.256 -0.8466  0.5210  1.9009
  199MOL   H19940195   1.878   5.877   5.305  5.4460  0.3611  1.2477
  199MOL   H20040196   1.693   5.979   5.144  0.2436 -0.4191  0.7751
  199MOL   H20140197   1.831   5.916   5.048  2.2950  2.8567 -2.7342
  199MOL   H20240198   1.816   6.092   5.091  0.4739 -0.4686 -2.4292
  200MOL     C140199   4.223   2.608   5.657  0.1462 -0.4152 -0.0085
  200MOL     C240200   4.258   2.750   5.638 -0.1699 -0.5703 -0.4416
  200MOL     C340201   4.280   2.834   5.739 -0.0383  0.8185 -0.4233
  200MOL     C440202   4.345   2.971   5.722  0.5613  0.2188  0.4110
  200MOL     H540203   4.154   2.585   5.576 -1.3201 -0.0773  1.1342
  200MOL     H640204   4.171   2.592   5.751 -1.0810 -3.2969 -1.0927
  200MOL     H740205   4.286   2.779   5.538 -0.1198  2.4584  0.4009
  200MOL     H840206   4.260   2.811   5.843  1.8968  0.2484 -0.1656
  200MOL     H940207   4.389   2.990   5.624 -1.0934 -0.8106 -0.5558
  200MOL    H1040208   4.428   2.970   5.793  1.1966  0.1071 -0.3194
  200MOL    H1140209   4.310   2.543   5.653  0.3872 -0.3196  2.7351
  200MOL    C1240210   4.242   3.082   5.766 -0.5792  0.1416 -0.2365
  200MOL    C1340211   4.317   3.219   5.785  0.1736  0.6243 -0.3204
  200MOL    C1440212   4.301   3.321   5.702 -0.3666 -0.2206 -0.0771
  200MOL    C1540213   4.357   3.461   5.710  0.0740  0.6540  0.0290
  200MOL    H1640214   4.173   3.086   5.682  1.6688  4.1998 -2.0208
  200MOL    H1740215   4.203   3.048   5.862 -2.6030 -1.5142 -1.6106
  200MOL    H1840216   4.372   3.232   5.877  0.7403  0.1253 -0.5833
  200MOL    H1940217   4.248   3.294   5.612 -1.6319 -0.3216  0.6732
  200MOL    H2040218   4.453   3.456   5.658  0.2918 -2.5885  0.6858
  200MOL    H2140219   4.371   3.494   5.813 -0.5010  0.5509  0.1383
  200MOL    C2240220   4.266   3.569   5.646 -0.0500  0.3623  0.2787
  200MOL    C2340221   4.340   3.701   5.634  0.1078 -0.0096 -0.4512
  200MOL    C2440222   4.280   3.821   5.661 -0.2469  0.0989  0.0221
  200MOL    C2540223   4.350   3.953   5.665 -0.6917 -0.6439  0.4390
  200MOL    H2640224   4.250   3.534   5.544  0.7827 -1.8330  0.8762
  200MOL    H2740225   4.173   3.567   5.703 -0.6804  0.2312 -0.7215
  200MOL    H2840226   4.443   3.692   5.605 -0.2868 -3.3402 -1.0149
  200MOL    H2940227   4.181   3.828   5.705  1.3576 -1.2416  4.1080
  200MOL    H3040228   4.288   4.035   5.627  0.4664  0.5645  1.1044
  200MOL    H3140229   4.427   3.958   5.587 -2.2485  1.6804 -1.0504
  200MOL    C3240230   4.411   4.001   5.802  0.1679  0.1518  0.1227
  200MOL    C3340231   4.447   4.145   5.785 -0.0162 -0.3550  0.0966
  200MOL    C3440232   4.436   4.242   5.873  0.6132 -0.8537 -0.1810
  200MOL    C3540233   4.485   4.382   5.857  0.6054 -0.0178 -0.1239
  200MOL    H3640234   4.343   3.990   5.886  1.7717  1.6957  1.6767
  200MOL    H3740235   4.503   3.946   5.822 -0.9760 -1.3922  1.2633
  200MOL    H3840236   4.497   4.168   5.692 -0.1996  0.3202  0.1661
  200MOL    H3940237   4.392   4.226   5.971  0.6144 -1.2123 -0.2388
  200MOL    H4040238   4.503   4.398   5.751  1.3403 -1.7305 -0.2812
  200MOL    H4140239   4.579   4.391   5.912  0.1136  0.3438  0.6729
  200MOL    C4240240   4.395   4.489   5.921 -0.2382  0.1872 -0.2628
  200MOL    C4340241   4.391   4.501   6.072 -0.5723  0.0822 -1.1911
  200MOL    C4440242   4.283   4.471   6.143  0.0756  0.8833 -0.7738
  200MOL    C4540243   4.263   4.481   6.292 -0.1085 -0.1169  0.0700
  200MOL    H4640244   4.443   4.585   5.899 -2.0664  1.0548 -0.5606
  200MOL    H4740245   4.296   4.487   5.875 -0.1868 -0.0341 -0.3632
  200MOL    H4840246   4.477   4.546   6.117 -1.6878  2.3822 -1.2955
  200MOL    H4940247   4.194   4.424   6.101  0.3926 -0.1680 -0.2892
  200MOL    H5040248   4.162   4.521   6.303  0.0331 -0.1628  1.6055
  200MOL    H5140249   4.341   4.544   6.333  0.9368 -0.8431 -0.7675
  200MOL    C5240250   4.239   4.339   6.366 -0.4033 -0.2298 -0.0541
  200MOL    C5340251   4.220   4.341   6.520 -0.0191  0.2589 -0.1124
  200MOL    C5440252   4.133   4.264   6.589 -0.3107  0.0251 -0.3362
  200MOL    C5540253   4.118   4.256   6.738 -0.2167 -0.4962 -0.3126
  200MOL    H5640254   4.161   4.281   6.317 -0.2582  0.7578 -1.4745
  200MOL    H5740255   4.333   4.285   6.350 -0.7147 -2.1534  4.1078
  200MOL    H5840256   4.284   4.404   6.580 -0.2934  0.2938  0.1471
  200MOL    H5940257   4.072   4.194   6.535 -0.4464 -1.1486  1.2806
  200MOL    H6040258   4.012   4.279   6.748 -0.6718 -1.2273 -3.0850
  200MOL    H6140259   4.160   4.333   6.802 -4.2606  1.1168  0.5882
  200MOL    C6240260   4.149   4.112   6.793  0.3753 -0.0724  0.5587
  200MOL    C6340261   4.133   4.105   6.940  0.1603 -0.3263 -0.3602
  200MOL    C6440262   4.233   4.102   7.029 -0.0069 -0.3097  0.1861
  200MOL    C6540263   4.210   4.110   7.179 -0.2118  0.8067 -0.5551
  200MOL    H6640264   4.097   4.034   6.737 -0.4916 -0.8859  2.4773
  200MOL    H6740265   4.252   4.077   6.780  0.0028 -0.8809 -0.2695
  200MOL    H6840266   4.033   4.088   6.976  0.4967 -2.5050 -0.3684
  200MOL    H6940267   4.333   4.120   6.990  0.0120 -0.9622 -0.0607
  200MOL    H7040268   4.105   4.106   7.208  0.0591  2.8429  0.8268
  200MOL    H7140269   4.246   4.207   7.212 -2.7161  2.2501 -1.9301
  200MOL    C7240270   4.298   4.007   7.256 -0.2660  0.2656 -0.4435
  200MOL    C7340271   4.267   4.007   7.410  0.9364 -0.4449 -0.1747
  200MOL    C7440272   4.223   3.901   7.475 -0.3196 -0.1755  0.1113
  200MOL    C7540273   4.217   3.896   7.625  0.6895  1.0412 -0.0630
  200MOL    H7640274   4.294   3.908   7.211 -0.8494 -0.3493  0.9444
  200MOL    H7740275   4.404   4.031   7.256  0.3811 -2.4033  0.8499
  200MOL    H7840276   4.304   4.096   7.459 -1.8929 -0.1529  1.5264
  200MOL    H7940277   4.195   3.815   7.416  0.4298 -0.2668 -0.1027
  200MOL    H8040278   4.123   3.846   7.647  1.1680 -0.2619 -0.9297
  200MOL    H8140279   4.221   3.996   7.667  0.9787  0.7832  0.5211
  200MOL    C8240280   4.335   3.814   7.677 -0.1196 -0.2269 -0.4606
  200MOL    C8340281   4.319   3.794   7.824 -0.4047  0.6108 -0.5386
  200MOL    C8440282   4.304   3.674   7.886  0.0839  0.1347  0.0796
  200MOL    C8540283   4.281   3.662   0.057  0.2695 -0.1358 -0.9359
  200MOL    H8640284   4.331   3.721   7.619  0.8826  0.5150 -1.7434
  200MOL    H8740285   4.430   3.865   7.663 -0.9022  1.2668 -0.3566
  200MOL    H8840286   4.322   3.882   7.887 -0.6817  0.2085  0.0366
  200MOL    H8940287   4.294   3.579   7.835 -1.6457 -1.2579  2.9111
  200MOL    H9040288   4.344   3.737   0.104  0.8454 -1.9142  1.1839
  200MOL    H9140289   4.314   3.565   0.094 -2.7710 -0.8873 -0.0604
  200MOL    C9240290   4.133   3.668   0.100  0.5130 -0.1936  0.1018
  200MOL    C9340291   4.122   3.643   0.246 -0.8080 -0.3487  0.2642
  200MOL    C9440292   4.014   3.587   0.299  0.4985 -0.3594  0.6106
  200MOL    C9540293   3.991   3.556   0.444 -0.0773 -0.2592  0.4045
  200MOL    H9640294   4.070   3.755   0.084  1.0135  0.0524 -0.5218
  200MOL    H9740295   4.097   3.585   0.039 -0.8579  2.3459 -2.6811
  200MOL    H9840296   4.191   3.684   0.318 -1.3635 -2.4535  2.0412
  200MOL    H9940297   3.942   3.554   0.225  2.2101 -1.3377 -0.6610
  200MOL   H10040298   4.082   3.588   0.496 -0.6826  1.1964  0.6017
  200MOL   H10140299   3.993   3.447   0.447  1.0418 -0.2525  0.4013
  200MOL   C10240300   3.870   3.626   0.504  0.1804 -0.5162  0.5188
  200MOL   C10340301   3.846   3.627   0.653 -0.4160 -0.4357 -0.2567
  200MOL   C10440302   3.729   3.594   0.710  0.3070 -0.5695 -1.1985
  200MOL   C10540303   3.705   3.599   0.862  0.2839  0.5062 -0.2616
  200MOL   H10640304   3.869   3.731   0.474 -1.0315 -0.6174  0.1608
  200MOL   H10740305   3.778   3.591   0.456  1.2826  0.8510 -2.7613
  200MOL   H10840306   3.935   3.655   0.707 -1.0969  0.7308  0.2855
  200MOL   H10940307   3.643   3.577   0.647 -0.4047  2.0810 -1.0089
  200MOL   H11040308   3.662   3.693   0.896  0.9882  0.9154 -0.4839
  200MOL   H11140309   3.800   3.616   0.914  0.0588 -1.6644  0.9118
  200MOL   C11240310   3.625   3.479   0.916  0.4165  0.1983  0.6748
  200MOL   C11340311   3.707   3.355   0.920 -0.1861 -0.1462 -0.1333
  200MOL   C11440312   3.778   3.302   1.024 -0.0131  0.0455  0.3018
  200MOL   C11540313   3.861   3.175   1.009 -0.2922 -0.2891 -0.3020
  200MOL   H11640314   3.606   3.509   1.019 -1.4832 -0.7477  0.6199
  200MOL   H11740315   3.528   3.469   0.866  0.8375 -1.1619  0.1006
  200MOL   H11840316   3.713   3.296   0.830 -0.6467 -1.3858  0.6287
  200MOL   H11940317   3.772   3.358   1.116  0.3604  2.4514 -1.0956
  200MOL   H12040318   3.958   3.194   1.055 -0.2904  0.3762 -0.5691
  200MOL   H12140319   3.879   3.153   0.904  0.8330  0.2540 -0.2308
  200MOL   C12240320   3.802   3.054   1.078 -0.2587  0.4123  0.4600
  200MOL   C12340321   3.881   2.927   1.053  0.0236 -0.0941 -0.2710
  200MOL   C12440322   3.876   2.851   0.944  0.0713  0.3530 -0.2005
  200MOL   C12540323   3.956   2.726   0.936 -0.3906 -0.6086  0.1861
  200MOL   H12640324   3.816   3.072   1.185 -1.5728  1.9051  0.3996
  200MOL   H12740325   3.693   3.056   1.071 -0.1866  0.7021 -0.6894
  200MOL   H12840326   3.945   2.898   1.134  0.3754  1.4387  0.0204
  200MOL   H12940327   3.807   2.866   0.862  0.9504  0.7160 -0.8812
  200MOL   H13040328   3.964   2.707   0.829  0.4010 -0.0631  0.1449
  200MOL   H13140329   3.897   2.643   0.976 -0.7893 -0.2133  0.4182
  200MOL   C13240330   4.087   2.721   1.019 -0.0561 -0.1318  0.0842
  200MOL   C13340331   4.177   2.592   1.001  0.2108  0.1766 -0.3464
  200MOL   C13440332   4.133   2.475   0.958 -0.2702  0.0551 -0.8509
  200MOL   C13540333   4.212   2.353   0.982 -0.2579  0.4399 -0.3616
  200MOL   H13640334   4.159   2.800   1.000 -0.4191  0.0261 -0.6267
  200MOL   H13740335   4.074   2.719   1.128  1.7010  0.9785  0.3351
  200MOL   H13840336   4.277   2.598   1.041 -0.1376  0.0420  0.5678
  200MOL   H13940337   4.026   2.467   0.955 -0.2288 -0.6317 -0.6356
  200MOL   H14040338   4.142   2.272   1.003  2.0909 -1.4767  0.4595
  200MOL   H14140339   4.280   2.361   1.068  2.1404  1.7273 -2.2963
  200MOL   C14240340   4.278   2.303   0.851 -0.6139 -0.4424 -1.3264
  200MOL   C14340341   4.346   2.166   0.875  0.5357  0.2465 -0.2532
  200MOL   C14440342   4.321   2.052   0.805  0.4047  0.2773  0.2462
  200MOL   C14540343   4.369   1.917   0.836 -0.0033  0.5599  0.3478
  200MOL   H14640344   4.193   2.287   0.784 -2.7708 -0.0874  1.2340
  200MOL   H14740345   4.352   2.375   0.814 -0.7323  1.3338  1.7612
  200MOL   H14840346   4.419   2.162   0.954  1.9697 -1.8807 -1.6436
  200MOL   H14940347   4.247   2.048   0.726 -0.2831  0.0932  0.8980
  200MOL   H15040348   4.449   1.931   0.908 -0.3711 -1.5281  1.2184
  200MOL   H15140349   4.422   1.871   0.753 -0.2018  1.1747 -0.1177
  200MOL   C15240350   4.254   1.824   0.887  0.1547 -0.2704  0.7175
  200MOL   C15340351   4.302   1.689   0.935  0.2672  0.6058 -0.3838
  200MOL   C15440352   4.299   1.638   1.064  0.2364  0.5303  0.1988
  200MOL   C15540353   4.372   1.510   1.098 -0.7833 -0.5409 -0.1761
  200MOL   H15640354   4.200   1.871   0.970  0.1223 -1.2217  1.2419
  200MOL   H15740355   4.176   1.805   0.814  1.9015 -0.0230 -1.2555
  200MOL   H15840356   4.351   1.623   0.866 -0.2785 -0.5581  0.3327
  200MOL   H15940357   4.275   1.706   1.145  1.0410  2.6830 -1.3043
  200MOL   H16040358   4.478   1.532   1.108 -1.4774  3.3504 -0.2361
  200MOL   H16140359   4.362   1.438   1.017 -1.5971 -0.1519 -0.4330
  200MOL   C16240360   4.308   1.440   1.214 -0.1643 -0.2865 -0.3670
  200MOL   C16340361   4.384   1.321   1.270 -0.0708 -0.3826 -0.3919
  200MOL   C16440362   4.464   1.238   1.203  0.2322 -0.9220  0.5323
  200MOL   C16540363   4.525   1.114   1.250  0.2571 -0.1090 -0.0130
  200MOL   H16640364   4.283   1.512   1.292 -1.8722  0.4432 -1.5419
  200MOL   H16740365   4.204   1.422   1.188 -0.7301  0.7798  1.0792
  200MOL   H16840366   4.369   1.306   1.376 -0.1399  1.9243 -0.0390
  200MOL   H16940367   4.477   1.252   1.097 -0.5047  0.0919  0.5675
  200MOL   H17040368   4.529   1.046   1.165  0.1174 -2.7991  2.0555
  200MOL   H17140369   4.457   1.070   1.323  0.9562 -0.5450  0.3808
  200MOL   C17240370   4.667   1.133   1.294  0.7291 -0.0950 -0.8192
  200MOL   C17340371   4.733   1.007   1.330  0.2590 -0.5465 -0.6064
  200MOL   C17440372   4.680   0.884   1.341  0.6796  0.3323 -0.2628
  200MOL   C17540373   4.753   0.750   1.370  0.0956  0.3735 -0.7272
  200MOL   H17640374   4.728   1.176   1.215  2.8917  3.3097  2.4952
  200MOL   H17740375   4.657   1.210   1.371 -1.2710 -0.0469 -1.1217
  200MOL   H17840376   4.838   1.014   1.354  0.5063 -2.0667 -1.1639
  200MOL   H17940377   4.576   0.860   1.327  0.6591  0.9515 -1.2038
  200MOL   H18040378   4.789   0.706   1.277 -1.6577  0.2474 -1.3710
  200MOL   H18140379   4.671   0.689   1.407  0.1400  0.7855  0.0617
  200MOL   C18240380   4.861   0.748   1.481  0.2157  0.2467  0.2694
  200MOL   C18340381   4.929   0.616   1.492  0.2260 -0.1737  0.5162
  200MOL   C18440382   4.972   0.563   1.609  0.3626  0.2123 -0.2014
  200MOL   C18540383   5.031   0.420   1.611  0.1207 -0.5152 -0.0653
  200MOL   H18640384   4.932   0.821   1.442 -0.1848  0.5878  0.1833
  200MOL   H18740385   4.821   0.786   1.575 -2.0231 -0.3622 -0.4205
  200MOL   H18840386   4.919   0.564   1.398 -1.3084 -0.5544  0.8847
  200MOL   H18940387   4.959   0.613   1.704 -1.8706  0.4500 -0.6152
  200MOL   H19040388   5.138   0.415   1.630 -0.3243 -1.6101  2.3644
  200MOL   H19140389   5.019   0.384   1.509  1.2070 -1.9633  0.3140
  200MOL   C19240390   4.966   0.322   1.708 -0.8538  0.4143 -0.0782
  200MOL   C19340391   5.028   0.183   1.677  0.1408  0.3294 -0.1670
  200MOL   C19440392   4.945   0.079   1.649  0.4577 -0.2837 -0.3606
  200MOL   C19540393   4.985   7.918   1.612  0.0522  0.2342 -0.4319
  200MOL   H19640394   4.995   0.330   1.813  0.7480 -2.2482 -0.2495
  200MOL   H19740395   4.859   0.327   1.688 -0.4618  0.9805 -2.1102
  200MOL   H19840396   5.135   0.173   1.684  0.2912  0.7256 -1.7439
  200MOL   H19940397   4.838   0.099   1.653  0.3559 -0.9563  0.2592
  200MOL   H20040398   5.036   7.911   1.516 -0.4645  0.0711 -0.6959
  200MOL   H20140399   4.900   7.850   1.609 -0.8030  1.2773 -0.2378
  200MOL   H20240400   5.043   7.875   1.694  0.5588 -0.2454 -1.0351
  201MOL     C140401   7.398   0.069   2.629  0.0269 -0.3641  0.0798
  201MOL     C240402   7.503   7.934   2.623 -0.1740  0.0923 -0.8360
  201MOL     C340403   7.480   7.798   2.642  0.1395  0.0486 -0.2760
  201MOL     C440404   7.579   7.694   2.632 -0.3071  0.0107 -0.6757
  201MOL     H540405   7.384   0.109   2.529 -1.2207 -2.9144 -0.8212
  201MOL     H640406   7.418   0.147   2.703 -1.8987 -0.1611  0.4311
  201MOL     H740407   7.601   7.974   2.602 -0.6150  2.0783  0.7238
  201MOL     H840408   7.383   7.758   2.666 -0.5202  1.7950  0.0061
  201MOL     H940409   7.584   7.643   2.728  0.8162  0.0928 -0.6838
  201MOL    H1040410   7.680   7.736   2.631  0.2251 -1.2544 -0.6887
  201MOL    H1140411   7.307   0.016   2.660 -1.0967  0.2028 -2.1300
  201MOL    C1240412   7.544   7.594   2.521  0.5491 -0.3921 -0.0290
  201MOL    C1340413   7.661   7.503   2.497 -0.6370  0.4319  0.0293
  201MOL    C1440414   7.661   7.414   2.397 -0.0945 -0.7113  0.6496
  201MOL    C1540415   7.782   7.322   2.377 -0.5411 -0.4124 -0.1831
  201MOL    H1640416   7.453   7.535   2.532  1.9807 -2.4469  1.0277
  201MOL    H1740417   7.515   7.646   2.430  0.2996 -1.7255 -0.7292
  201MOL    H1840418   7.740   7.505   2.569 -0.0936 -0.4597 -0.5380
  201MOL    H1940419   7.592   7.409   2.314  0.8521  1.2145 -0.2789
  201MOL    H2040420   7.747   7.222   2.350 -1.0313 -0.0010 -1.1132
  201MOL    H2140421   7.839   7.317   2.469 -1.5708  0.6599  0.5286
  201MOL    C2240422   7.865   7.381   2.264  0.3465  0.5255 -0.3143
  201MOL    C2340423   7.956   7.275   2.196  0.1023 -0.1366 -0.2970
  201MOL    C2440424   0.028   7.280   2.072  0.1561 -0.5425  0.3157
  201MOL    C2540425   0.121   7.175   2.008 -0.3899  0.3249  0.2815
  201MOL    H2640426   7.790   7.431   2.203 -1.0714  0.6827  1.5300
  201MOL    H2740427   7.928   7.467   2.287  0.0371  0.9575 -1.0380
  201MOL    H2840428   0.009   7.203   2.270 -0.9995 -0.0966  0.2001
  201MOL    H2940429   7.968   7.358   2.008  0.4605 -1.1321 -0.5895
  201MOL    H3040430   0.056   7.123   1.939 -0.2674  1.4024 -0.6562
  201MOL    H3140431   0.149   7.105   2.087 -1.3515  0.7985  1.0483
  201MOL    C3240432   0.246   7.234   1.940 -0.1027  0.2564  0.0708
  201MOL    C3340433   0.318   7.120   1.866  0.7206 -0.2511  0.9638
  201MOL    C3440434   0.435   7.062   1.892 -0.7466  0.4904  0.2012
  201MOL    C3540435   0.483   6.941   1.811  0.0580 -0.2509 -0.3871
  201MOL    H3640436   0.204   7.316   1.881 -1.4563  0.4976  1.3547
  201MOL    H3740437   0.313   7.276   2.015 -0.0202  1.6933 -0.7861
  201MOL    H3840438   0.266   7.085   1.778  0.1105  2.3565  0.2357
  201MOL    H3940439   0.496   7.094   1.975 -1.1473  2.1507 -0.1203
  201MOL    H4040440   0.413   6.923   1.729  0.6689 -1.3725 -0.6614
  201MOL    H4140441   0.481   6.849   1.869 -4.1609 -0.4159 -0.6098
  201MOL    C4240442   0.622   6.966   1.758 -0.3903 -0.3843  0.5045
  201MOL    C4340443   0.670   6.856   1.664  0.3597 -0.0168  0.1035
  201MOL    C4440444   0.725   6.886   1.549  0.3178  0.1419  0.3150
  201MOL    C4540445   0.765   6.784   1.441  0.1646 -0.2563 -0.1913
  201MOL    H4640446   0.621   7.062   1.706 -1.2636 -1.7700 -2.1573
  201MOL    H4740447   0.697   6.974   1.836 -1.3103 -1.9574  1.5921
  201MOL    H4840448   0.640   6.755   1.686 -3.1830  1.2102  1.2401
  201MOL    H4940449   0.752   6.986   1.519 -2.7223  1.2504  1.1836
  201MOL    H5040450   0.709   6.798   1.349 -1.1911  1.8275  0.9099
  201MOL    H5140451   0.739   6.683   1.473  0.2571 -0.8846 -2.0248
  201MOL    C5240452   0.911   6.793   1.407  0.1560  0.1258 -0.3103
  201MOL    C5340453   0.943   6.704   1.288 -0.8912  0.3618  0.4283
  201MOL    C5440454   1.066   6.649   1.268  0.2152  0.4278  0.2850
  201MOL    C5540455   1.087   6.561   1.150 -0.1352 -0.2929 -0.0630
  201MOL    H5640456   0.947   6.894   1.388 -0.8819  0.7204  0.7936
  201MOL    H5740457   0.967   6.762   1.495 -0.9024 -0.3036  0.2196
  201MOL    H5840458   0.866   6.691   1.213 -2.4761  1.3156  1.8295
  201MOL    H5940459   1.153   6.669   1.328  0.8378 -1.8894  0.2095
  201MOL    H6040460   0.990   6.544   1.104 -0.4437 -1.3462  0.9649
  201MOL    H6140461   1.124   6.467   1.189  2.0925  0.3808 -0.4725
  201MOL    C6240462   1.186   6.625   1.057 -0.2848  0.3185  0.2007
  201MOL    C6340463   1.221   6.542   0.936 -0.5839 -0.1829 -0.6192
  201MOL    C6440464   1.338   6.477   0.916  0.8237 -0.5269 -0.5493
  201MOL    C6540465   1.368   6.391   0.793  0.1606  0.2630 -0.0369
  201MOL    H6640466   1.150   6.724   1.031 -0.6887 -0.2099 -1.2775
  201MOL    H6740467   1.274   6.639   1.120 -0.9771  0.4098  1.1610
  201MOL    H6840468   1.144   6.536   0.861 -1.3845 -0.9066  0.2526
  201MOL    H6940469   1.412   6.492   0.993  0.5231 -0.4392 -0.2788
  201MOL    H7040470   1.422   6.441   0.713  1.2436  1.2136  1.2690
  201MOL    H7140471   1.272   6.365   0.750 -0.1321  0.9645  0.1790
  201MOL    C7240472   1.446   6.262   0.820 -0.5006  0.1122  0.2687
  201MOL    C7340473   1.458   6.181   0.702 -0.2931 -0.4171 -0.4993
  201MOL    C7440474   1.576   6.124   0.664 -0.0276 -0.0201  0.2042
  201MOL    C7540475   1.593   6.049   0.531 -0.0561  0.2221 -0.4019
  201MOL    H7640476   1.542   6.278   0.869 -0.6466  0.8149  0.3359
  201MOL    H7740477   1.389   6.198   0.887  0.7547 -0.6148  0.6627
  201MOL    H7840478   1.367   6.182   0.644 -0.5425 -0.8960 -0.1240
  201MOL    H7940479   1.660   6.155   0.724 -1.7838  0.6501  2.3969
  201MOL    H8040480   1.671   6.094   0.470 -0.3218  0.8079 -0.3193
  201MOL    H8140481   1.498   6.059   0.480 -1.1286  0.4671  1.5752
  201MOL    C8240482   1.610   5.895   0.543 -0.2692 -0.6219  0.5571
  201MOL    C8340483   1.632   5.831   0.405 -0.7246 -0.5484 -0.8518
  201MOL    C8440484   1.750   5.782   0.361 -0.8165  0.0128  0.1260
  201MOL    C8540485   1.774   5.723   0.224 -0.2375  0.0604 -0.1335
  201MOL    H8640486   1.698   5.873   0.604  0.6710 -0.4803 -0.7338
  201MOL    H8740487   1.531   5.853   0.606 -0.2717  1.4815  2.0180
  201MOL    H8840488   1.552   5.822   0.333  1.4507  1.5371 -3.6526
  201MOL    H8940489   1.827   5.771   0.436 -2.4628  0.9815  2.0209
  201MOL    H9040490   1.679   5.710   0.171  0.7472 -1.8268 -1.5049
  201MOL    H9140491   1.824   5.626   0.228  0.6176  0.4403 -1.3165
  201MOL    C9240492   1.874   5.820   0.149  1.3133  0.0413 -0.3097
  201MOL    C9340493   1.918   5.767   0.018 -0.3403 -0.0512 -0.1780
  201MOL    C9440494   2.038   5.704   0.002 -0.3427 -0.1589  0.0724
  201MOL    C9540495   2.072   5.637   7.846 -0.1155 -0.7642 -0.0697
  201MOL    H9640496   1.821   5.912   0.125  0.1957 -0.9238 -1.6027
  201MOL    H9740497   1.959   5.847   0.211 -0.2340  3.6945  0.3492
  201MOL    H9840498   1.845   5.781   7.917 -2.3243  0.9921  1.8183
  201MOL    H9940499   2.106   5.696   0.086  0.6004  0.6939 -0.5990
  201MOL   H10040500   2.004   5.675   7.770 -0.8752 -2.6227 -0.3455
  201MOL   H10140501   2.053   5.530   7.855 -0.4453 -0.8184 -1.3367
  201MOL   C10240502   2.224   5.661   7.806  0.6836  0.3771 -0.0085
  201MOL   C10340503   2.246   5.807   7.762 -0.1574 -0.0283 -0.3955
  201MOL   C10440504   2.319   5.852   7.658 -0.4180  0.2941 -0.6278
  201MOL   C10540505   2.338   5.996   7.629  0.1253 -0.1719  0.3481
  201MOL   H10640506   2.294   5.638   7.886 -0.8544  2.0284  1.8814
  201MOL   H10740507   2.233   5.591   7.723 -0.8333  1.5517 -1.1979
  201MOL   H10840508   2.210   5.873   7.839 -1.9701 -1.7449  0.2698
  201MOL   H10940509   2.360   5.781   7.588 -0.2320 -0.6531  0.4392
  201MOL   H11040510   2.444   5.995   7.605  0.0143 -0.7694 -0.1335
  201MOL   H11140511   2.327   6.067   7.711 -0.6283 -0.3209  0.3822
  201MOL   C11240512   2.254   6.034   7.507  0.3363 -0.1506 -0.2162
  201MOL   C11340513   2.316   6.131   7.399 -0.5801  0.1213  0.1871
  201MOL   C11440514   2.265   6.251   7.373  0.9252  0.5117  0.9914
  201MOL   C11540515   2.318   6.345   7.267 -0.2737 -0.2062 -0.7224
  201MOL   H11640516   2.208   5.948   7.457 -0.0304  0.6423 -1.2487
  201MOL   H11740517   2.169   6.090   7.545  0.5016  0.0560 -0.1530
  201MOL   H11840518   2.402   6.094   7.345  1.2674  2.9761  1.0691
  201MOL   H11940519   2.178   6.280   7.430 -0.3104  0.4120 -0.7933
  201MOL   H12040520   2.416   6.305   7.242  0.3719 -0.0360  1.5291
  201MOL   H12140521   2.346   6.437   7.318 -1.8168  0.6631 -1.3844
  201MOL   C12240522   2.220   6.385   7.143  0.1072  0.3326  0.4177
  201MOL   C12340523   2.309   6.471   7.050  0.0403 -0.1837 -0.3548
  201MOL   C12440524   2.311   6.604   7.069 -0.4171  0.0834  0.0424
  201MOL   C12540525   2.395   6.706   6.986  0.5091  0.5664  0.2066
  201MOL   H12640526   2.203   6.295   7.084 -0.2995  0.6992 -0.0271
  201MOL   H12740527   2.125   6.433   7.164 -0.0738 -1.1482  3.1983
  201MOL   H12840528   2.369   6.421   6.975 -0.7220  1.4468 -2.0742
  201MOL   H12940529   2.252   6.653   7.145 -0.5628  0.2376 -0.1722
  201MOL   H13040530   2.438   6.776   7.058 -0.8262  0.4437  1.1443
  201MOL   H13140531   2.320   6.764   6.934 -1.3290 -1.8454  0.0921
  201MOL   C13240532   2.482   6.641   6.882 -0.1095 -0.4724 -0.1780
  201MOL   C13340533   2.592   6.731   6.832 -1.2013  0.7659  0.2056
  201MOL   C13440534   2.725   6.692   6.831  0.5981 -0.1401  0.7205
  201MOL   C13540535   2.851   6.757   6.781 -0.2085  0.2934  0.1540
  201MOL   H13640536   2.527   6.552   6.924  1.3908  0.3132 -0.0885
  201MOL   H13740537   2.426   6.617   6.791 -0.6392  2.7547 -0.7791
  201MOL   H13840538   2.566   6.826   6.788  2.2227  1.4975 -0.4393
  201MOL   H13940539   2.743   6.594   6.873 -0.2482 -0.9464 -0.7804
  201MOL   H14040540   2.873   6.831   6.858 -1.6470 -0.8467  1.7074
  201MOL   H14140541   2.820   6.819   6.697 -1.5064 -0.2104  0.2467
  201MOL   C14240542   2.963   6.652   6.752 -0.2562 -0.3042 -0.1696
  201MOL   C14340543   3.009   6.577   6.870 -0.7317 -0.4389 -0.4479
  201MOL   C14440544   3.121   6.625   6.930  0.3301 -0.2476 -0.5087
  201MOL   C14540545   3.182   6.559   7.053  0.4901  0.1718 -0.0645
  201MOL   H14640546   2.917   6.582   6.682  0.2112  1.6110 -2.4711
  201MOL   H14740547   3.047   6.704   6.706 -1.7666  2.3163 -0.0530
  201MOL   H14840548   2.949   6.494   6.905 -1.4935  0.8069  1.2575
  201MOL   H14940549   3.172   6.715   6.900  0.0164  0.9073  2.1974
  201MOL   H15040550   3.113   6.487   7.097 -0.7853  0.3706 -1.6968
  201MOL   H15140551   3.196   6.631   7.134  0.2582  0.5085 -0.3199
  201MOL   C15240552   3.311   6.490   7.030  0.2603 -0.2732 -0.1219
  201MOL   C15340553   3.398   6.474   7.157 -0.1510 -0.0536 -0.2441
  201MOL   C15440554   3.519   6.528   7.174 -0.2125  0.3746  0.6884
  201MOL   C15540555   3.613   6.514   7.292 -0.5772  0.7230 -0.8020
  201MOL   H15640556   3.287   6.389   6.999  1.9559 -0.5877 -0.4739
  201MOL   H15740557   3.365   6.542   6.950  0.2860 -0.0314  0.0529
  201MOL   H15840558   3.367   6.394   7.223  0.7180 -1.5422 -1.6207
  201MOL   H15940559   3.544   6.588   7.089  0.6188  0.5184  1.0334
  201MOL   H16040560   3.695   6.452   7.255  0.0511  0.3541  1.1668
  201MOL   H16140561   3.564   6.461   7.374  0.0802  0.8832 -0.2997
  201MOL   C16240562   3.648   6.652   7.355 -0.6168 -0.8004 -0.2791
  201MOL   C16340563   3.739   6.624   7.469  0.7025  0.4125 -1.0068
  201MOL   C16440564   3.876   6.619   7.458  0.3431 -0.5046  0.0144
  201MOL   C16540565   3.975   6.621   7.575  0.1380 -0.5476 -0.4426
  201MOL   H16640566   3.693   6.722   7.284  0.5960 -1.1830  0.1052
  201MOL   H16740567   3.561   6.706   7.391  0.5538  0.5058  0.6392
  201MOL   H16840568   3.702   6.629   7.570  3.1988  1.6242 -0.1093
  201MOL   H16940569   3.921   6.619   7.359 -0.2152  3.4791 -0.3167
  201MOL   H17040570   3.972   6.524   7.625 -2.0024 -0.5705 -0.5303
  201MOL   H17140571   3.946   6.698   7.648  0.4049 -0.7322 -0.1419
  201MOL   C17240572   4.118   6.651   7.520  0.5619  0.9623 -0.5028
  201MOL   C17340573   4.207   6.683   7.642 -0.4184 -0.2982 -0.4297
  201MOL   C17440574   4.243   6.589   7.730  0.5390  0.2783  0.7854
  201MOL   C17540575   4.322   6.624   7.854 -0.0408 -0.3755  0.5074
  201MOL   H17640576   4.146   6.560   7.466  0.7595 -0.3215  1.6763
  201MOL   H17740577   4.127   6.736   7.453 -0.2770  2.8835  1.7394
  201MOL   H17840578   4.239   6.786   7.652  0.1866 -0.6577  1.6506
  201MOL   H17940579   4.200   6.492   7.712 -0.1513  1.1123 -2.4352
  201MOL   H18040580   4.337   6.732   7.860 -1.2223 -0.3181  2.9577
  201MOL   H18140581   4.414   6.567   7.838  1.3950  1.3151  2.5555
  201MOL   C18240582   4.266   6.557   0.006  0.3398 -0.4085  0.4387
  201MOL   C18340583   4.354   6.603   0.125 -0.3296  1.0178 -0.5390
  201MOL   C18440584   4.382   6.519   0.230 -0.2913  0.3180  0.4894
  201MOL   C18540585   4.452   6.547   0.359 -0.0111 -0.3466  0.0017
  201MOL   H18640586   4.161   6.580   0.023  0.6228  0.1742  1.4634
  201MOL   H18740587   4.256   6.450   7.966 -1.6483  0.0329 -1.3961
  201MOL   H18840588   4.373   6.709   0.138 -2.2435  1.7043 -2.9778
  201MOL   H18940589   4.353   6.416   0.215  2.4996 -0.1394 -2.5038
  201MOL   H19040590   4.479   6.652   0.358  0.2000 -0.3717  1.3706
  201MOL   H19140591   4.547   6.494   0.353 -0.3135 -0.9823  0.6995
  201MOL   C19240592   4.371   6.492   0.482 -0.0028 -0.4103  0.6099
  201MOL   C19340593   4.440   6.510   0.614  0.1570  0.2755  0.6311
  201MOL   C19440594   4.524   6.413   0.668  0.8890  0.7419 -0.6388
  201MOL   C19540595   4.585   6.439   0.804 -0.3520 -0.4872  0.0431
  201MOL   H19640596   4.275   6.541   0.495 -0.8462 -1.1171 -2.6456
  201MOL   H19740597   4.355   6.384   0.473  2.0303 -0.4661 -3.3833
  201MOL   H19840598   4.428   6.609   0.657  0.5564  0.5042  0.2215
  201MOL   H19940599   4.539   6.323   0.611 -1.2395  0.2704 -0.4905
  201MOL   H20040600   4.554   6.539   0.834  1.3735 -0.2741  1.2100
  201MOL   H20140601   4.693   6.451   0.803 -0.4044  0.2444  1.7570
  201MOL   H20240602   4.557   6.370   0.884  1.6671 -1.5477 -0.1513
  202MOL     C140603   5.548   3.761   5.968 -0.2832 -0.3869  0.3029
  202MOL     C240604   5.614   3.659   5.870 -0.0553 -0.1701 -0.4618
  202MOL     C340605   5.594   3.651   5.737 -0.3270 -0.1836  0.1175
  202MOL     C440606   5.665   3.556   5.644 -0.2163  0.1009  0.1873
  202MOL     H540607   5.621   3.809   6.034 -0.6271  0.7921 -0.1493
  202MOL     H640608   5.484   3.697   6.028  0.4618 -0.4787  1.0140
  202MOL     H740609   5.681   3.591   5.920 -0.4344 -0.5006 -0.3993
  202MOL     H840610   5.514   3.710   5.694  0.2041  1.9884  1.9526
  202MOL     H940611   5.746   3.508   5.700  1.7545  0.4065 -2.2974
  202MOL    H1040612   5.712   3.612   5.563  1.7841 -1.9276 -0.1202
  202MOL    H1140613   5.490   3.837   5.916 -1.6860 -1.8494 -0.3011
  202MOL    C1240614   5.577   3.444   5.589 -0.1534  0.4087  0.2369
  202MOL    C1340615   5.670   3.358   5.509  0.3460  0.4726  0.6554
  202MOL    C1440616   5.661   3.315   5.383  0.5749  0.1931  0.4855
  202MOL    C1540617   5.764   3.233   5.304  0.7310  0.0315  0.4023
  202MOL    H1640618   5.531   3.392   5.673 -0.8935 -0.0697 -0.4580
  202MOL    H1740619   5.493   3.478   5.529 -0.3525 -4.7274 -2.6854
  202MOL    H1840620   5.750   3.314   5.567  1.4078 -0.5606 -1.5304
  202MOL    H1940621   5.574   3.346   5.326  0.1763 -0.9489  0.4429
  202MOL    H2040622   5.713   3.142   5.272 -0.6399  0.5348  1.1220
  202MOL    H2140623   5.841   3.189   5.368 -0.0907  0.1447  1.4776
  202MOL    C2240624   5.827   3.285   5.181 -0.0761  0.2789 -0.1277
  202MOL    C2340625   5.955   3.215   5.145 -0.3781 -0.0251 -0.2560
  202MOL    C2440626   5.968   3.145   5.033  0.3929 -0.0531 -0.0775
  202MOL    C2540627   6.095   3.065   4.982 -0.3797 -0.2667  0.3776
  202MOL    H2640628   5.763   3.264   5.094  1.8734  0.7354 -1.6980
  202MOL    H2740629   5.840   3.393   5.180  0.9250  0.1567 -1.3033
  202MOL    H2840630   6.029   3.217   5.224 -1.8883  1.6255  1.1539
  202MOL    H2940631   5.875   3.137   4.980 -1.0240  1.6633  2.1033
  202MOL    H3040632   6.058   2.963   4.973  0.7868 -0.5494 -1.6038
  202MOL    H3140633   6.187   3.072   5.040 -0.4156 -0.0150  0.4025
  202MOL    C3240634   6.131   3.119   4.845 -0.8673  0.1134 -0.6131
  202MOL    C3340635   6.225   3.023   4.771  0.2503  0.4089  0.1152
  202MOL    C3440636   6.206   2.973   4.649  0.2142  0.5025  0.3904
  202MOL    C3540637   6.301   2.876   4.576 -0.3429 -0.7570  0.4837
  202MOL    H3640638   6.049   3.145   4.779  0.5335 -0.6900 -2.7250
  202MOL    H3740639   6.192   3.209   4.850 -2.4995  1.1531  1.7341
  202MOL    H3840640   6.315   3.006   4.827  1.1992  1.9446 -0.9021
  202MOL    H3940641   6.113   2.981   4.596 -0.2337 -3.2423  0.4671
  202MOL    H4040642   6.253   2.780   4.560 -1.5572  0.1903 -1.8180
  202MOL    H4140643   6.393   2.866   4.634  0.4146  0.9826 -0.3815
  202MOL    C4240644   6.345   2.939   4.442  0.3507  0.4234 -0.5551
  202MOL    C4340645   6.408   2.840   4.349 -0.1772 -0.0321 -0.5501
  202MOL    C4440646   6.542   2.830   4.328  0.0797  0.0287  0.3030
  202MOL    C4540647   6.603   2.721   4.242  0.0037  0.0641  0.4385
  202MOL    H4640648   6.249   2.971   4.402 -0.2700 -0.9945 -0.2133
  202MOL    H4740649   6.409   3.027   4.457  0.8632 -0.0999  0.3751
  202MOL    H4840650   6.347   2.755   4.322 -0.0697 -0.0020 -0.8959
  202MOL    H4940651   6.603   2.906   4.374 -0.4208 -0.4069  1.7155
  202MOL    H5040652   6.531   2.644   4.214  1.0614 -0.6075 -0.4611
  202MOL    H5140653   6.674   2.672   4.309  1.7684 -0.2650 -1.5982
  202MOL    C5240654   6.678   2.759   4.115  0.0713 -0.6173 -0.5424
  202MOL    C5340655   6.585   2.789   4.001  0.7728  0.1051 -0.3687
  202MOL    C5440656   6.606   2.768   3.870 -0.5119 -0.5836  0.4196
  202MOL    C5540657   6.516   2.810   3.756  0.0088 -0.1925  0.2536
  202MOL    H5640658   6.747   2.838   4.143 -0.6897 -0.6682  1.5687
  202MOL    H5740659   6.740   2.674   4.085 -0.2579 -0.8334 -0.6191
  202MOL    H5840660   6.497   2.848   4.025 -1.4683 -2.3356 -2.3628
  202MOL    H5940661   6.688   2.707   3.835  0.0154 -0.8743  2.1036
  202MOL    H6040662   6.422   2.822   3.809  0.9834 -0.2353  2.0430
  202MOL    H6140663   6.511   2.732   3.680 -0.1021  1.9905 -2.0188
  202MOL    C6240664   6.575   2.938   3.702 -0.3277  0.6176  0.2921
  202MOL    C6340665   6.510   2.995   3.578 -0.0159 -0.6364  0.5552
  202MOL    C6440666   6.576   3.022   3.462 -0.5560  0.2908 -0.0273
  202MOL    C6540667   6.491   3.078   3.348 -0.2006 -0.0731  0.3051
  202MOL    H6640668   6.599   3.015   3.774 -1.4359 -0.8876  2.3245
  202MOL    H6740669   6.672   2.917   3.658 -1.3514  0.3206 -1.9463
  202MOL    H6840670   6.403   3.013   3.575 -0.2531 -2.0933 -1.2112
  202MOL    H6940671   6.683   3.008   3.460 -0.5943  0.0958 -0.8385
  202MOL    H7040672   6.385   3.053   3.347 -0.2348 -0.0195  1.3172
  202MOL    H7140673   6.525   3.025   3.259  0.6329 -1.4989  1.4568
  202MOL    C7240674   6.501   3.234   3.322 -0.0757  0.5923 -0.2066
  202MOL    C7340675   6.441   3.318   3.436  0.0890  0.0587 -0.2758
  202MOL    C7440676   6.342   3.407   3.412  0.0887 -0.0258  0.2712
  202MOL    C7540677   6.288   3.487   3.522 -0.0240  0.3786  0.2439
  202MOL    H7640678   6.606   3.260   3.311 -0.5309  2.1374 -0.9386
  202MOL    H7740679   6.445   3.258   3.232  1.3571  0.6626 -1.0916
  202MOL    H7840680   6.483   3.317   3.535 -0.4598  0.3137 -0.0399
  202MOL    H7940681   6.301   3.414   3.313 -4.3718  0.0354  2.0073
  202MOL    H8040682   6.318   3.455   3.621  2.0666 -2.4958 -1.2349
  202MOL    H8140683   6.179   3.480   3.526 -0.1046  1.5899  0.2993
  202MOL    C8240684   6.313   3.643   3.507  0.4157 -0.9641  0.7383
  202MOL    C8340685   6.284   3.710   3.641  0.1473 -0.3587 -1.3960
  202MOL    C8440686   6.161   3.716   3.698  0.9838  0.0729  0.4008
  202MOL    C8540687   6.137   3.770   3.835 -0.0733 -0.9370 -0.2087
  202MOL    H8640688   6.412   3.668   3.469  1.2509 -0.7786  2.9889
  202MOL    H8740689   6.250   3.682   3.427  0.7886  1.8198  1.7746
  202MOL    H8840690   6.373   3.741   3.694 -0.9373 -0.9675  0.8169
  202MOL    H8940691   6.070   3.683   3.650  1.1928 -0.7289  0.5559
  202MOL    H9040692   6.124   3.878   3.826  0.4445 -1.0018 -2.0456
  202MOL    H9140693   6.226   3.750   3.894  0.6496  0.1862 -0.8995
  202MOL    C9240694   6.014   3.716   3.902  0.3146  0.3072 -0.1535
  202MOL    C9340695   6.011   3.567   3.936 -0.0962 -0.3092  0.5988
  202MOL    C9440696   5.991   3.515   4.053  0.3464  0.0177  0.0359
  202MOL    C9540697   6.008   3.370   4.077  0.2177 -0.2956 -0.1228
  202MOL    H9640698   5.992   3.768   3.996  3.0995  0.2175  0.5916
  202MOL    H9740699   5.927   3.739   3.841 -0.9825 -0.5467  1.3293
  202MOL    H9840700   6.025   3.498   3.854 -0.3111  2.7408 -2.1101
  202MOL    H9940701   5.979   3.575   4.143 -2.2535  0.4076 -0.5291
  202MOL   H10040702   6.115   3.352   4.091  0.2559  0.3105  0.3700
  202MOL   H10140703   5.985   3.304   3.994  0.7348 -0.9835  0.2722
  202MOL   C10240704   5.939   3.332   4.210  0.6466  0.0925  0.3183
  202MOL   C10340705   5.991   3.381   4.341 -0.2397 -0.4734 -0.2789
  202MOL   C10440706   5.918   3.431   4.439 -0.0007  0.1390 -0.1891
  202MOL   C10540707   5.964   3.444   4.581 -0.4380  0.6453 -0.5787
  202MOL   H10640708   5.836   3.366   4.197  0.5289  0.9435  3.2009
  202MOL   H10740709   5.928   3.224   4.221  1.5167 -0.0445 -0.1183
  202MOL   H10840710   6.089   3.343   4.364 -1.0688 -0.6237  3.3195
  202MOL   H10940711   5.814   3.450   4.416 -0.3980  0.0178  1.4309
  202MOL   H11040712   6.072   3.452   4.579 -0.2137 -1.5323  0.5894
  202MOL   H11140713   5.950   3.354   4.641 -1.7530  0.1246 -1.6218
  202MOL   C11240714   5.905   3.557   4.654  0.0193  0.4652  0.1800
  202MOL   C11340715   5.971   3.588   4.783 -0.3377 -0.7469  0.5046
  202MOL   C11440716   6.025   3.707   4.818 -0.0432  0.3317 -0.6140
  202MOL   C11540717   6.109   3.735   4.943  0.1150  0.1841  0.4074
  202MOL   H11640718   5.912   3.644   4.589  0.0127 -0.7727 -1.4955
  202MOL   H11740719   5.803   3.523   4.672 -0.1564 -0.2224 -1.9503
  202MOL   H11840720   5.991   3.503   4.847 -0.8266  0.9762  3.0012
  202MOL   H11940721   6.015   3.795   4.755 -0.0965  0.4484 -0.4427
  202MOL   H12040722   6.100   3.650   5.011 -0.2364  0.1241  0.2840
  202MOL   H12140723   6.062   3.816   4.998 -3.3135 -0.6761 -1.1426
  202MOL   C12240724   6.254   3.775   4.912  0.5828  0.2011  0.2642
  202MOL   C12340725   6.262   3.919   4.910 -0.3585 -0.0427  0.1524
  202MOL   C12440726   6.322   3.996   5.003 -0.3871  0.2644 -0.2204
  202MOL   C12540727   6.322   4.147   4.993 -0.2976  0.1156 -0.0986
  202MOL   H12640728   6.312   3.747   5.001  0.2363  2.5548  1.2584
  202MOL   H12740729   6.292   3.720   4.826 -1.0035  3.5296 -2.6738
  202MOL   H12840730   6.225   3.960   4.817 -1.7695 -0.2064  0.6197
  202MOL   H12940731   6.365   3.951   5.091 -1.9897 -2.3495 -0.7324
  202MOL   H13040732   6.323   4.174   4.888  0.3784 -1.4750 -0.5097
  202MOL   H13140733   6.413   4.182   5.042 -0.4938 -0.4668  0.6980
  202MOL   C13240734   6.205   4.215   5.061 -0.2248  0.0201 -0.1187
  202MOL   C13340735   6.071   4.200   4.988 -0.3756 -0.3061 -0.2284
  202MOL   C13440736   5.970   4.129   5.040  0.7084  0.8668  0.4509
  202MOL   C13540737   5.832   4.130   4.978  0.1862  0.2597  0.2268
  202MOL   H13640738   6.197   4.182   5.165  2.8817  2.6002  1.0303
  202MOL   H13740739   6.229   4.321   5.071  0.4474 -0.0657 -0.8000
  202MOL   H13840740   6.051   4.265   4.905 -0.4265 -0.3243 -0.2297
  202MOL   H13940741   5.988   4.068   5.128 -1.2040  0.3181  0.4686
  202MOL   H14040742   5.800   4.030   4.950  0.6464  0.2286 -0.1878
  202MOL   H14140743   5.821   4.198   4.893 -2.4375 -0.7739 -0.3207
  202MOL   C14240744   5.720   4.168   5.078 -0.3782  0.3359  0.1231
  202MOL   C14340745   5.592   4.186   5.006  0.3427  0.2659  0.1088
  202MOL   C14440746   5.506   4.289   5.014 -0.5115  0.1256  0.2096
  202MOL   C14540747   5.377   4.292   4.936  0.1753  0.1134  0.2021
  202MOL   H14640748   5.708   4.080   5.140 -0.1138 -0.1106 -0.4539
  202MOL   H14740749   5.740   4.253   5.144 -0.3521  1.7962 -1.6986
  202MOL   H14840750   5.579   4.095   4.949  1.5686  0.2535 -0.1617
  202MOL   H14940751   5.529   4.380   5.067  1.4943 -0.0758 -0.3069
  202MOL   H15040752   5.383   4.219   4.855  0.2048  2.3353 -1.8475
  202MOL   H15140753   5.385   4.391   4.891 -2.7599  0.1070 -0.4456
  202MOL   C15240754   5.246   4.285   5.018 -0.1768  0.2397  0.6651
  202MOL   C15340755   5.117   4.290   4.933  0.3563  0.2436  0.8111
  202MOL   C15440756   5.043   4.396   4.912 -0.4457  0.2579  0.3187
  202MOL   C15540757   4.916   4.419   4.834 -1.2979  0.1259 -0.2227
  202MOL   H15640758   5.251   4.214   5.100  1.0304 -1.9077 -1.2393
  202MOL   H15740759   5.246   4.386   5.060  1.1769  1.3099 -1.7654
  202MOL   H15840760   5.084   4.196   4.892 -1.6055  2.1483 -2.1694
  202MOL   H15940761   5.071   4.485   4.966  0.2965  0.4809 -0.4295
  202MOL   H16040762   4.944   4.463   4.739  2.1355 -3.2146 -0.8360
  202MOL   H16140763   4.866   4.494   4.896 -1.5430 -1.8599  2.0570
  202MOL   C16240764   4.826   4.290   4.809  0.0913  1.0752  0.3963
  202MOL   C16340765   4.784   4.213   4.940  0.4280  0.3999  0.6069
  202MOL   C16440766   4.762   4.081   4.953  0.0124 -0.1660 -0.2775
  202MOL   C16540767   4.711   4.012   5.073 -0.7331 -0.5411 -0.5617
  202MOL   H16640768   4.728   4.321   4.773 -1.2440 -2.6498  0.5511
  202MOL   H16740769   4.844   4.212   4.735 -1.7702 -0.1200  1.1560
  202MOL   H16840770   4.770   4.280   5.023  1.4161  0.2498  0.9049
  202MOL   H16940771   4.771   4.018   4.865  0.6106  0.3695 -0.6027
  202MOL   H17040772   4.712   4.073   5.163  0.5810 -0.4754 -0.6224
  202MOL   H17140773   4.773   3.923   5.086  1.7035  1.0382 -1.1384
  202MOL   C17240774   4.565   3.970   5.044 -1.0261  0.6232  0.0756
  202MOL   C17340775   4.509   3.854   5.121  0.3365  0.3715 -0.2238
  202MOL   C17440776   4.515   3.726   5.091 -0.0249  0.7391  0.3224
  202MOL   C17540777   4.454   3.620   5.180 -0.1830 -0.8325 -0.6151
  202MOL   H17640778   4.493   4.050   5.062 -1.5766  0.2124 -0.2878
  202MOL   H17740779   4.553   3.937   4.941  0.8811 -0.4082  0.1713
  202MOL   H17840780   4.453   3.883   5.209 -0.2173  0.3682 -0.5685
  202MOL   H17940781   4.571   3.686   5.008 -2.3016 -1.0638 -0.3864
  202MOL   H18040782   4.415   3.666   5.271 -0.4834  2.6883 -2.4210
  202MOL   H18140783   4.529   3.547   5.210  0.5956 -0.6710 -2.1476
  202MOL   C18240784   4.336   3.549   5.110  0.3803 -1.0662  0.2474
  202MOL   C18340785   4.264   3.452   5.209  0.1196  0.3018  0.2486
  202MOL   C18440786   4.131   3.452   5.244 -0.3679 -0.7196  0.2942
  202MOL   C18540787   4.075   3.368   5.359 -0.8887 -0.0389 -0.0792
  202MOL   H18640788   4.271   3.624   5.065  2.8413  2.5324  2.3369
  202MOL   H18740789   4.374   3.491   5.026  0.5574 -0.4851 -0.0761
  202MOL   H18840790   4.334   3.384   5.255 -1.1689 -0.6310  0.8639
  202MOL   H18940791   4.073   3.528   5.194 -0.9389  0.4901  2.7342
  202MOL   H19040792   4.005   3.431   5.414  0.4102  0.1798  1.3420
  202MOL   H19140793   4.154   3.334   5.426  0.3303  0.8560 -1.0540
  202MOL   C19240794   4.000   3.253   5.298 -0.1141 -0.0935 -0.4689
  202MOL   C19340795   3.949   3.163   5.409 -1.0878 -0.3235  0.5875
  202MOL   C19440796   3.984   3.032   5.424  0.0098  0.6901  0.0777
  202MOL   C19540797   3.940   2.939   5.526 -0.0394  0.0346 -0.7934
  202MOL   H19640798   3.913   3.302   5.255 -0.0004  1.2101  0.7444
  202MOL   H19740799   4.059   3.201   5.221 -1.0808 -3.5779  1.0488
  202MOL   H19840800   3.899   3.217   5.487 -1.2073  1.8598 -0.9535
  202MOL   H19940801   4.052   2.996   5.349  0.2234 -2.6313  1.7568
  202MOL   H20040802   3.863   2.869   5.493 -0.5840 -0.1676  0.8735
  202MOL   H20140803   3.910   2.992   5.616 -0.9755 -0.3032 -0.8980
  202MOL   H20240804   4.030   2.884   5.555  1.1435  2.8118  0.9370
  203MOL     C140805   4.367   7.633   3.011  0.0995 -0.4949  0.4797
  203MOL     C240806   4.341   7.776   2.963 -0.0839  0.5726 -0.3145
  203MOL     C340807   4.317   7.814   2.836 -0.3589 -0.0206 -0.7740
  203MOL     C440808   4.288   7.957   2.795 -0.2527 -0.7937 -0.5636
  203MOL     H540809   4.391   7.566   2.929 -1.2201  1.0248 -1.1900
  203MOL     H640810   4.292   7.586   3.075  1.2163 -1.0149  1.4118
  203MOL     H740811   4.330   7.840   3.049 -1.1956 -2.5069  1.9158
  203MOL     H840812   4.306   7.744   2.755  0.7187 -1.6670  0.4655
  203MOL     H940813   4.268   0.027   2.891 -0.1666 -2.3127  0.1977
  203MOL    H1040814   4.189   7.956   2.749 -0.9372 -2.6397  0.9149
  203MOL    H1140815   4.456   7.647   3.072  0.0862  0.5866  0.2610
  203MOL    C1240816   4.396   0.043   2.700 -0.2378 -0.0872  0.5044
  203MOL    C1340817   4.368   0.178   2.644 -0.1703 -0.3936 -0.3041
  203MOL    C1440818   4.246   0.237   2.615  0.6226  0.2167  0.1863
  203MOL    C1540819   4.219   0.374   2.557  0.3742 -0.5293  0.3910
  203MOL    H1640820   4.485   0.033   2.763 -0.8735  1.3524  1.6505
  203MOL    H1740821   4.419   7.950   2.619  0.7367  0.7007  0.0929
  203MOL    H1840822   4.457   0.232   2.615 -0.7596  0.0285 -1.3349
  203MOL    H1940823   4.163   0.174   2.641  1.4678 -1.2294 -0.5722
  203MOL    H2040824   4.313   0.429   2.554 -1.2775  2.4306  1.0521
  203MOL    H2140825   4.151   0.437   2.614  1.3686  0.8806  0.0539
  203MOL    C2240826   4.168   0.356   2.416  0.4206  0.4437 -0.2056
  203MOL    C2340827   4.153   0.487   2.342 -0.1458 -0.2654  0.5246
  203MOL    C2440828   4.227   0.515   2.232  0.5236  0.0223 -0.1170
  203MOL    C2540829   4.197   0.641   2.154  0.3963 -0.1462 -0.1507
  203MOL    H2640830   4.228   0.282   2.363  1.1255 -0.8894  2.3268
  203MOL    H2740831   4.064   0.322   2.416 -0.1737  2.1792 -1.7125
  203MOL    H2840832   4.085   0.561   2.382  1.2368  2.5059 -2.0351
  203MOL    H2940833   4.282   0.432   2.190  0.2445 -0.2541  0.0491
  203MOL    H3040834   4.292   0.682   2.122 -1.0859 -0.0966 -4.8929
  203MOL    H3140835   4.136   0.708   2.214  0.5057  0.6827 -0.9567
  203MOL    C3240836   4.116   0.605   2.026  0.0507  0.5180  0.3025
  203MOL    C3340837   4.043   0.727   1.964  0.2289  0.6049  0.1182
  203MOL    C3440838   4.058   0.780   1.836  1.0726  0.3331 -0.4427
  203MOL    C3540839   3.969   0.885   1.773 -0.1274  0.5252  0.6705
  203MOL    H3640840   4.178   0.565   1.946 -1.1287 -0.7403 -0.0034
  203MOL    H3740841   4.046   0.526   2.053 -0.2952  0.7449  0.0849
  203MOL    H3840842   3.977   0.777   2.033  0.2985 -0.2804  0.8320
  203MOL    H3940843   4.134   0.738   1.771 -0.0603 -0.8307 -1.0351
  203MOL    H4040844   4.024   0.978   1.761  0.8748  0.0617  1.6501
  203MOL    H4140845   3.890   0.912   1.844 -1.9015 -1.2804 -0.5444
  203MOL    C4240846   3.886   0.832   1.651  0.1510  0.0174  0.5367
  203MOL    C4340847   3.833   0.955   1.579 -0.6145 -0.6482 -0.4990
  203MOL    C4440848   3.897   1.025   1.485  0.6455 -0.5846 -0.1062
  203MOL    C4540849   3.837   1.152   1.421 -0.4729 -0.8183  0.7290
  203MOL    H4640850   3.949   0.777   1.581 -1.2329 -0.9583  0.0387
  203MOL    H4740851   3.798   0.776   1.684 -1.6768  1.2917 -1.9711
  203MOL    H4840852   3.746   0.997   1.627  0.5917  0.7026  0.5450
  203MOL    H4940853   3.993   0.992   1.449 -0.4917 -1.7729 -2.1376
  203MOL    H5040854   3.907   1.236   1.422 -1.3593 -0.0530 -0.3085
  203MOL    H5140855   3.748   1.180   1.477 -1.2898 -0.9297 -0.4703
  203MOL    C5240856   3.800   1.134   1.270  0.1386 -0.0390  0.6889
  203MOL    C5340857   3.757   1.261   1.203 -0.3836 -0.9095 -0.4504
  203MOL    C5440858   3.853   1.346   1.162 -0.4130 -0.0236 -0.0339
  203MOL    C5540859   3.837   1.481   1.099  0.2116 -0.0829  0.0647
  203MOL    H5640860   3.875   1.078   1.214 -1.5675 -0.3214 -1.3682
  203MOL    H5740861   3.721   1.058   1.277 -0.3074  0.2147 -1.3928
  203MOL    H5840862   3.654   1.293   1.210  0.3340  1.0558  2.1274
  203MOL    H5940863   3.953   1.307   1.150 -0.4437  0.1428 -0.9262
  203MOL    H6040864   3.731   1.499   1.078  0.7931  1.5669 -1.4937
  203MOL    H6140865   3.889   1.481   1.004 -1.0694 -0.2476 -0.6580
  203MOL    C6240866   3.904   1.590   1.185  0.2405  0.0009 -0.0693
  203MOL    C6340867   3.928   1.714   1.101  0.4825  0.3003  0.6926
  203MOL    C6440868   3.854   1.826   1.116  0.6892 -0.6308  0.8464
  203MOL    C6540869   3.852   1.945   1.012 -0.6025  0.1848  0.0722
  203MOL    H6640870   3.838   1.619   1.267 -0.3855  1.3861 -1.0329
  203MOL    H6740871   3.991   1.560   1.244  1.1465  1.2053 -0.7623
  203MOL    H6840872   3.996   1.706   1.018 -1.5775  0.6872 -1.0630
  203MOL    H6940873   3.786   1.833   1.199  2.2499  0.0639  2.0829
  203MOL    H7040874   3.922   1.926   0.930  1.2106  0.8989  1.4442
  203MOL    H7140875   3.893   2.034   1.058  0.4367  1.4095 -3.0648
  203MOL    C7240876   3.712   1.967   0.965  0.3145  0.1832 -0.4975
  203MOL    C7340877   3.606   2.011   1.068 -0.1616  0.1683 -0.2483
  203MOL    C7440878   3.547   2.133   1.055 -0.9800  0.2211  0.8210
  203MOL    C7540879   3.436   2.179   1.146  0.2483 -0.4611 -0.4047
  203MOL    H7640880   3.701   2.037   0.881 -0.3754  2.7558  1.6545
  203MOL    H7740881   3.666   1.875   0.930 -1.3980  0.1187  1.8067
  203MOL    H7840882   3.578   1.955   1.156  0.5313  1.5919  0.8869
  203MOL    H7940883   3.564   2.205   0.977 -0.5429  0.1122  0.8175
  203MOL    H8040884   3.386   2.092   1.190  1.9345 -0.7300  1.0118
  203MOL    H8140885   3.358   2.235   1.094  0.6200  0.1731 -0.2765
  203MOL    C8240886   3.476   2.279   1.258  0.6814  0.0489 -0.4589
  203MOL    C8340887   3.356   2.337   1.323  0.6625  0.1353 -0.0431
  203MOL    C8440888   3.315   2.465   1.339 -0.5748 -0.5540  0.6758
  203MOL    C8540889   3.190   2.513   1.410 -0.1434 -0.4297  0.1073
  203MOL    H8640890   3.526   2.232   1.342  0.3027 -0.3851 -0.4763
  203MOL    H8740891   3.529   2.366   1.217 -0.7406  0.2550 -1.9026
  203MOL    H8840892   3.293   2.259   1.365 -0.8084  0.8498 -0.8603
  203MOL    H8940893   3.355   2.546   1.281 -2.1348  0.9516  1.6606
  203MOL    H9040894   3.132   2.422   1.429 -0.9359  0.2485  0.9755
  203MOL    H9140895   3.132   2.581   1.349 -0.3539  1.4092  2.3091
  203MOL    C9240896   3.221   2.574   1.548  0.0244 -0.2832  0.4412
  203MOL    C9340897   3.091   2.640   1.596 -0.3354 -0.1856 -0.0871
  203MOL    C9440898   3.033   2.594   1.705  0.6886 -0.3999 -0.1665
  203MOL    C9540899   2.903   2.655   1.752  0.7251 -0.3208  0.3273
  203MOL    H9640900   3.265   2.504   1.619  0.6212  0.3514  0.7007
  203MOL    H9740901   3.294   2.652   1.528  0.4933 -0.5800  0.9690
  203MOL    H9840902   3.035   2.713   1.539 -1.5392  1.7222  3.3575
  203MOL    H9940903   3.080   2.519   1.768 -1.1486 -1.6272 -0.2224
  203MOL   H10040904   2.842   2.575   1.794 -0.4938  0.9018  0.9221
  203MOL   H10140905   2.848   2.701   1.671  0.4560 -1.0752  0.0824
  203MOL   C10240906   2.918   2.745   1.877 -0.3599 -0.2444 -1.0154
  203MOL   C10340907   2.796   2.820   1.939 -0.0099  0.1455 -0.4623
  203MOL   C10440908   2.662   2.805   1.903  0.2415  0.1755  0.0770
  203MOL   C10540909   2.559   2.892   1.973 -0.2888 -0.3457  0.1895
  203MOL   H10640910   2.964   2.684   1.954  1.8869  0.5974 -1.6503
  203MOL   H10740911   2.996   2.816   1.852 -2.3991  1.6312 -2.2095
  203MOL   H10840912   2.823   2.885   2.021 -0.5833  1.6121 -1.4163
  203MOL   H10940913   2.624   2.733   1.832  0.6595 -2.2231  2.1961
  203MOL   H11040914   2.604   2.972   2.032  0.1259 -0.2925 -0.2006
  203MOL   H11140915   2.506   2.828   2.044  0.9955 -3.7952 -1.8285
  203MOL   C11240916   2.474   2.952   1.860 -0.2487  0.5410 -0.0138
  203MOL   C11340917   2.376   3.042   1.926  0.3377  0.0345  0.0808
  203MOL   C11440918   2.243   3.030   1.909 -0.3042  0.2406  0.1048
  203MOL   C11540919   2.148   3.126   1.969 -0.3520 -0.5470 -0.5274
  203MOL   H11640920   2.526   3.016   1.789  0.0200 -1.2228 -1.4314
  203MOL   H11740921   2.428   2.882   1.791 -1.3048  0.7757  0.4361
  203MOL   H11840922   2.411   3.124   1.987  0.5155 -0.4923  0.6848
  203MOL   H11940923   2.198   2.953   1.849  0.0524 -0.4880  0.7646
  203MOL   H12040924   2.194   3.224   1.975 -1.3271 -0.0950 -0.3323
  203MOL   H12140925   2.120   3.094   2.070 -0.7911 -3.4304 -1.5076
  203MOL   C12240926   2.013   3.148   1.893 -0.1447  0.5881 -0.6456
  203MOL   C12340927   1.925   3.256   1.956  0.2526 -0.7144  1.0856
  203MOL   C12440928   1.787   3.255   1.958 -1.0241 -0.0888 -0.2866
  203MOL   C12540929   1.712   3.373   2.012 -0.1244 -0.1292  0.2084
  203MOL   H12640930   2.032   3.180   1.790 -2.6624  2.4895 -0.5528
  203MOL   H12740931   1.961   3.053   1.882  1.1963 -0.2377  0.0552
  203MOL   H12840932   1.978   3.340   1.998 -1.0223  0.6983 -0.0441
  203MOL   H12940933   1.735   3.180   1.900 -0.1408 -0.9096 -0.0350
  203MOL   H13040934   1.717   3.445   1.930  1.8199  2.0118  2.1330
  203MOL   H13140935   1.768   3.421   2.093  0.8566 -1.2074  0.1846
  203MOL   C13240936   1.561   3.343   2.043 -0.7752 -0.3759 -0.7811
  203MOL   C13340937   1.480   3.466   2.074  0.2776 -0.3062 -1.1751
  203MOL   C13440938   1.399   3.477   2.179 -0.5040 -0.3224 -0.2801
  203MOL   C13540939   1.302   3.591   2.195  0.6012 -0.2291 -1.1075
  203MOL   H13640940   1.517   3.296   1.955 -1.5286  2.0165 -1.7250
  203MOL   H13740941   1.545   3.270   2.122  2.7273 -1.2141 -0.7836
  203MOL   H13840942   1.489   3.546   2.002  0.9971 -0.4649 -1.2678
  203MOL   H13940943   1.392   3.392   2.245 -1.6675 -0.2495 -0.3098
  203MOL   H14040944   1.200   3.573   2.163  0.2559 -2.4091  1.0591
  203MOL   H14140945   1.334   3.678   2.138  0.9360  1.1129  1.0438
  203MOL   C14240946   1.280   3.623   2.343  0.2013  0.9163 -0.3869
  203MOL   C14340947   1.200   3.746   2.370  0.2477  0.3612  0.2395
  203MOL   C14440948   1.103   3.757   2.455 -0.5872  0.7254 -0.5705
  203MOL   C14540949   1.034   3.881   2.472  0.4441  0.0309  0.1203
  203MOL   H14640950   1.242   3.535   2.396  0.8273  0.2825 -0.9821
  203MOL   H14740951   1.375   3.650   2.388  0.4743 -0.0695 -0.3650
  203MOL   H14840952   1.226   3.825   2.301  2.0583 -0.6737 -0.2994
  203MOL   H14940953   1.075   3.678   2.523  0.3840 -1.8202 -3.0134
  203MOL   H15040954   1.011   3.928   2.376 -0.0141 -1.4140 -0.5016
  203MOL   H15140955   1.094   3.951   2.528 -0.4587 -0.7245  2.0919
  203MOL   C15240956   0.896   3.871   2.549 -0.6176  0.2260 -1.3203
  203MOL   C15340957   0.912   3.826   2.696  0.0405 -0.0304 -0.3615
  203MOL   C15440958   0.885   3.913   2.793  0.3130 -0.0510  0.8792
  203MOL   C15540959   0.894   3.883   2.946 -0.2808  0.6572 -0.4829
  203MOL   H15640960   0.850   3.970   2.541  0.6206  0.7197 -2.4684
  203MOL   H15740961   0.818   3.810   2.504 -3.0775  2.6624 -0.5124
  203MOL   H15840962   0.944   3.725   2.715  0.3408  0.4524  1.8516
  203MOL   H15940963   0.859   4.015   2.768  0.3599 -0.2145  0.1598
  203MOL   H16040964   0.919   3.780   2.968 -4.2584 -0.4397 -0.7863
  203MOL   H16140965   0.796   3.897   2.991 -0.7580 -2.4452 -0.4812
  203MOL   C16240966   0.989   3.976   3.025 -0.3807 -0.2666 -0.6409
  203MOL   C16340967   1.132   3.934   2.983 -0.6241 -0.4438  0.5747
  203MOL   C16440968   1.231   4.024   2.957  0.2362 -0.6827  0.0087
  203MOL   C16540969   1.368   3.980   2.911  0.7303 -0.2416 -0.3483
  203MOL   H16640970   0.964   4.079   2.999 -2.1233 -0.1764  1.2307
  203MOL   H16740971   0.981   3.957   3.133 -1.2946  2.3027 -0.2250
  203MOL   H16840972   1.148   3.827   2.981  4.6159  0.1812  1.3934
  203MOL   H16940973   1.224   4.131   2.956 -0.1006 -0.7022  0.2839
  203MOL   H17040974   1.371   4.017   2.808 -0.1644 -0.6017 -0.5093
  203MOL   H17140975   1.374   3.872   2.927  0.2114  0.0462  1.9476
  203MOL   C17240976   1.488   4.066   2.966 -0.1149  0.3894 -0.4465
  203MOL   C17340977   1.635   4.012   2.945 -0.0865  0.3667  0.2578
  203MOL   C17440978   1.725   4.066   2.861 -0.3566 -0.0413  0.1215
  203MOL   C17540979   1.859   3.996   2.833 -0.2368 -0.3145 -0.3206
  203MOL   H17640980   1.478   4.159   2.911 -1.6935 -0.1520 -1.1106
  203MOL   H17740981   1.463   4.080   3.071  1.9651 -0.4673  0.1918
  203MOL   H17840982   1.658   3.921   2.999 -1.3387 -0.9581 -1.3712
  203MOL   H17940983   1.707   4.154   2.801  0.4678  0.2233  0.2517
  203MOL   H18040984   1.842   3.889   2.847  1.5767 -0.6586 -0.5820
  203MOL   H18140985   1.939   4.018   2.903  0.3384 -1.3773 -0.6309
  203MOL   C18240986   1.896   4.029   2.688  0.3443 -0.5989 -0.7909
  203MOL   C18340987   2.022   3.953   2.646 -0.8919 -1.0370  0.8690
  203MOL   C18440988   2.049   3.931   2.519 -0.1264  0.9080  0.3586
  203MOL   C18540989   2.171   3.856   2.471 -0.2965 -0.4706  0.0639
  203MOL   H18640990   1.812   3.996   2.628 -0.8283  2.6901 -1.0575
  203MOL   H18740991   1.902   4.136   2.673 -2.6153 -0.4591 -1.1371
  203MOL   H18840992   2.086   3.916   2.724 -0.3346  0.4066  1.1140
  203MOL   H18940993   1.980   3.965   2.444  0.9339  1.8192 -0.2244
  203MOL   H19040994   2.139   3.770   2.413  0.7676 -0.2080 -0.9320
  203MOL   H19140995   2.228   3.808   2.550  3.0222 -0.2738 -2.1084
  203MOL   C19240996   2.262   3.946   2.382 -1.0985 -0.2440 -0.0816
  203MOL   C19340997   2.369   4.018   2.466 -0.0372  0.5496 -0.2746
  203MOL   C19440998   2.500   4.033   2.450  0.0922 -0.6737  0.7671
  203MOL   C19540999   2.594   4.105   2.547  0.8469  0.3185  0.4444
  203MOL   H19641000   2.306   3.889   2.300  0.1004  0.2620  0.2075
  203MOL   H19741001   2.195   4.022   2.342 -1.3073 -0.1642  0.4201
  203MOL   H19841002   2.331   4.070   2.553 -0.3323 -0.8162  0.4294
  203MOL   H19941003   2.542   3.991   2.360  0.5828  0.4109  0.4877
  203MOL   H20041004   2.546   4.124   2.643  0.2607 -2.2780  0.6949
  203MOL   H20141005   2.630   4.202   2.512 -1.0862  1.0412  0.4030
  203MOL   H20241006   2.679   4.044   2.580 -0.8058 -0.4423  3.4715
  204MOL     C141007   0.407   5.549   1.669 -0.0820 -0.1351  0.2238
  204MOL     C241008   0.507   5.517   1.775  0.2305 -0.2599  0.2822
  204MOL     C341009   0.575   5.397   1.783 -0.2654 -0.5071  0.0747
  204MOL     C441010   0.688   5.364   1.878  0.4514  0.1688 -0.0701
  204MOL     H541011   0.426   5.649   1.630 -0.2273  0.1652  0.9004
  204MOL     H641012   0.304   5.540   1.704 -0.3050 -1.5740 -0.7673
  204MOL     H741013   0.527   5.597   1.844  0.6999  0.7518 -1.0164
  204MOL     H841014   0.561   5.313   1.717  2.1863 -1.3334  0.5518
  204MOL     H941015   0.709   5.458   1.930  2.0170  0.1261 -0.5881
  204MOL    H1041016   0.773   5.343   1.813 -0.8762  1.9837 -2.5070
  204MOL    H1141017   0.410   5.484   1.582  1.2223  0.7666 -0.4249
  204MOL    C1241018   0.657   5.250   1.979 -0.3582  0.5487  0.4088
  204MOL    C1341019   0.652   5.120   1.909 -1.1202  0.0515  0.7077
  204MOL    C1441020   0.551   5.027   1.921 -0.0227 -0.5502 -0.3599
  204MOL    C1541021   0.551   4.892   1.861 -0.0627 -0.6015  0.2607
  204MOL    H1641022   0.731   5.248   2.060  0.4806  1.0429 -0.3403
  204MOL    H1741023   0.560   5.271   2.023 -0.2191  2.5934 -0.2105
  204MOL    H1841024   0.736   5.094   1.845  0.3043 -0.1242  2.6188
  204MOL    H1941025   0.460   5.044   1.977 -1.5638 -2.6851 -2.1385
  204MOL    H2041026   0.571   4.818   1.938  0.1039 -0.2429  0.5649
  204MOL    H2141027   0.629   4.888   1.785  0.3145 -0.4594  0.6387
  204MOL    C2241028   0.408   4.859   1.807 -0.3639  0.3080  0.6256
  204MOL    C2341029   0.301   4.866   1.919  0.1856 -0.2534 -0.8785
  204MOL    C2441030   0.175   4.904   1.891 -0.1129  0.0728  0.0126
  204MOL    C2541031   0.056   4.882   1.978  0.2260 -0.2370  0.1533
  204MOL    H2641032   0.387   4.922   1.720 -2.0540  0.4342  1.1203
  204MOL    H2741033   0.412   4.754   1.776  3.4796  0.1162  1.4695
  204MOL    H2841034   0.311   4.815   2.014 -3.1180  0.4287 -0.1187
  204MOL    H2941035   0.141   4.944   1.797 -1.4428  0.1447  0.5066
  204MOL    H3041036   0.008   4.980   1.976 -2.7944 -1.6612 -0.2003
  204MOL    H3141037   0.077   4.863   2.083 -0.7358 -1.1097  0.1905
  204MOL    C3241038   7.944   4.765   1.939 -0.3528  0.4331 -0.5330
  204MOL    C3341039   0.034   4.634   1.986 -0.0906 -0.1281 -0.7166
  204MOL    C3441040   7.929   4.545   2.045 -0.1634  0.4690  0.1038
  204MOL    C3541041   7.972   4.420   2.119 -0.7725 -0.3883 -0.3079
  204MOL    H3641042   7.846   4.773   1.986 -0.6035  0.3547 -1.0362
  204MOL    H3741043   7.921   4.760   1.833  0.7081 -0.9957 -0.7068
  204MOL    H3841044   0.141   4.619   1.984 -0.2529 -1.6866  1.0237
  204MOL    H3941045   7.822   4.559   2.046 -0.1171  0.8821 -0.5199
  204MOL    H4041046   0.104   4.413   2.124 -0.9110 -1.6230  2.4073
  204MOL    H4141047   7.947   4.334   2.056 -0.6238 -0.9731  0.4177
  204MOL    C4241048   7.912   4.408   2.253 -0.3546 -0.4741  0.2308
  204MOL    C4341049   7.929   4.269   2.307 -0.7120  0.0044 -0.1791
  204MOL    C4441050   7.830   4.179   2.324 -0.0262  0.2737  0.3549
  204MOL    C4541051   7.834   4.032   2.364 -0.0128 -0.7899 -0.0391
  204MOL    H4641052   7.966   4.474   2.321  0.2568  1.1333 -1.7577
  204MOL    H4741053   7.808   4.440   2.242 -0.8517 -1.2299  2.6203
  204MOL    H4841054   0.055   4.241   2.324 -0.6066  1.7467  2.2673
  204MOL    H4941055   7.729   4.217   2.317  0.7804  2.1189 -1.9174
  204MOL    H5041056   7.935   4.005   2.334  0.5675  1.0236  0.2022
  204MOL    H5141057   7.767   3.973   2.302  1.2380 -1.7424 -0.4940
  204MOL    C5241058   7.804   3.997   2.512 -0.2586  0.2291  0.0457
  204MOL    C5341059   7.863   3.859   2.553  0.0263  0.3484 -0.6851
  204MOL    C5441060   7.814   3.774   2.640 -1.2753 -0.5512 -0.2591
  204MOL    C5541061   7.864   3.638   2.680 -0.1352  0.1730  0.6329
  204MOL    H5641062   7.850   4.074   2.574  1.6153 -0.6719 -0.1776
  204MOL    H5741063   7.699   4.005   2.538 -0.8506 -0.5092 -2.0270
  204MOL    H5841064   7.945   3.823   2.492  0.5246 -1.1226  0.8247
  204MOL    H5941065   7.728   3.813   2.692 -0.9623  1.3106 -1.0658
  204MOL    H6041066   7.869   3.624   2.788 -0.5066  0.6389  0.7147
  204MOL    H6141067   7.961   3.619   2.635 -0.2208 -1.4595  1.1140
  204MOL    C6241068   7.763   3.531   2.646 -0.4993  0.0824  0.2077
  204MOL    C6341069   7.624   3.548   2.703  0.2543 -0.0339  0.3340
  204MOL    C6441070   7.511   3.508   2.645  0.6993  0.4056  0.0372
  204MOL    C6541071   7.371   3.544   2.690 -0.3333  0.4942 -0.3599
  204MOL    H6641072   7.758   3.522   2.538 -3.2031 -1.0677  0.4004
  204MOL    H6741073   7.814   3.441   2.681 -1.2733 -1.3240 -2.2001
  204MOL    H6841074   7.609   3.592   2.800 -1.4899 -1.0895  0.5673
  204MOL    H6941075   7.513   3.474   2.542  1.2210  2.2694 -0.5933
  204MOL    H7041076   7.368   3.593   2.787 -1.1186 -0.8609  0.3164
  204MOL    H7141077   7.315   3.451   2.695  0.3228  0.1618  0.8596
  204MOL    C7241078   7.291   3.630   2.587  0.4209 -0.0260  0.2936
  204MOL    C7341079   7.347   3.766   2.555  0.4581 -0.2026 -0.5250
  204MOL    C7441080   7.409   3.801   2.440 -0.6581 -0.5255  0.0668
  204MOL    C7541081   7.456   3.937   2.398  0.1345 -0.9417  0.1757
  204MOL    H7641082   7.284   3.571   2.496 -0.1535  0.2020  0.1930
  204MOL    H7741083   7.190   3.626   2.627  1.0244  0.2495  1.8925
  204MOL    H7841084   7.327   3.843   2.627  3.7326 -2.1652  2.6077
  204MOL    H7941085   7.428   3.733   2.357  0.2438 -0.1435 -0.0415
  204MOL    H8041086   7.561   3.928   2.370 -0.8831 -0.6188 -4.0575
  204MOL    H8141087   7.466   4.008   2.480 -1.9401 -1.1983  0.6891
  204MOL    C8241088   7.351   4.005   2.303 -0.4108 -0.2022  0.6757
  204MOL    C8341089   7.417   4.121   2.236 -0.3942  0.0342  0.2888
  204MOL    C8441090   7.372   4.244   2.262 -0.7152  0.4882  0.6386
  204MOL    C8541091   7.424   4.367   2.196  0.0042 -0.6433  0.0569
  204MOL    H8641092   7.316   3.940   2.223  1.0174 -1.4838  1.0640
  204MOL    H8741093   7.266   4.038   2.362  1.1075  0.1965  2.7136
  204MOL    H8841094   7.499   4.103   2.168 -0.8739  0.2631 -0.3536
  204MOL    H8941095   7.283   4.250   2.322  0.1508  1.7366  1.8424
  204MOL    H9041096   7.532   4.370   2.215  0.1418 -1.2500 -0.6061
  204MOL    H9141097   7.377   4.457   2.236 -0.1860 -1.0082  0.6623
  204MOL    C9241098   7.422   4.360   2.049 -0.0976  0.3747  0.1878
  204MOL    C9341099   7.461   4.496   1.995  0.4726 -0.5830  0.1353
  204MOL    C9441100   7.541   4.513   1.894  0.3185  0.1776  0.4091
  204MOL    C9541101   7.573   4.642   1.826  0.9047  0.1922  0.4308
  204MOL    H9641102   7.485   4.280   2.010 -2.1205 -2.0726  1.8431
  204MOL    H9741103   7.325   4.339   2.004  0.3826  0.3422 -0.8558
  204MOL    H9841104   7.394   4.579   2.015  0.1327 -0.9564  0.5498
  204MOL    H9941105   7.591   4.425   1.855  2.3451  2.0453 -1.3802
  204MOL   H10041106   7.680   4.646   1.805  0.9577  3.6547  1.0429
  204MOL   H10141107   7.547   4.713   1.905 -2.6274  0.0307 -0.4909
  204MOL   C10241108   7.500   4.656   1.687 -0.0500  0.6161  0.6918
  204MOL   C10341109   7.512   4.797   1.635  0.7481  0.1632  0.4611
  204MOL   C10441110   7.598   4.840   1.538  0.0752 -0.4188  0.1309
  204MOL   C10541111   7.593   4.989   1.506 -0.3462 -0.1775  0.2759
  204MOL   H10641112   7.549   4.588   1.617 -1.4168  0.9358 -0.5891
  204MOL   H10741113   7.394   4.634   1.692  0.5397 -2.7496 -0.5897
  204MOL   H10841114   7.462   4.873   1.693 -0.0430  2.8777 -3.5908
  204MOL   H10941115   7.655   4.765   1.486 -0.6850 -0.3903 -0.7494
  204MOL   H11041116   7.509   5.036   1.557 -1.3456 -0.3411 -1.1833
  204MOL   H11141117   7.560   5.005   1.403  0.7196 -1.8222 -0.3450
  204MOL   C11241118   7.716   5.073   1.536  0.5898  0.7646  0.0478
  204MOL   C11341119   7.836   5.045   1.447 -0.8845  0.5384 -0.1735
  204MOL   C11441120   7.942   4.973   1.481  0.0545 -0.3041 -0.2135
  204MOL   C11541121   0.080   4.927   1.394  0.6713 -0.3709  0.1624
  204MOL   H11641122   7.696   5.179   1.522 -1.9243  0.3068  0.0391
  204MOL   H11741123   7.732   5.069   1.644  2.9227  1.4900 -0.2386
  204MOL   H11841124   7.808   5.082   1.349 -4.3650 -1.4878 -0.0243
  204MOL   H11941125   7.941   4.950   1.586  2.5093 -0.1852 -0.1341
  204MOL   H12041126   0.150   5.011   1.393 -0.7720  0.8542  1.2062
  204MOL   H12141127   0.041   4.915   1.292  3.2264  1.9747 -1.1582
  204MOL   C12241128   0.147   4.796   1.438  0.0366 -0.7445 -0.2121
  204MOL   C12341129   0.037   4.697   1.475  0.3385 -0.1919 -0.2075
  204MOL   C12441130   0.052   4.602   1.574  0.2146  0.1594 -0.3293
  204MOL   C12541131   7.923   4.502   1.616  0.1428 -0.0673 -0.0215
  204MOL   H12641132   0.219   4.748   1.372 -1.5631 -1.4085 -1.5165
  204MOL   H12741133   0.204   4.805   1.530  0.6179 -0.7655 -0.5720
  204MOL   H12841134   7.918   4.700   1.427 -1.0406  0.3986  2.4958
  204MOL   H12941135   0.145   4.600   1.628  0.1049 -0.4295 -0.1631
  204MOL   H13041136   7.845   4.511   1.540 -0.1167  1.1910  0.3866
  204MOL   H13141137   7.873   4.525   1.710 -3.3149  0.1456 -1.8474
  204MOL   C13241138   7.970   4.354   1.627  0.5329  0.0130 -0.0217
  204MOL   C13341139   7.851   4.272   1.667 -0.0148  0.4541 -0.7475
  204MOL   C13441140   7.839   4.188   1.777  0.4623 -0.3554  0.1410
  204MOL   C13541141   7.712   4.110   1.815  0.6941 -0.0289  0.3986
  204MOL   H13641142   0.037   4.342   1.528  0.3818  0.4452 -0.1413
  204MOL   H13741143   0.066   4.355   1.708  1.1931 -0.2914 -0.6038
  204MOL   H13841144   7.768   4.265   1.598  0.2046 -0.1187 -0.9596
  204MOL   H13941145   7.925   4.168   1.838  1.0223 -1.0764 -0.8633
  204MOL   H14041146   7.659   4.168   1.890  1.3147 -0.7694  1.4246
  204MOL   H14141147   7.742   4.019   1.867  1.8198  0.2579  0.2577
  204MOL   C14241148   7.623   4.071   1.693  0.1587  0.0651 -0.3281
  204MOL   C14341149   7.682   3.951   1.620  0.5498  0.3282 -0.5759
  204MOL   C14441150   7.624   3.830   1.620  0.1573 -0.0012 -0.3370
  204MOL   C14541151   7.681   3.717   1.538  0.1700  0.2056 -0.0187
  204MOL   H14641152   7.524   4.054   1.735  0.3453  0.0243  0.0930
  204MOL   H14741153   7.616   4.147   1.614  0.5122  1.4896  0.9800
  204MOL   H14841154   7.772   3.959   1.560  0.1625  1.0448 -1.0781
  204MOL   H14941155   7.539   3.804   1.681  0.7559  0.5730  0.7722
  204MOL   H15041156   7.758   3.761   1.475 -0.5328  0.8037 -0.4685
  204MOL   H15141157   7.611   3.684   1.461 -0.7101  1.4379  0.2269
  204MOL   C15241158   7.739   3.599   1.615 -0.0718 -0.2845  0.2021
  204MOL   C15341159   7.809   3.497   1.525 -0.3149 -1.0889  0.6422
  204MOL   C15441160   7.752   3.386   1.483  0.2965 -0.2653 -0.1047
  204MOL   C15541161   7.832   3.275   1.407 -0.6791 -0.0103  1.0267
  204MOL   H15641162   7.815   3.637   1.683  1.9543 -1.6780 -1.2299
  204MOL   H15741163   7.672   3.537   1.674 -0.1782 -2.5978 -2.2909
  204MOL   H15841164   7.914   3.515   1.508 -0.1230 -2.7804  0.0123
  204MOL   H15941165   7.646   3.368   1.494  0.1710  0.5878  0.1379
  204MOL   H16041166   7.813   3.176   1.448 -0.9354 -0.0539  0.8013
  204MOL   H16141167   7.940   3.286   1.422 -0.5522 -0.6174  0.5546
  204MOL   C16241168   7.810   3.278   1.254  0.2705 -0.0732  0.4622
  204MOL   C16341169   7.887   3.392   1.198  0.0472  0.3321  0.0934
  204MOL   C16441170   7.969   3.387   1.093 -0.6374  0.5066  0.1956
  204MOL   C16541171   0.061   3.504   1.025  0.1015 -1.5233  0.7805
  204MOL   H16641172   7.848   3.191   1.200  0.2114  0.4760 -0.4887
  204MOL   H16741173   7.703   3.291   1.238  0.6361  0.7607 -1.4507
  204MOL   H16841174   7.855   3.482   1.248 -0.0936  1.0569 -1.2738
  204MOL   H16941175   0.011   3.288   1.053 -1.5114  0.0082  0.9934
  204MOL   H17041176   0.021   3.600   1.057  0.9864 -0.4189 -1.3528
  204MOL   H17141177   0.031   3.501   0.920  0.8376 -2.0524  0.5770
  204MOL   C17241178   0.213   3.506   1.027 -0.1588  0.3510 -0.1923
  204MOL   C17341179   0.285   3.614   0.947  0.4471  0.6043  0.4968
  204MOL   C17441180   0.383   3.694   0.995 -0.3545  0.0034  0.6794
  204MOL   C17541181   0.458   3.802   0.919 -0.1948  0.2330  0.7857
  204MOL   H17641182   0.251   3.517   1.128  1.5057  1.4276 -0.9014
  204MOL   H17741183   0.250   3.414   0.983 -0.3944  0.1916 -0.0503
  204MOL   H17841184   0.243   3.636   0.849  1.7083  2.3315  0.3253
  204MOL   H17941185   0.412   3.667   1.095  0.5109  1.3636  0.7933
  204MOL   H18041186   0.425   3.897   0.962 -0.1647  1.0999 -1.0705
  204MOL   H18141187   0.421   3.818   0.818 -0.2834  0.0385  0.7883
  204MOL   C18241188   0.610   3.792   0.922 -0.8871  0.1042  0.1639
  204MOL   C18341189   0.685   3.916   0.895 -0.4910  0.1316  0.3130
  204MOL   C18441190   0.809   3.918   0.849 -0.2554 -0.2296  0.2013
  204MOL   C18541191   0.891   4.044   0.833 -0.6195 -0.3169 -0.6871
  204MOL   H18641192   0.645   3.760   1.020  0.2913  1.8255  0.3127
  204MOL   H18741193   0.648   3.710   0.861  0.5505  0.3335  0.7484
  204MOL   H18841194   0.631   4.007   0.916 -3.0944 -1.3651  0.3344
  204MOL   H18941195   0.865   3.826   0.841  1.4296  0.5797  2.3277
  204MOL   H19041196   0.919   4.088   0.928 -0.5500  1.0722 -1.3243
  204MOL   H19141197   0.828   4.113   0.776  0.4780  0.9835 -0.3612
  204MOL   C19241198   1.022   4.019   0.758 -0.0685  0.3350 -0.0538
  204MOL   C19341199   1.093   4.152   0.722 -1.0847 -0.2047 -0.4392
  204MOL   C19441200   1.218   4.179   0.764  0.1651 -0.7492  0.6179
  204MOL   C19541201   1.293   4.307   0.731 -0.1697 -0.5310  0.1899
  204MOL   H19641202   1.088   3.953   0.816 -0.4802  1.6194  1.9366
  204MOL   H19741203   0.995   3.972   0.664  0.5871  0.2806 -0.2167
  204MOL   H19841204   1.044   4.216   0.650 -0.8904 -0.4865 -0.8240
  204MOL   H19941205   1.262   4.106   0.830 -1.3542 -0.9994  1.3630
  204MOL   H20041206   1.236   4.363   0.656  1.3832  1.3894  0.4027
  204MOL   H20141207   1.389   4.278   0.687  0.0366  2.3280 -1.3762
  204MOL   H20241208   1.307   4.363   0.823  0.7048  0.1695 -0.3602
  205MOL     C141209   6.587   5.511   1.125 -0.2729  0.1457 -0.3309
  205MOL     C241210   6.506   5.503   0.997 -0.1566  0.1998 -0.6923
  205MOL     C341211   6.426   5.399   0.970 -0.7215 -0.2513 -0.2807
  205MOL     C441212   6.346   5.380   0.848 -0.1421 -0.1920  0.5401
  205MOL     H541213   6.692   5.519   1.095 -0.1081 -0.6836  0.0273
  205MOL     H641214   6.572   5.425   1.190 -0.9565 -0.1024 -0.8152
  205MOL     H741215   6.523   5.577   0.921 -1.7227 -0.0005 -1.2682
  205MOL     H841216   6.405   5.332   1.052  3.1061  0.7774  1.6578
  205MOL     H941217   6.360   5.274   0.827 -1.7404 -0.2309 -0.3620
  205MOL    H1041218   6.379   5.444   0.766  1.1077  1.2211  2.0994
  205MOL    H1141219   6.570   5.594   1.194  0.5613  0.8716 -0.9796
  205MOL    C1241220   6.205   5.407   0.870  0.1173  0.2342 -0.9136
  205MOL    C1341221   6.110   5.398   0.747  0.2072  0.0754  0.6418
  205MOL    C1441222   6.146   5.349   0.627  0.2908 -0.7926  0.2939
  205MOL    C1541223   6.050   5.329   0.509  0.1509  0.2551  0.2320
  205MOL    H1641224   6.160   5.339   0.942  1.2081 -1.5342 -1.8679
  205MOL    H1741225   6.190   5.503   0.919  0.5128  0.2294 -0.7797
  205MOL    H1841226   6.012   5.440   0.761 -0.1233 -0.0903 -1.1138
  205MOL    H1941227   6.244   5.307   0.610 -1.0685 -3.0309 -2.3894
  205MOL    H2041228   5.945   5.353   0.521 -0.4748 -0.5738 -3.0624
  205MOL    H2141229   6.054   5.221   0.494 -2.1871  0.3211 -1.1479
  205MOL    C2241230   6.092   5.399   0.370  0.2266 -0.0996 -0.3012
  205MOL    C2341231   6.224   5.355   0.311  0.5850 -0.3698 -0.4360
  205MOL    C2441232   6.232   5.263   0.216  0.4024  0.4294  0.2781
  205MOL    C2541233   6.362   5.218   0.159 -0.1519  0.3367  0.8477
  205MOL    H2641234   6.019   5.387   0.290  0.9697  0.9606 -1.1559
  205MOL    H2741235   6.086   5.507   0.387 -2.0841 -0.1597 -0.5933
  205MOL    H2841236   6.313   5.406   0.345  0.9419 -1.2324 -0.0720
  205MOL    H2941237   6.141   5.222   0.176 -0.3581  0.7703  1.6219
  205MOL    H3041238   6.449   5.253   0.214  2.2097 -3.9638  0.0651
  205MOL    H3141239   6.370   5.258   0.058  1.8605 -0.7919  0.5304
  205MOL    C3241240   6.400   5.067   0.146 -0.1808 -0.3093 -0.1762
  205MOL    C3341241   6.285   4.973   0.107  0.4327  0.4216  0.1091
  205MOL    C3441242   6.259   4.863   0.178 -0.2833 -0.3848  0.2257
  205MOL    C3541243   6.151   4.762   0.150  0.4624  0.3355  0.2849
  205MOL    H3641244   6.488   5.059   0.082  1.6887 -1.0265  2.4012
  205MOL    H3741245   6.434   5.049   0.248 -2.1395  1.6415  0.8704
  205MOL    H3841246   6.230   4.997   0.017  1.0786  0.6781 -0.2195
  205MOL    H3941247   6.315   4.843   0.269  2.2175  1.5275 -0.8318
  205MOL    H4041248   6.103   4.743   0.247 -0.6821  1.1682 -0.1030
  205MOL    H4141249   6.202   4.673   0.115  1.8123  1.3087 -0.2303
  205MOL    C4241250   6.047   4.814   0.043 -0.3287  0.5569 -0.2683
  205MOL    C4341251   5.923   4.719   0.035 -0.3598  0.7093  1.2683
  205MOL    C4441252   5.800   4.763   0.070 -0.0658  0.3502 -0.4828
  205MOL    C4541253   5.695   4.658   0.055 -0.1584  1.2994 -0.4546
  205MOL    H4641254   6.015   4.917   0.057 -1.3325  0.3922 -1.3405
  205MOL    H4741255   6.095   4.813   7.922  0.3983  1.3530  0.0795
  205MOL    H4841256   5.946   4.622   7.971  1.4838  2.2327 -1.4894
  205MOL    H4941257   5.797   4.860   0.118 -1.7395 -0.5716  1.3343
  205MOL    H5041258   5.715   4.578   7.960 -1.8858  1.5789 -1.2748
  205MOL    H5141259   5.616   4.706   7.974  0.8504  1.7126 -1.4982
  205MOL    C5241260   5.638   4.599   0.189 -0.1033  0.1780 -0.3091
  205MOL    C5341261   5.575   4.463   0.179 -0.0498 -0.1760  0.9886
  205MOL    C5441262   5.573   4.367   0.268 -0.6218  0.0489 -0.6015
  205MOL    C5541263   5.516   4.230   0.257  0.5274 -0.3241  0.0482
  205MOL    H5641264   5.718   4.604   0.263  0.0106  0.8660 -0.4688
  205MOL    H5741265   5.561   4.667   0.227  0.1585  0.0397  0.4691
  205MOL    H5841266   5.524   4.444   0.087  1.0087 -1.4598  0.6469
  205MOL    H5941267   5.631   4.390   0.357  0.1640 -1.3002 -0.7502
  205MOL    H6041268   5.588   4.150   0.276 -1.5784 -2.2593  0.1596
  205MOL    H6141269   5.481   4.211   0.155 -0.1264 -2.2782  0.6148
  205MOL    C6241270   5.397   4.217   0.355  0.3383  0.2281 -0.0398
  205MOL    C6341271   5.441   4.209   0.504  0.2866 -0.0178 -0.2267
  205MOL    C6441272   5.415   4.102   0.579 -0.7379  0.1524  0.3508
  205MOL    C6541273   5.468   4.067   0.719  0.1463 -0.8624  0.1391
  205MOL    H6641274   5.325   4.298   0.348 -0.5700 -0.3323  2.3121
  205MOL    H6741275   5.332   4.134   0.329 -2.0619  1.8409  0.6544
  205MOL    H6841276   5.506   4.285   0.545  1.0069 -1.6440  1.7426
  205MOL    H6941277   5.340   4.032   0.548 -1.5888  1.9183 -1.7069
  205MOL    H7041278   5.538   4.146   0.744 -0.5893 -0.9328  2.5760
  205MOL    H7141279   5.534   3.981   0.718 -0.1190 -1.0719  0.5831
  205MOL    C7241280   5.351   4.050   0.815 -0.0356  0.2664 -0.7570
  205MOL    C7341281   5.390   4.036   0.962  0.1485 -0.8310 -0.3161
  205MOL    C7441282   5.391   4.144   1.041  0.0894  0.4926  0.4024
  205MOL    C7541283   5.421   4.141   1.190  0.3296 -0.1838 -0.4306
  205MOL    H7641284   5.293   4.140   0.798  0.2694  0.6194  0.0516
  205MOL    H7741285   5.296   3.963   0.778 -1.9447  0.7476  0.8976
  205MOL    H7841286   5.414   3.938   1.001 -0.6935 -1.1560 -0.6205
  205MOL    H7941287   5.374   4.244   1.004 -0.6203  0.4409  0.5768
  205MOL    H8041288   5.483   4.224   1.224 -0.2025 -0.6149  1.7020
  205MOL    H8141289   5.483   4.053   1.210  0.5988  0.2324  0.6066
  205MOL    C8241290   5.284   4.148   1.276 -0.1650  0.0192 -0.1403
  205MOL    C8341291   5.176   4.060   1.226 -0.1668  0.1301  0.7938
  205MOL    C8441292   5.058   4.102   1.171 -0.6628  0.0277  0.2771
  205MOL    C8541293   4.944   4.004   1.149  0.9611  0.6514 -0.5245
  205MOL    H8641294   5.313   4.110   1.374  0.5614 -1.4062 -0.8948
  205MOL    H8741295   5.260   4.253   1.292 -0.0421  0.0191  0.0547
  205MOL    H8841296   5.184   3.955   1.250 -1.2665  0.2505  1.7336
  205MOL    H8941297   5.038   4.205   1.150 -0.4699 -0.1566 -0.8032
  205MOL    H9041298   4.980   3.909   1.189 -1.6524  0.0773  0.5850
  205MOL    H9141299   4.939   3.988   1.041 -0.5157 -0.9598 -0.2473
  205MOL    C9241300   4.810   4.040   1.217 -0.5127  0.0834  0.1352
  205MOL    C9341301   4.692   3.953   1.195 -0.1957 -0.1352  0.0030
  205MOL    C9441302   4.582   3.998   1.146 -0.2986 -0.4555 -0.0049
  205MOL    C9541303   4.451   3.918   1.119 -0.5019 -0.7212  0.0615
  205MOL    H9641304   4.826   4.050   1.324 -0.9814 -3.2496  0.5505
  205MOL    H9741305   4.771   4.140   1.198  1.5995  0.4687 -2.4698
  205MOL    H9841306   4.705   3.847   1.213  2.8568  0.2887  0.5749
  205MOL    H9941307   4.570   4.103   1.124 -1.1724 -0.0470  2.2489
  205MOL   H10041308   4.470   3.811   1.110 -0.5887 -0.5863 -1.8029
  205MOL   H10141309   4.427   3.959   1.021  0.1905  1.2405  0.6910
  205MOL   C10241310   4.342   3.957   1.223 -0.2248 -0.0855 -0.3531
  205MOL   C10341311   4.389   3.920   1.359  0.3535  1.0260  0.1185
  205MOL   C10441312   4.327   3.822   1.434  0.4308  0.6261  0.4839
  205MOL   C10541313   4.366   3.783   1.576 -0.0623 -0.1145  0.1481
  205MOL   H10641314   4.341   4.066   1.225  0.0823 -0.0641 -1.5764
  205MOL   H10741315   4.246   3.916   1.190 -0.4493 -0.6076  0.8841
  205MOL   H10841316   4.471   3.976   1.400  3.2629 -1.7386 -1.6805
  205MOL   H10941317   4.244   3.770   1.388  0.0163  0.4461  1.4231
  205MOL   H11041318   4.467   3.819   1.593  0.3614 -0.2120 -2.0056
  205MOL   H11141319   4.366   3.674   1.572 -2.6300 -0.1239 -0.8575
  205MOL   C11241320   4.260   3.840   1.676 -0.2934  0.1086  0.1419
  205MOL   C11341321   4.294   3.796   1.820  1.5242  0.8560  0.0384
  205MOL   C11441322   4.246   3.861   1.928  0.0543  0.1435  0.3961
  205MOL   C11541323   4.290   3.812   2.068 -0.6464 -0.7268 -0.9801
  205MOL   H11641324   4.258   3.949   1.663  0.3447  0.1378  0.2606
  205MOL   H11741325   4.165   3.792   1.656  0.8626 -1.3703 -1.9296
  205MOL   H11841326   4.369   3.717   1.824 -3.5498 -4.2746  0.8241
  205MOL   H11941327   4.170   3.937   1.939 -0.2122  0.1760 -1.4943
  205MOL   H12041328   4.366   3.736   2.049  0.5754  0.5950 -1.4229
  205MOL   H12141329   4.199   3.766   2.107  0.1119  0.3854  2.2645
  205MOL   C12241330   4.332   3.929   2.157  0.1894 -0.4166 -0.0170
  205MOL   C12341331   4.351   3.884   2.304 -0.2524  0.1743  0.4535
  205MOL   C12441332   4.306   3.947   2.414 -0.6754 -0.5213  0.1435
  205MOL   C12541333   4.316   3.895   2.555  0.4960  0.1072 -0.2312
  205MOL   H12641334   4.424   3.965   2.112  0.4634 -1.0866 -0.0084
  205MOL   H12741335   4.262   4.012   2.157  0.2466 -0.3620  0.6881
  205MOL   H12841336   4.391   3.784   2.304 -1.3082 -0.2553  2.0790
  205MOL   H12941337   4.264   4.046   2.403 -1.1601 -0.9958 -2.4707
  205MOL   H13041338   4.401   3.936   2.610  1.2246 -2.0386  0.2785
  205MOL   H13141339   4.323   3.787   2.560 -0.1100  0.1407  1.8008
  205MOL   C13241340   4.191   3.928   2.640  0.3652  0.4358 -0.1663
  205MOL   C13341341   4.208   3.887   2.786  0.3568  0.0009  0.5148
  205MOL   C13441342   4.135   3.793   2.842  0.0767  0.6068  0.7942
  205MOL   C13541343   4.151   3.755   2.991  0.3493 -0.0750 -0.0679
  205MOL   H13641344   4.163   4.032   2.624 -1.5090 -0.2128 -1.2220
  205MOL   H13741345   4.096   3.884   2.610 -0.2971  1.3886  0.5084
  205MOL   H13841346   4.278   3.950   2.839 -0.2570  1.4295 -0.3324
  205MOL   H13941347   4.065   3.741   2.778  0.3387  2.4857 -1.0408
  205MOL   H14041348   4.059   3.785   3.041  0.1107 -0.3756 -0.3200
  205MOL   H14141349   4.227   3.801   3.054  0.9951 -0.2019 -0.7389
  205MOL   C14241350   4.160   3.600   3.002 -0.2053 -0.0657 -0.2618
  205MOL   C14341351   4.231   3.571   3.130  0.3527 -0.2124 -0.0978
  205MOL   C14441352   4.348   3.503   3.139  0.2883  0.0296 -0.4151
  205MOL   C14541353   4.433   3.475   3.267 -0.3237 -0.3650  0.1165
  205MOL   H14641354   4.058   3.561   3.002 -0.7014  1.1240 -3.0004
  205MOL   H14741355   4.219   3.561   2.919  0.1611  0.0477 -0.0530
  205MOL   H14841356   4.208   3.612   3.227  0.5151  1.1630 -0.6322
  205MOL   H14941357   4.386   3.452   3.052  0.7551 -1.1687  0.4844
  205MOL   H15041358   4.432   3.368   3.290 -0.8888 -0.5879 -0.8959
  205MOL   H15141359   4.393   3.540   3.344  2.7160  0.6311  0.9408
  205MOL   C15241360   4.577   3.507   3.231  0.0625 -0.0134 -0.2502
  205MOL   C15341361   4.597   3.635   3.159  0.0001 -0.4365  0.8711
  205MOL   C15441362   4.581   3.754   3.223 -0.9543 -0.1449 -0.3730
  205MOL   C15541363   4.586   3.894   3.164  0.3279 -0.3535 -0.1675
  205MOL   H15641364   4.643   3.513   3.318  1.1269  1.0039 -1.1003
  205MOL   H15741365   4.629   3.420   3.190  0.9695 -0.1577  1.1908
  205MOL   H15841366   4.628   3.630   3.056  2.6091  1.0187  1.5390
  205MOL   H15941367   4.549   3.760   3.325  1.6996  2.3281  0.3754
  205MOL   H16041368   4.595   3.896   3.056  1.2719 -0.7449 -0.1051
  205MOL   H16141369   4.677   3.947   3.190 -1.0039  2.3972 -1.0018
  205MOL   C16241370   4.465   3.977   3.209  0.1821  0.2216 -0.1294
  205MOL   C16341371   4.475   4.117   3.153 -0.1411 -0.1571 -0.2866
  205MOL   C16441372   4.509   4.223   3.224 -1.0293 -0.6062 -0.6109
  205MOL   C16541373   4.510   4.368   3.192 -0.3391  0.0780  0.4250
  205MOL   H16641374   4.369   3.938   3.176  1.5042 -1.4050 -2.1203
  205MOL   H16741375   4.453   3.982   3.317  1.3456  0.5222 -0.0109
  205MOL   H16841376   4.450   4.128   3.049 -1.2279 -1.2604 -0.1552
  205MOL   H16941377   4.519   4.202   3.330 -3.0096  3.4272  0.4984
  205MOL   H17041378   4.498   4.376   3.084  0.7875  2.0580  0.4209
  205MOL   H17141379   4.610   4.411   3.204  0.3287 -1.4205  0.3686
  205MOL   C17241380   4.395   4.443   3.255  0.0329 -0.2711 -0.3841
  205MOL   C17341381   4.407   4.588   3.232 -0.3403 -0.5172  0.2172
  205MOL   C17441382   4.415   4.679   3.337  0.0083 -0.1507  0.2885
  205MOL   C17541383   4.417   4.827   3.327  0.1412  0.4263  0.4219
  205MOL   H17641384   4.302   4.420   3.204 -0.9086  0.7294  0.8746
  205MOL   H17741385   4.381   4.416   3.359 -3.0020  1.3845 -0.3160
  205MOL   H17841386   4.402   4.628   3.132  1.3025 -1.0565 -0.0861
  205MOL   H17941387   4.427   4.642   3.438  1.2107 -2.4478 -0.6320
  205MOL   H18041388   4.329   4.869   3.376 -0.7927  0.8255 -1.5463
  205MOL   H18141389   4.409   4.858   3.223 -0.7660  1.7414  0.8702
  205MOL   C18241390   4.549   4.883   3.390 -0.0704 -0.4083 -0.2837
  205MOL   C18341391   4.553   5.038   3.415 -0.4216  0.1025 -0.3550
  205MOL   C18441392   4.453   5.124   3.375  0.5209 -0.3191 -0.2748
  205MOL   C18541393   4.454   5.272   3.394  0.5842 -0.4579 -0.7851
  205MOL   H18641394   4.567   4.839   3.488  0.2500  0.3154 -0.0162
  205MOL   H18741395   4.621   4.861   3.312  0.9065  0.9086  0.2282
  205MOL   H18841396   4.635   5.077   3.474 -0.7773 -0.4766  0.5157
  205MOL   H18941397   4.368   5.086   3.322  2.3115 -2.4959 -1.6782
  205MOL   H19041398   4.521   5.298   3.476  0.0581 -0.2177 -0.4274
  205MOL   H19141399   4.362   5.304   3.443 -0.0739 -0.8579 -1.7311
  205MOL   C19241400   4.482   5.354   3.270 -0.1088 -0.0312 -0.8329
  205MOL   C19341401   4.444   5.501   3.281  0.0733  0.4104 -0.0779
  205MOL   C19441402   4.357   5.566   3.202  0.0073  0.7348 -0.2928
  205MOL   C19541403   4.322   5.714   3.220 -0.1018  0.1430 -0.3474
  205MOL   H19641404   4.582   5.345   3.229 -0.3131 -0.0611 -1.3282
  205MOL   H19741405   4.410   5.314   3.198 -3.2540  0.6428  1.7912
  205MOL   H19841406   4.494   5.558   3.357  1.3185 -0.7871  0.0335
  205MOL   H19941407   4.312   5.516   3.118 -0.2058  0.3447  0.0477
  205MOL   H20041408   4.214   5.721   3.232 -0.0743  0.0575 -0.0473
  205MOL   H20141409   4.344   5.769   3.129  1.9930 -0.5344 -0.2592
  205MOL   H20241410   4.367   5.768   3.304  0.3956 -1.9100  0.7222
  206MOL     C141411   5.275   7.456   3.907  0.3395  1.0192 -0.1079
  206MOL     C241412   5.283   7.377   4.038 -0.2597  0.1351 -0.5087
  206MOL     C341413   5.288   7.246   4.039  0.0426  0.1229  0.3608
  206MOL     C441414   5.288   7.157   4.163 -0.6930 -0.6485 -0.1795
  206MOL     H541415   5.371   7.503   3.886  0.3852  0.8467 -0.2933
  206MOL     H641416   5.192   7.526   3.912 -0.6961 -0.2728  1.1554
  206MOL     H741417   5.298   7.429   4.131 -0.8467  0.0893 -0.3848
  206MOL     H841418   5.271   7.198   3.943 -0.0258 -0.3720  0.6189
  206MOL     H941419   5.186   7.133   4.191 -0.9093  1.0183  0.5335
  206MOL    H1041420   5.344   7.216   4.236 -0.6622  0.1210 -0.8290
  206MOL    H1141421   5.248   7.390   3.825  1.8110  0.0140  0.2011
  206MOL    C1241422   5.371   7.031   4.128 -0.4551  0.6028 -0.1570
  206MOL    C1341423   5.512   7.065   4.092  0.1878 -0.7528 -1.1292
  206MOL    C1441424   5.610   7.097   4.180  0.4236  0.0502 -1.0101
  206MOL    C1541425   5.748   7.148   4.156  0.0141 -0.4919  0.3288
  206MOL    H1641426   5.369   6.961   4.212 -0.3887  0.6273 -0.1350
  206MOL    H1741427   5.324   6.983   4.042  0.3947  0.8009 -0.7300
  206MOL    H1841428   5.530   7.083   3.987 -0.4765  1.1114 -0.9446
  206MOL    H1941429   5.583   7.070   4.281  1.2578  0.7888 -0.5811
  206MOL    H2041430   5.764   7.244   4.204 -0.7597 -0.8467  1.3046
  206MOL    H2141431   5.757   7.167   4.049 -1.2972  2.1729  0.6472
  206MOL    C2241432   5.849   7.049   4.218 -0.0559 -0.2678 -0.6658
  206MOL    C2341433   5.990   7.110   4.228  0.0156  0.3387  0.4923
  206MOL    C2441434   6.095   7.035   4.184 -0.0541  0.2950 -0.4092
  206MOL    C2541435   6.229   7.084   4.194  0.0277  0.6112 -0.1691
  206MOL    H2641436   5.815   7.024   4.318 -0.2956  1.1626 -0.3761
  206MOL    H2741437   5.845   6.957   4.160  3.1608 -0.4105 -0.7275
  206MOL    H2841438   5.998   7.207   4.275 -1.5594 -0.4910  2.5327
  206MOL    H2941439   6.082   6.936   4.143  0.3029  0.0957 -0.0465
  206MOL    H3041440   6.288   7.016   4.256 -0.4436  1.0958  0.8087
  206MOL    H3141441   6.231   7.178   4.249 -0.5509  0.4729  0.0940
  206MOL    C3241442   6.297   7.102   4.050 -0.5670 -0.0710  0.2125
  206MOL    C3341443   6.434   7.168   4.060  0.0515  0.4939  0.5089
  206MOL    C3441444   6.475   7.286   4.016  0.2320 -0.6225  0.1136
  206MOL    C3541445   6.618   7.348   4.032 -0.4186 -0.5820  0.2303
  206MOL    H3641446   6.300   7.007   3.997 -1.8472 -0.6961  1.2268
  206MOL    H3741447   6.231   7.158   3.984  0.8436 -0.1928 -1.3233
  206MOL    H3841448   6.503   7.101   4.111  0.1013  0.1329 -0.0232
  206MOL    H3941449   6.397   7.347   3.973  1.7240  1.1306 -0.1489
  206MOL    H4041450   6.685   7.261   4.033 -0.1408 -0.3695  0.1338
  206MOL    H4141451   6.628   7.394   4.130  0.0751 -0.6432  0.2122
  206MOL    C4241452   6.653   7.457   3.935 -0.1824 -1.0155  0.0575
  206MOL    C4341453   6.791   7.509   3.949 -0.3222  0.3101 -0.0020
  206MOL    C4441454   6.850   7.566   3.842  0.2000 -0.6493 -0.1071
  206MOL    C4541455   6.989   7.633   3.839  0.0838 -0.8162 -0.3236
  206MOL    H4641456   6.641   7.424   3.831 -0.3700 -1.7629  0.3099
  206MOL    H4741457   6.594   7.544   3.960 -0.5423 -0.7665 -1.5808
  206MOL    H4841458   6.848   7.510   4.040  1.5667 -0.4504 -1.1382
  206MOL    H4941459   6.794   7.576   3.750  0.1592 -1.8079 -0.2218
  206MOL    H5041460   7.062   7.572   3.786  1.2918 -0.9020  1.4102
  206MOL    H5141461   7.027   7.647   3.940  0.3304 -0.0632 -0.5224
  206MOL    C5241462   6.986   7.768   3.772  0.2879  0.3046  0.1626
  206MOL    C5341463   7.088   7.868   3.821  1.0646 -0.6872 -0.0303
  206MOL    C5441464   7.198   7.913   3.754  0.4345 -0.2083  0.1658
  206MOL    C5541465   7.305   0.025   3.811  0.1080 -0.2387  0.1663
  206MOL    H5641466   6.997   7.764   3.663  0.1322  0.1314  0.1533
  206MOL    H5741467   6.887   7.810   3.791 -0.1314 -0.6551  0.1316
  206MOL    H5841468   7.069   7.902   3.921 -1.1323 -0.9942 -0.3116
  206MOL    H5941469   7.217   7.870   3.657  1.9598 -2.2476  1.3397
  206MOL    H6041470   7.287   0.038   3.918 -1.6676 -1.3615  0.0334
  206MOL    H6141471   7.303   0.123   3.764  3.1583  1.0998  2.6898
  206MOL    C6241472   7.441   7.933   3.810 -0.2069  0.7718  0.1429
  206MOL    C6341473   7.545   0.049   3.862 -0.4972  0.5901 -0.2777
  206MOL    C6441474   7.618   0.048   3.978 -0.4913  0.1180 -1.5032
  206MOL    C6541475   7.724   0.150   4.024 -0.4472 -0.0194 -0.0288
  206MOL    H6641476   7.427   7.846   3.874 -0.9307 -0.3778 -1.5644
  206MOL    H6741477   7.479   7.893   3.716  0.0769 -0.4020  0.7558
  206MOL    H6841478   7.555   0.128   3.789 -0.9863  0.8715 -0.0416
  206MOL    H6941479   7.610   7.937   4.041 -0.0656 -0.6196 -2.4705
  206MOL    H7041480   7.734   0.236   3.957  0.2675 -0.3065 -0.2959
  206MOL    H7141481   7.818   0.096   4.019 -0.3987  0.0235  0.4119
  206MOL    C7241482   7.705   0.200   4.165  0.2449  0.6939  0.2782
  206MOL    C7341483   7.799   0.313   4.189 -0.2768 -0.5968 -0.0861
  206MOL    C7441484   7.905   0.312   4.270 -0.1791  0.5595  0.4513
  206MOL    C7541485   0.029   0.428   4.264 -0.1140  0.8513 -0.4350
  206MOL    H7641486   7.599   0.227   4.173  0.2715  0.9856 -0.2991
  206MOL    H7741487   7.744   0.123   4.231  0.5465  0.9755  0.4241
  206MOL    H7841488   7.781   0.405   4.134  1.2443  0.1139  0.5768
  206MOL    H7941489   7.930   0.231   4.337  1.1038  1.3049  0.8817
  206MOL    H8041490   0.067   0.447   4.364 -1.0818  0.9425 -0.0855
  206MOL    H8141491   7.952   0.514   4.224  0.9340  1.8379  0.2560
  206MOL    C8241492   0.153   0.402   4.175 -0.3703  0.2893  0.8222
  206MOL    C8341493   0.143   0.337   4.039  1.1820 -0.3272 -0.1066
  206MOL    C8441494   0.127   0.400   3.917 -0.7371 -0.4146 -0.7435
  206MOL    C8541495   0.114   0.337   3.777  0.2110  0.3589 -0.0760
  206MOL    H8641496   0.199   0.496   4.144  0.2531  0.2728  1.6950
  206MOL    H8741497   0.228   0.342   4.224 -1.9961 -1.5892  1.0757
  206MOL    H8841498   0.159   0.230   4.040 -0.3547 -0.5779  0.8637
  206MOL    H8941499   0.118   0.508   3.919 -1.6442 -0.4982  0.2184
  206MOL    H9041500   0.196   0.267   3.763  0.2306  0.8309 -2.4578
  206MOL    H9141501   0.136   0.409   3.699  1.2024  2.0424  1.7149
  206MOL    C9241502   7.954   0.266   3.763  0.5372  0.0472  0.4411
  206MOL    C9341503   7.938   0.199   3.627 -0.2024  0.5353 -0.1127
  206MOL    C9441504   7.894   0.073   3.611  1.0593  0.1724 -0.4471
  206MOL    C9541505   7.877   0.006   3.476 -0.4867  0.6925 -0.2546
  206MOL    H9641506   7.924   0.197   3.841 -1.7151  1.0622  0.5103
  206MOL    H9741507   7.872   0.338   3.762 -1.1358 -1.8108 -0.1902
  206MOL    H9841508   0.001   0.262   3.549  0.6539  0.2031  0.0481
  206MOL    H9941509   7.860   0.020   3.699  2.0749  1.5518  0.8022
  206MOL   H10041510   7.942   7.895   3.479  0.1045  1.1113 -0.6975
  206MOL   H10141511   7.926   0.066   3.399 -1.1531  0.4873 -0.8416
  206MOL   C10241512   7.732   7.954   3.433  0.4329 -0.9222  0.0016
  206MOL   C10341513   7.735   7.883   3.300  0.2126 -0.2909 -0.6200
  206MOL   C10441514   7.669   7.918   3.192 -0.1101 -0.0611 -1.4814
  206MOL   C10541515   7.679   7.852   3.052 -0.3964 -0.2763  0.0569
  206MOL   H10641516   7.668   7.904   3.505 -0.2071 -1.0337 -0.6355
  206MOL   H10741517   7.678   0.070   3.420  0.2472 -0.8716  1.1001
  206MOL   H10841518   7.800   7.798   3.286  1.5677  0.2378  2.0791
  206MOL   H10941519   7.607   0.030   3.198 -2.7379 -1.8714 -1.2095
  206MOL   H11041520   7.580   7.828   3.016 -0.7305  2.0406 -0.6659
  206MOL   H11141521   7.744   7.764   3.056  2.4827  1.8334  1.7365
  206MOL   C11241522   7.756   7.939   2.949 -0.4329  0.1888  0.2878
  206MOL   C11341523   7.878   0.030   3.005 -0.7526  0.1430  0.0587
  206MOL   C11441524   0.032   7.964   3.009 -0.4474  0.1314  0.3452
  206MOL   C11541525   0.149   0.067   3.066 -0.1200  0.1247 -0.8273
  206MOL   H11641526   7.781   7.886   2.857 -2.9998  1.8911 -1.4555
  206MOL   H11741527   7.689   0.043   2.919 -1.3488 -0.7026 -0.0621
  206MOL   H11841528   7.844   0.117   3.057  0.2859 -0.7267  2.2716
  206MOL   H11941529   0.066   7.870   2.968 -1.2489  0.3391 -0.8198
  206MOL   H12041530   0.124   0.163   3.111  1.9851  0.7323 -0.9291
  206MOL   H12141531   0.224   0.103   2.996 -1.6658  1.4311 -1.8383
  206MOL   C12241532   0.224   7.953   3.178 -0.3439  0.5610  0.2161
  206MOL   C12341533   0.284   0.071   3.283  0.2168  0.3555 -0.1418
  206MOL   C12441534   0.254   0.054   3.416 -0.1470  0.1438 -0.0938
  206MOL   C12541535   0.324   0.105   3.538  0.4248 -0.6844  0.0491
  206MOL   H12641536   0.159   7.883   3.230  2.0686 -1.1931  0.9395
  206MOL   H12741537   0.303   7.900   3.126 -2.0808 -2.0037  0.0943
  206MOL   H12841538   0.367   0.135   3.258 -0.2901 -0.3409 -3.8597
  206MOL   H12941539   0.184   7.951   3.436  1.2686 -0.2019  4.1559
  206MOL   H13041540   0.258   0.084   3.623  0.0168  1.4801  0.3186
  206MOL   H13141541   0.332   0.213   3.521  0.5734 -0.4795  1.3022
  206MOL   C13241542   0.472   0.051   3.556  0.4139 -0.0307  0.6519
  206MOL   C13341543   0.530   0.094   3.689  0.6000  0.4008 -0.4727
  206MOL   C13441544   0.664   0.099   3.714  0.4719  0.0743  0.2170
  206MOL   C13541545   0.715   0.136   3.851  0.2063  0.2066 -0.3647
  206MOL   H13641546   0.474   7.919   3.561  0.2231 -0.0399  0.5160
  206MOL   H13741547   0.536   0.087   3.475 -2.0784 -0.6664 -1.6458
  206MOL   H13841548   0.463   0.131   3.765  0.5052 -0.8980  0.0914
  206MOL   H13941549   0.738   0.065   3.643  0.8539  1.0886  0.1191
  206MOL   H14041550   0.738   0.045   3.905  0.1781 -0.3860 -1.3253
  206MOL   H14141551   0.628   0.180   3.901 -0.2778 -1.2663  0.1005
  206MOL   C14241552   0.826   0.239   3.842  0.0945 -0.4201 -0.8710
  206MOL   C14341553   0.862   0.291   3.975  0.6483 -0.1370 -0.2492
  206MOL   C14441554   0.986   0.273   4.027  0.2013 -0.5121  0.3956
  206MOL   C14541555   1.019   0.305   4.171  0.2703 -0.1287  0.7488
  206MOL   H14641556   0.921   0.202   3.802  1.5692  4.0311 -1.8114
  206MOL   H14741557   0.802   0.324   3.778 -3.0090  1.6879  2.9011
  206MOL   H14841558   0.783   0.341   4.030  0.5729 -0.1039 -0.3886
  206MOL   H14941559   1.058   0.221   3.966 -0.3906 -0.1400 -0.6357
  206MOL   H15041560   0.921   0.306   4.219 -1.0166 -0.9036 -1.7903
  206MOL   H15141561   1.054   0.408   4.160  1.3415 -0.8163 -2.7161
  206MOL   C15241562   1.107   0.210   4.247  0.7193  0.1775 -0.1219
  206MOL   C15341563   1.252   0.246   4.223  0.3557 -0.0389  0.0513
  206MOL   C15441564   1.347   0.151   4.209  0.2051  0.4641  0.2760
  206MOL   C15541565   1.491   0.169   4.175 -0.0668  0.2366  0.2175
  206MOL   H15641566   1.101   0.229   4.354  2.1408 -0.3910  0.0735
  206MOL   H15741567   1.079   0.106   4.231 -1.6456  0.9643 -1.3779
  206MOL   H15841568   1.275   0.351   4.221 -2.1433  0.5310 -0.1338
  206MOL   H15941569   1.314   0.048   4.206  0.8687  0.2000  1.5921
  206MOL   H16041570   1.510   0.277   4.176  0.0028  0.2348 -0.5013
  206MOL   H16141571   1.517   0.136   4.074  0.3901 -1.3139  0.8295
  206MOL   C16241572   1.580   0.093   4.271 -0.4601 -0.3933  0.2637
  206MOL   C16341573   1.543   7.925   4.303  0.1616  0.4521 -0.2298
  206MOL   C16441574   1.633   7.822   4.291  0.2088 -0.1092 -0.6480
  206MOL   C16541575   1.594   7.680   4.336  0.1358  0.5951 -0.2115
  206MOL   H16641576   1.679   0.085   4.227 -1.4063 -0.3874 -1.9133
  206MOL   H16741577   1.596   0.157   4.358  0.7491  0.2477 -0.4236
  206MOL   H16841578   1.445   7.901   4.342  0.5296  0.0651  0.4621
  206MOL   H16941579   1.731   7.843   4.251  0.7681  1.0201  1.2672
  206MOL   H17041580   1.487   7.678   4.357  0.0877  2.3245 -0.1974
  206MOL   H17141581   1.647   7.666   4.430 -2.6067  2.0383  1.6499
  206MOL   C17241582   1.637   7.576   4.234  0.6049  0.1360  0.0353
  206MOL   C17341583   1.566   7.439   4.262  0.4812  0.2211 -0.4382
  206MOL   C17441584   1.475   7.380   4.179  0.2532 -1.0119 -0.3108
  206MOL   C17541585   1.385   7.268   4.220  0.0779  0.6399  0.0675
  206MOL   H17641586   1.595   7.611   4.140 -2.0257  3.6326  2.3832
  206MOL   H17741587   1.745   7.567   4.222  0.4011 -0.5698 -1.3437
  206MOL   H17841588   1.579   7.414   4.366  1.7332  0.7723 -0.4506
  206MOL   H17941589   1.460   7.415   4.078 -3.1783  2.6219  1.3390
  206MOL   H18041590   1.388   7.264   4.328 -4.5304 -2.1957  0.2417
  206MOL   H18141591   1.423   7.179   4.169  1.5837  1.1895  0.1979
  206MOL   C18241592   1.238   7.292   4.163 -0.0242 -0.3667 -1.0740
  206MOL   C18341593   1.138   7.187   4.204  0.2106  0.4997 -0.1343
  206MOL   C18441594   1.160   7.078   4.290  0.0593 -0.3845 -0.5406
  206MOL   C18541595   1.036   6.996   4.317 -0.1439 -0.1455 -0.0560
  206MOL   H18641596   1.219   7.393   4.199  2.4735 -0.4886  0.7601
  206MOL   H18741597   1.244   7.317   4.057 -1.3190 -0.4318 -1.1695
  206MOL   H18841598   1.042   7.193   4.155 -0.7242  1.8724  1.8194
  206MOL   H18941599   1.251   7.038   4.333  0.2804 -1.1897 -1.7496
  206MOL   H19041600   0.946   7.056   4.303 -0.4209 -0.4782  0.3114
  206MOL   H19141601   1.044   6.973   4.423  0.1617 -2.0750 -0.4935
  206MOL   C19241602   1.025   6.871   4.228  0.0740  0.4494 -0.0789
  206MOL   C19341603   1.150   6.793   4.219 -0.6884 -0.3225  0.4427
  206MOL   C19441604   1.221   6.779   4.102 -0.4220 -0.2897 -0.0362
  206MOL   C19541605   1.357   6.708   4.096 -0.6299 -0.2636 -0.0025
  206MOL   H19641606   0.956   6.805   4.281  1.9760  0.2904  2.2858
  206MOL   H19741607   0.989   6.875   4.125 -2.0902 -0.1490  0.6257
  206MOL   H19841608   1.186   6.761   4.316  0.8218  2.5713  0.8997
  206MOL   H19941609   1.183   6.823   4.011  2.4296 -0.2538 -1.2634
  206MOL   H20041610   1.429   6.783   4.063 -0.8292 -0.4894 -0.9686
  206MOL   H20141611   1.361   6.624   4.027  0.5717 -0.3529  0.1710
  206MOL   H20241612   1.387   6.690   4.200 -0.0691  0.3796 -0.0471
  207MOL     C141613   3.178   3.153   2.907 -0.1030  0.1237 -0.3364
  207MOL     C241614   3.096   3.274   2.869  0.0971  0.6988 -0.2050
  207MOL     C341615   3.148   3.390   2.864  0.1168 -0.8537 -0.4423
  207MOL     C441616   3.071   3.519   2.834 -0.4959 -0.0598  0.3675
  207MOL     H541617   3.287   3.159   2.902 -0.0496 -0.4899 -0.0691
  207MOL     H641618   3.149   3.057   2.863  0.9476 -1.0780  1.4973
  207MOL     H741619   2.991   3.257   2.850 -0.0339 -0.3787  1.3876
  207MOL     H841620   3.252   3.405   2.889 -0.2784 -0.1097  0.7812
  207MOL     H941621   2.966   3.501   2.808 -0.8691  1.2319  0.9515
  207MOL    H1041622   3.116   3.570   2.749 -1.3095  1.0994  0.6306
  207MOL    H1141623   3.149   3.145   3.012 -0.4538 -1.5928 -0.5504
  207MOL    C1241624   3.063   3.627   2.936 -0.3356 -0.0993 -0.2985
  207MOL    C1341625   3.042   3.769   2.885  0.8728  0.1631  0.4102
  207MOL    C1441626   2.934   3.836   2.911 -0.4234  0.2923 -0.9381
  207MOL    C1541627   2.901   3.973   2.867 -0.6727  0.0652 -0.2190
  207MOL    H1641628   2.984   3.591   3.003  0.7492 -0.7271  0.6721
  207MOL    H1741629   3.150   3.621   3.002 -1.4587  0.8034  1.3215
  207MOL    H1841630   3.122   3.816   2.830  0.4478 -0.4090 -0.7242
  207MOL    H1941631   2.859   3.791   2.975  0.6429  1.3128  1.0621
  207MOL    H2041632   2.824   3.975   2.789 -1.2241 -0.0053  0.3232
  207MOL    H2141633   2.995   4.008   2.824 -0.4409  0.3474  0.5167
  207MOL    C2241634   2.881   4.069   2.983  0.0679  0.2025 -0.2248
  207MOL    C2341635   2.836   4.208   2.946  0.0546 -0.0722 -0.2410
  207MOL    C2441636   2.879   4.314   3.013  0.1192  0.5265  0.2615
  207MOL    C2541637   2.854   4.462   2.972  0.2671 -0.2833 -0.4199
  207MOL    H2641638   2.825   4.030   3.068 -0.2002  0.9116 -0.0773
  207MOL    H2741639   2.977   4.077   3.034 -0.9296 -0.0927  1.7281
  207MOL    H2841640   2.765   4.209   2.865 -1.3973  0.3327  1.0332
  207MOL    H2941641   2.951   4.300   3.092 -0.1005  1.8095  0.7152
  207MOL    H3041642   2.798   4.479   2.880  2.3288 -2.7040 -2.1932
  207MOL    H3141643   2.953   4.507   2.958 -0.3624  1.5872  0.8942
  207MOL    C3241644   2.768   4.547   3.071  0.4792 -0.5245 -0.0596
  207MOL    C3341645   2.758   4.692   3.022  0.4860  0.4060 -0.5984
  207MOL    C3441646   2.816   4.797   3.083 -0.3451 -0.6735 -0.0738
  207MOL    C3541647   2.806   4.945   3.042  0.1842 -0.1634  0.0329
  207MOL    H3641648   2.669   4.502   3.080 -1.2447  2.4513 -3.1553
  207MOL    H3741649   2.812   4.552   3.170  1.1970  0.7551 -0.4413
  207MOL    H3841650   2.697   4.702   2.933 -1.7106 -0.6505  0.7390
  207MOL    H3941651   2.867   4.770   3.174  0.2530  1.7165  0.3144
  207MOL    H4041652   2.757   4.990   3.129 -0.0400 -2.6447  1.2337
  207MOL    H4141653   2.742   4.958   2.956  0.6679  0.3554 -0.2514
  207MOL    C4241654   2.945   5.008   3.012 -0.1324 -0.5057  0.3551
  207MOL    C4341655   2.934   5.153   2.970  0.0381 -0.4036 -0.0775
  207MOL    C4441656   2.979   5.204   2.855  0.0712  0.4070  0.1504
  207MOL    C4541657   2.981   5.350   2.823 -0.4206  0.3085 -0.0688
  207MOL    H4641658   3.018   4.999   3.093 -0.5569  0.3294  0.8405
  207MOL    H4741659   2.987   4.948   2.931  0.6651  2.0098 -1.1770
  207MOL    H4841660   2.898   5.220   3.047  1.8008 -1.3277  1.5842
  207MOL    H4941661   3.023   5.140   2.780 -0.7453 -0.0979  0.1033
  207MOL    H5041662   2.925   5.411   2.893  1.7721  1.2907  0.8946
  207MOL    H5141663   2.942   5.368   2.723 -1.4299 -1.3871  0.0168
  207MOL    C5241664   3.121   5.407   2.819  0.9603  0.2605 -0.4057
  207MOL    C5341665   3.146   5.539   2.747 -0.5700 -0.9748  0.2646
  207MOL    C5441666   3.261   5.556   2.678 -0.7857 -0.0347  0.8600
  207MOL    C5541667   3.309   5.676   2.602 -0.3128 -0.1540  0.0656
  207MOL    H5641668   3.147   5.443   2.918  2.9190 -0.3843 -0.6735
  207MOL    H5741669   3.197   5.337   2.783  1.0006  0.7988 -1.3766
  207MOL    H5841670   3.078   5.623   2.751 -0.6477 -1.0496  0.5475
  207MOL    H5941671   3.346   5.489   2.683 -1.2148 -0.5082  2.0261
  207MOL    H6041672   3.409   5.696   2.641 -0.2738 -1.8320  0.8763
  207MOL    H6141673   3.243   5.758   2.629 -0.1599 -0.0277  0.0553
  207MOL    C6241674   3.328   5.644   2.455 -0.7051 -0.8302 -0.1467
  207MOL    C6341675   3.343   5.770   2.368 -0.1557  0.4806 -0.0661
  207MOL    C6441676   3.459   5.816   2.323 -0.5822 -0.8852 -0.6182
  207MOL    C6541677   3.485   5.946   2.239 -0.6407 -0.2099 -0.4530
  207MOL    H6641678   3.429   5.604   2.453 -1.0342 -1.8372  1.8198
  207MOL    H6741679   3.268   5.562   2.416 -0.4200 -1.9649  1.7203
  207MOL    H6841680   3.254   5.822   2.335  1.2838  1.8133 -1.9460
  207MOL    H6941681   3.549   5.759   2.341 -1.6452 -2.0154  1.2227
  207MOL    H7041682   3.401   6.016   2.238 -1.5836 -1.3134 -0.4471
  207MOL    H7141683   3.500   5.921   2.134  1.0352 -1.4805  0.0740
  207MOL    C7241684   3.607   6.023   2.296 -0.2009 -0.2352  0.2597
  207MOL    C7341685   3.635   6.150   2.211 -0.1902 -0.2535 -0.1899
  207MOL    C7441686   3.708   6.145   2.097  0.6262  0.3780 -0.1711
  207MOL    C7541687   3.722   6.268   2.015  0.0576 -0.0845 -0.6808
  207MOL    H7641688   3.593   6.053   2.400 -0.8820 -1.3847  0.5070
  207MOL    H7741689   3.704   5.973   2.297 -0.8196 -1.4533 -0.2546
  207MOL    H7841690   3.602   6.244   2.252 -1.8695 -0.1248 -1.8068
  207MOL    H7941691   3.729   6.044   2.065  0.8792  0.9326 -1.8115
  207MOL    H8041692   3.731   6.358   2.075  1.4293 -0.0216 -0.9680
  207MOL    H8141693   3.631   6.290   1.959 -0.0165 -0.9299 -0.9106
  207MOL    C8241694   3.837   6.255   1.917 -0.1668  0.2553  0.2538
  207MOL    C8341695   3.852   6.367   1.822 -0.4531 -0.6018 -0.3842
  207MOL    C8441696   3.870   6.359   1.688  0.3394 -0.0337  0.2645
  207MOL    C8541697   3.902   6.479   1.596 -0.0159  0.4645 -0.2042
  207MOL    H8641698   3.933   6.263   1.966  1.7915 -2.0177 -3.0030
  207MOL    H8741699   3.837   6.162   1.860  1.5612  1.0768 -1.1263
  207MOL    H8841700   3.867   6.453   1.886 -0.6295 -0.2900 -0.7605
  207MOL    H8941701   3.847   6.265   1.639 -0.7072  0.3489  0.0052
  207MOL    H9041702   3.958   6.444   1.509  1.0313 -0.8593  0.9933
  207MOL    H9141703   3.969   6.543   1.654 -0.8857 -0.2329  1.5815
  207MOL    C9241704   3.781   6.553   1.542  0.4373  0.4572  0.2789
  207MOL    C9341705   3.827   6.658   1.438  0.5059  0.0762  0.1936
  207MOL    C9441706   3.826   6.791   1.449 -0.2414  0.2327  0.0964
  207MOL    C9541707   3.871   6.896   1.354  0.1675  0.8381 -0.0055
  207MOL    H9641708   3.706   6.495   1.488 -0.1361  0.3698  1.1581
  207MOL    H9741709   3.727   6.605   1.622 -1.9661  0.8751 -1.5475
  207MOL    H9841710   3.865   6.613   1.347  0.6035 -1.6525  1.0515
  207MOL    H9941711   3.776   6.822   1.540 -0.0572 -0.2640  0.3701
  207MOL   H10041712   3.901   6.841   1.264  0.3258  0.8740  0.0254
  207MOL   H10141713   3.951   6.957   1.396 -0.3991  2.6707 -1.4936
  207MOL   C10241714   3.758   6.990   1.295  0.6759  0.7171  0.2704
  207MOL   C10341715   3.821   7.085   1.192  0.4149  0.2138  0.4305
  207MOL   C10441716   3.807   7.086   1.059 -0.5922 -0.0242 -0.1662
  207MOL   C10541717   3.866   7.201   0.972  0.7229  0.4213 -0.2826
  207MOL   H10641718   3.680   6.927   1.250 -0.3344  2.5454 -0.6023
  207MOL   H10741719   3.713   7.051   1.373  0.2863  0.9884 -0.1601
  207MOL   H10841720   3.897   7.156   1.222 -0.3397  1.2307 -0.0433
  207MOL   H10941721   3.738   7.016   1.014  0.4512 -1.4329  0.4134
  207MOL   H11041722   3.800   7.288   0.967  1.0106  0.9426  3.2310
  207MOL   H11141723   3.860   7.157   0.873 -0.7851  0.7251 -0.3466
  207MOL   C11241724   4.005   7.263   1.015  0.6105  0.5521  0.1508
  207MOL   C11341725   4.065   7.340   0.902 -0.2374  0.1519  1.0683
  207MOL   C11441726   4.077   7.473   0.897 -1.0515 -0.1826 -0.7338
  207MOL   C11541727   4.126   7.552   0.782 -0.1020  0.0459  0.4488
  207MOL   H11641728   3.997   7.313   1.112 -2.5337 -0.8127  0.6646
  207MOL   H11741729   4.071   7.180   1.043 -0.2826 -0.7539 -1.5270
  207MOL   H11841730   4.092   7.283   0.814  0.0842  0.2332  1.1161
  207MOL   H11941731   4.032   7.531   0.976  1.6967  1.0784 -0.0524
  207MOL   H12041732   4.149   7.477   0.706 -0.9898  0.9360 -0.7267
  207MOL   H12141733   4.216   7.603   0.815 -0.1147 -0.1733  0.8246
  207MOL   C12241734   4.009   7.634   0.729  0.4439 -0.8889 -0.1417
  207MOL   C12341735   3.986   7.763   0.800 -0.2851 -1.3668  0.2779
  207MOL   C12441736   4.000   7.887   0.739  0.2663 -0.4280 -0.2801
  207MOL   C12541737   3.969   0.036   0.815 -0.1438  0.9291 -0.1278
  207MOL   H12641738   4.017   7.654   0.622 -1.3408  0.5701 -0.0342
  207MOL   H12741739   3.921   7.570   0.730 -0.9526  0.9886  1.2888
  207MOL   H12841740   3.951   7.752   0.901  2.7871 -0.3918  1.4966
  207MOL   H12941741   4.036   7.901   0.638 -0.1267  0.4391 -0.3070
  207MOL   H13041742   4.056   0.098   0.839 -0.1891  1.4384 -1.2572
  207MOL   H13141743   3.920   0.012   0.910  1.8634  0.8744  0.9227
  207MOL   C13241744   3.862   0.117   0.740  0.1998 -0.3938  0.0810
  207MOL   C13341745   3.902   0.169   0.604 -1.1298 -0.0660  0.0846
  207MOL   C13441746   3.867   0.299   0.574  0.8282 -0.3586 -0.0690
  207MOL   C13541747   3.891   0.376   0.443 -0.4151  0.6508 -0.1041
  207MOL   H13641748   3.773   0.055   0.731 -1.6007  2.0718  0.5601
  207MOL   H13741749   3.839   0.213   0.786  1.9657 -0.2788  0.7751
  207MOL   H13841750   3.938   0.100   0.530 -0.0145  0.7540 -0.1659
  207MOL   H13941751   3.812   0.359   0.645 -0.2556  0.2408 -1.3943
  207MOL   H14041752   3.971   0.449   0.451  1.2027 -1.1377  0.6194
  207MOL   H14141753   3.806   0.440   0.422 -1.5962 -1.2924 -1.4447
  207MOL   C14241754   3.932   0.279   0.333  0.0912 -0.9586  0.2871
  207MOL   C14341755   3.937   0.341   0.198 -0.3888  0.4135  0.2152
  207MOL   C14441756   4.019   0.301   0.098 -0.5211 -0.6266  0.1576
  207MOL   C14541757   4.022   0.363   7.938  0.3179  0.5521  0.3039
  207MOL   H14641758   4.024   0.225   0.357  0.3543 -1.2298 -1.3029
  207MOL   H14741759   3.861   0.200   0.309 -0.3584 -0.0342 -1.5515
  207MOL   H14841760   3.860   0.414   0.178 -1.9663 -1.0998  0.7455
  207MOL   H14941761   4.096   0.227   0.114 -1.0227 -1.2575 -0.3251
  207MOL   H15041762   3.938   0.432   7.934 -1.2451 -1.2968  0.3466
  207MOL   H15141763   3.997   0.287   7.865 -0.6951  1.3634 -0.2029
  207MOL   C15241764   4.142   0.452   7.913  0.8307  0.9140  0.3001
  207MOL   C15341765   4.143   0.539   7.793  0.4735 -0.0879  0.3852
  207MOL   C15441766   4.200   0.512   7.675  0.1888  0.4967  0.6228
  207MOL   C15541767   4.207   0.603   7.553 -0.0015 -0.4240  0.1696
  207MOL   H15641768   4.157   0.508   0.028 -0.7183  1.1926  0.3906
  207MOL   H15741769   4.228   0.385   7.908  0.4591  0.5477 -1.8844
  207MOL   H15841770   4.094   0.635   7.801 -0.3005 -0.3524 -0.9161
  207MOL   H15941771   4.261   0.422   7.677 -1.8420 -0.9745 -1.6212
  207MOL   H16041772   4.200   0.706   7.588  1.6129 -0.3280  0.2702
  207MOL   H16141773   4.122   0.571   7.493  0.6811 -3.0042  0.5229
  207MOL   C16241774   4.334   0.577   7.472  0.2454  0.1040 -0.0985
  207MOL   C16341775   4.333   0.681   7.365  0.3746 -0.1473  0.4239
  207MOL   C16441776   4.444   0.744   7.321 -0.5266  0.5319  0.1573
  207MOL   C16541777   4.445   0.845   7.210 -0.3302  0.3492 -0.1468
  207MOL   H16641778   4.412   0.576   7.548 -1.0938  0.5143  1.3055
  207MOL   H16741779   4.330   0.479   7.426  2.1125  1.3498 -3.1222
  207MOL   H16841780   4.248   0.714   7.307  1.3745 -0.2331 -1.0970
  207MOL   H16941781   4.545   0.721   7.353 -0.6752  0.0082  0.2551
  207MOL   H17041782   4.365   0.821   7.140 -1.7984 -0.7120  1.8504
  207MOL   H17141783   4.538   0.850   7.153 -1.3155 -0.1454 -1.8390
  207MOL   C17241784   4.448   0.987   7.269  0.9221 -0.0408 -0.6896
  207MOL   C17341785   4.301   1.019   7.315 -0.2064  0.0593  0.0045
  207MOL   C17441786   4.262   1.018   7.443  0.8671  1.0406 -0.5802
  207MOL   C17541787   4.119   1.042   7.490  0.2143  0.6473 -0.3682
  207MOL   H17641788   4.521   1.006   7.348 -1.5502 -0.1012  1.6480
  207MOL   H17741789   4.471   1.050   7.183  0.2282 -0.4862 -1.2056
  207MOL   H17841790   4.223   1.036   7.242 -0.2722 -0.6239 -0.0856
  207MOL   H17941791   4.336   1.003   7.520  1.1662 -0.6464 -1.1686
  207MOL   H18041792   4.072   0.950   7.456  0.2391  0.6110 -0.3042
  207MOL   H18141793   4.071   1.132   7.452 -1.8448  1.1381  3.2095
  207MOL   C18241794   4.097   1.062   7.643  0.5690  1.0045  0.1745
  207MOL   C18341795   3.950   1.063   7.683  0.4150 -0.2798  0.1222
  207MOL   C18441796   3.898   0.989   7.779 -0.7151  0.1007 -0.3801
  207MOL   C18541797   3.753   0.988   7.829 -0.4209 -0.4432  0.1704
  207MOL   H18641798   4.150   0.981   7.692 -0.2323 -0.4104 -1.2264
  207MOL   H18741799   4.143   1.156   7.673 -1.4371  1.6438  1.3918
  207MOL   H18841800   3.887   1.134   7.632  1.3919  1.4301  1.2329
  207MOL   H18941801   3.961   0.914   7.825 -0.6385  0.1831 -0.3502
  207MOL   H19041802   3.704   1.069   7.775  1.9895  0.2863 -0.9588
  207MOL   H19141803   3.760   0.997   7.937  0.4059  2.5684 -0.0954
  207MOL   C19241804   3.680   0.858   7.804 -0.1317 -0.5965 -0.7915
  207MOL   C19341805   3.557   0.848   7.883 -0.3056  0.3080 -0.5045
  207MOL   C19441806   3.498   0.734   7.923  0.1558  0.3091  0.1282
  207MOL   C19541807   3.362   0.718   0.003 -0.3394  0.1059  0.0021
  207MOL   H19641808   3.654   0.838   7.700 -1.3928 -0.2742 -0.5470
  207MOL   H19741809   3.740   0.769   7.826 -1.8071 -0.9755  2.5917
  207MOL   H19841810   3.498   0.937   7.900 -0.1481  0.3128  0.0008
  207MOL   H19941811   3.549   0.643   7.893 -0.4450  0.5869 -1.8243
  207MOL   H20041812   3.315   0.815   0.015  2.2059  1.0949  2.4785
  207MOL   H20141813   3.382   0.672   0.100 -1.2273  0.8488  0.5367
  207MOL   H20241814   3.307   0.650   7.915  0.4130 -1.3954  0.8905
  208MOL     C141815   1.730   4.990   3.456 -0.0208  0.1463 -0.3039
  208MOL     C241816   1.817   4.963   3.334  0.4307  0.2677  0.5175
  208MOL     C341817   1.770   4.944   3.209 -0.8304 -0.0930 -0.2972
  208MOL     C441818   1.857   4.942   3.095 -0.1765 -0.1210 -0.1416
  208MOL     H541819   1.735   4.898   3.514  0.8022  0.3922  0.0255
  208MOL     H641820   1.631   5.027   3.430 -0.1571  0.1570  0.2262
  208MOL     H741821   1.922   4.964   3.358  0.8076 -2.3854 -0.9137
  208MOL     H841822   1.663   4.950   3.194 -0.7106  0.1844 -1.0970
  208MOL     H941823   1.948   4.982   3.137 -0.5413  1.3730 -0.7557
  208MOL    H1041824   1.811   5.009   3.022  0.8070 -0.4038 -1.0265
  208MOL    H1141825   1.767   5.073   3.517 -1.2292 -1.0771  2.1400
  208MOL    C1241826   1.896   4.801   3.048 -0.0456  0.2208  0.1257
  208MOL    C1341827   1.982   4.800   2.930  0.1679  0.2282 -0.3489
  208MOL    C1441828   2.028   4.908   2.859  0.0530  0.1508 -0.4889
  208MOL    C1541829   2.133   4.902   2.745 -0.4756  0.2916 -0.3730
  208MOL    H1641830   1.944   4.744   3.127  0.1984 -1.3616 -1.1512
  208MOL    H1741831   1.807   4.738   3.039  2.5058 -3.5626  0.3034
  208MOL    H1841832   2.015   4.698   2.918  0.4855  0.1161  1.3739
  208MOL    H1941833   1.984   5.005   2.877  0.6513  0.2333  0.5656
  208MOL    H2041834   2.140   4.800   2.709 -0.0343  1.0965 -2.6336
  208MOL    H2141835   2.229   4.940   2.782 -0.1505 -1.5768  0.7514
  208MOL    C2241836   2.097   4.989   2.626 -0.0720  0.7416 -0.4219
  208MOL    C2341837   2.215   4.988   2.530 -0.1868 -0.2723  0.3051
  208MOL    C2441838   2.249   4.883   2.450 -0.0324  0.2592 -0.1511
  208MOL    C2541839   2.372   4.882   2.361  0.0077  0.6316  0.0997
  208MOL    H2641840   2.005   4.962   2.573 -1.1389  1.7917  0.8472
  208MOL    H2741841   2.086   5.093   2.656 -1.5554  0.3959  0.3179
  208MOL    H2841842   2.275   5.077   2.537 -0.3100 -0.3515  2.7635
  208MOL    H2941843   2.197   4.789   2.453  2.1974 -0.9291  2.4187
  208MOL    H3041844   2.424   4.787   2.372  0.1394  0.9606  2.6127
  208MOL    H3141845   2.452   4.948   2.394  0.6790  0.7425 -1.6833
  208MOL    C3241846   2.349   4.897   2.213 -0.0103 -0.3124  0.0192
  208MOL    C3341847   2.249   4.789   2.157  0.4850 -0.0098 -0.2258
  208MOL    C3441848   2.289   4.683   2.088  0.1554  0.5540 -0.4546
  208MOL    C3541849   2.208   4.587   2.013 -0.0779 -0.1623  0.1650
  208MOL    H3641850   2.308   4.997   2.207 -0.0486 -0.2173  1.5421
  208MOL    H3741851   2.446   4.897   2.162 -0.4139  0.2527 -0.7523
  208MOL    H3841852   2.146   4.814   2.174 -0.1201 -1.7505 -1.2847
  208MOL    H3941853   2.394   4.661   2.079  0.5013  0.4054  3.0332
  208MOL    H4041854   2.104   4.602   2.042 -0.1967 -0.5785 -0.0466
  208MOL    H4141855   2.237   4.491   2.056 -0.6084  1.0680  3.4319
  208MOL    C4241856   2.223   4.582   1.856  0.2027  0.1602 -0.0428
  208MOL    C4341857   2.142   4.465   1.813  0.5047 -0.1290 -0.2459
  208MOL    C4441858   2.023   4.475   1.747 -0.0163  0.9095 -0.6872
  208MOL    C4541859   1.921   4.358   1.724 -0.0967 -0.5845 -0.3741
  208MOL    H4641860   2.182   4.678   1.824  1.0700  0.5539  0.0056
  208MOL    H4741861   2.324   4.570   1.817  0.7441  1.0594  1.0623
  208MOL    H4841862   2.155   4.365   1.852 -0.8394 -0.1833  0.0842
  208MOL    H4941863   1.986   4.572   1.716 -1.6641  1.1116  1.8323
  208MOL    H5041864   1.957   4.272   1.781  0.0839 -0.3845 -0.1823
  208MOL    H5141865   1.929   4.335   1.618  0.7673 -1.5972 -0.1006
  208MOL    C5241866   1.774   4.405   1.753  0.4412  0.5418 -0.5029
  208MOL    C5341867   1.684   4.288   1.739 -0.7281 -0.3213  0.1118
  208MOL    C5441868   1.588   4.257   1.827  0.1395 -0.7455  0.4914
  208MOL    C5541869   1.494   4.138   1.817 -0.3218 -0.4361 -0.1017
  208MOL    H5641870   1.762   4.453   1.850 -2.7446 -0.3522 -0.4009
  208MOL    H5741871   1.742   4.476   1.677 -1.0714 -1.4039 -1.7339
  208MOL    H5841872   1.696   4.237   1.644  3.9851  0.6055  0.0893
  208MOL    H5941873   1.584   4.315   1.919  0.4374  2.4242 -1.4161
  208MOL    H6041874   1.402   4.181   1.857  0.1258  0.2473  0.2172
  208MOL    H6141875   1.528   4.050   1.872 -1.4632  0.1935  1.6572
  208MOL    C6241876   1.469   4.098   1.672 -0.4596 -0.0230 -0.0436
  208MOL    C6341877   1.333   4.022   1.662  0.4792 -0.7039  0.2595
  208MOL    C6441878   1.226   4.083   1.615 -0.1930 -0.3316  0.0586
  208MOL    C6541879   1.089   4.021   1.601 -0.8898  0.6227  0.3298
  208MOL    H6641880   1.460   4.194   1.621  1.9629 -0.9582 -2.3624
  208MOL    H6741881   1.552   4.041   1.629 -0.0550  0.2651  0.3487
  208MOL    H6841882   1.334   3.918   1.689  0.5140 -0.2799  1.9149
  208MOL    H6941883   1.233   4.184   1.577 -1.4348 -0.8800 -1.6302
  208MOL    H7041884   1.109   3.921   1.638 -0.0439  0.0434 -1.6515
  208MOL    H7141885   1.047   4.017   1.501 -1.7335 -3.7673  0.7767
  208MOL    C7241886   0.991   4.084   1.692 -0.2873 -0.2363 -0.0832
  208MOL    C7341887   0.880   3.997   1.735  1.1226  0.2276  0.6330
  208MOL    C7441888   0.752   4.036   1.755  0.6821 -0.5114 -0.3546
  208MOL    C7541889   0.634   3.946   1.770 -1.0346 -0.1817 -0.3250
  208MOL    H7641890   1.036   4.133   1.778 -0.7331  2.6402 -1.4060
  208MOL    H7741891   0.938   4.163   1.638 -0.3779 -0.9547 -1.0655
  208MOL    H7841892   0.902   3.894   1.757  0.2408  0.0519  0.7466
  208MOL    H7941893   0.735   4.142   1.742  1.9822 -0.2044  0.2783
  208MOL    H8041894   0.657   3.839   1.772 -1.2175 -0.2008  1.9331
  208MOL    H8141895   0.565   3.970   1.689 -1.2579  0.6105  0.0916
  208MOL    C8241896   0.562   3.966   1.903 -0.4705 -0.1320 -0.2511
  208MOL    C8341897   0.647   3.926   2.027 -0.1721  0.5510 -0.5951
  208MOL    C8441898   0.627   3.816   2.100  0.2585  0.1200  0.9823
  208MOL    C8541899   0.697   3.765   2.217 -0.4915 -0.5687  0.3688
  208MOL    H8641900   0.526   4.069   1.912  1.2411  0.4618 -0.1645
  208MOL    H8741901   0.464   3.919   1.897 -0.8112  0.7190 -1.6890
  208MOL    H8841902   0.735   3.984   2.048  0.0849  0.5122 -1.5433
  208MOL    H8941903   0.542   3.759   2.066  0.1375  1.0611 -0.3366
  208MOL    H9041904   0.629   3.797   2.297 -1.9161 -0.2023 -0.9672
  208MOL    H9141905   0.790   3.821   2.227 -0.8761  0.3462 -1.1076
  208MOL    C9241906   0.716   3.614   2.218 -0.3551 -0.2546 -0.8522
  208MOL    C9341907   0.774   3.561   2.354  0.4909  0.5269  0.8423
  208MOL    C9441908   0.698   3.502   2.447 -0.1961 -0.2317 -0.4191
  208MOL    C9541909   0.753   3.454   2.578  0.0853 -0.4971 -0.3066
  208MOL    H9641910   0.619   3.569   2.195 -0.7404  0.9815 -1.6852
  208MOL    H9741911   0.781   3.579   2.138  0.9825 -0.9303  0.5077
  208MOL    H9841912   0.877   3.584   2.375  0.7140  0.3585 -0.0922
  208MOL    H9941913   0.592   3.487   2.434 -0.2958  0.4308 -0.3865
  208MOL   H10041914   0.859   3.479   2.591  0.4781 -1.7686 -1.0087
  208MOL   H10141915   0.758   3.347   2.594  1.5086 -0.5149 -0.8041
  208MOL   C10241916   0.670   3.514   2.703  0.0689 -0.0031 -0.0432
  208MOL   C10341917   0.700   3.437   2.832  0.1494  0.4930  0.3520
  208MOL   C10441918   0.717   3.494   2.950 -0.0397  0.4812  0.9541
  208MOL   C10541919   0.722   3.420   3.085  0.3886 -0.2889 -0.1518
  208MOL   H10641920   0.686   3.619   2.729 -0.4412 -0.1348  0.8175
  208MOL   H10741921   0.564   3.504   2.679  0.0474 -0.9282  0.4205
  208MOL   H10841922   0.690   3.330   2.838  0.9240  0.2736 -1.9602
  208MOL   H10941923   0.716   3.602   2.957  4.3391  0.4671  3.4412
  208MOL   H11041924   0.727   3.316   3.053 -0.3603 -0.6221  0.8037
  208MOL   H11141925   0.624   3.433   3.130  0.7125  0.1194  0.4376
  208MOL   C11241926   0.830   3.467   3.181  0.4276 -0.4866 -0.6137
  208MOL   C11341927   0.814   3.384   3.305  0.2071  0.7765 -0.8491
  208MOL   C11441928   0.921   3.315   3.366 -0.1177  0.3703  0.3947
  208MOL   C11541929   0.902   3.241   3.498  0.4767  0.3426 -0.0829
  208MOL   H11641930   0.931   3.453   3.143  0.4018  2.4503 -1.9012
  208MOL   H11741931   0.819   3.573   3.207 -1.7014 -1.1989  1.7095
  208MOL   H11841932   0.714   3.383   3.347 -0.0556 -0.5124 -1.4886
  208MOL   H11941933   1.022   3.332   3.332 -0.6804 -0.2309 -1.6245
  208MOL   H12041934   0.797   3.241   3.526  0.6998  1.2387  0.8092
  208MOL   H12141935   0.933   3.299   3.585  0.4786  0.4223 -0.1368
  208MOL   C12241936   0.963   3.104   3.488  0.2323 -0.3281 -0.1075
  208MOL   C12341937   0.966   3.041   3.623 -0.2049  0.0107  0.3355
  208MOL   C12441938   1.032   2.928   3.651 -0.2008  0.4159 -0.1656
  208MOL   C12541939   1.050   2.863   3.792  0.5405 -0.0302  0.0909
  208MOL   H12641940   0.923   3.038   3.410  0.5261 -0.3446 -0.2465
  208MOL   H12741941   1.066   3.113   3.453  0.6128 -0.4301  0.9841
  208MOL   H12841942   0.914   3.089   3.705  0.1112 -2.1530  1.8415
  208MOL   H12941943   1.086   2.877   3.573 -1.3123  1.4786 -1.6459
  208MOL   H13041944   1.093   2.763   3.790  0.7345  0.0700 -1.5649
  208MOL   H13141945   0.955   2.852   3.843  0.0565  2.8806 -0.1091
  208MOL   C13241946   1.135   2.954   3.881 -0.7394  0.3862 -0.0559
  208MOL   C13341947   1.162   2.899   4.021  0.3993 -0.6779  0.8181
  208MOL   C13441948   1.158   2.974   4.125 -0.0889  0.6069 -0.3009
  208MOL   C13541949   1.166   2.926   4.269  0.1619 -0.2675 -0.0916
  208MOL   H13641950   1.233   2.970   3.835  0.7873  0.4781  3.1317
  208MOL   H13741951   1.098   3.056   3.895 -1.0292 -0.0133  2.2887
  208MOL   H13841952   1.173   2.792   4.030  2.6265 -0.5581 -0.2903
  208MOL   H13941953   1.132   3.078   4.116 -0.6874  0.5308  0.5210
  208MOL   H14041954   1.153   2.817   4.267  1.0857 -0.5405  4.0208
  208MOL   H14141955   1.077   2.971   4.313 -1.7145 -0.6793 -3.3060
  208MOL   C14241956   1.290   2.973   4.354 -0.3214 -0.7696  0.3180
  208MOL   C14341957   1.307   3.129   4.351 -0.5946  0.0858 -0.6887
  208MOL   C14441958   1.337   3.198   4.461 -0.0387  0.5781  0.1815
  208MOL   C14541959   1.343   3.351   4.462 -0.4367 -0.5952  0.2098
  208MOL   H14641960   1.289   2.945   4.459 -0.2959 -0.6057  0.3620
  208MOL   H14741961   1.376   2.923   4.310 -1.0834 -1.3158 -0.5697
  208MOL   H14841962   1.301   3.184   4.259 -0.2083  0.9892 -0.1836
  208MOL   H14941963   1.359   3.147   4.553  2.4595 -1.8526 -1.6582
  208MOL   H15041964   1.272   3.389   4.536 -0.4419 -0.4802  0.1465
  208MOL   H15141965   1.317   3.396   4.366  1.1874 -1.3179 -0.5705
  208MOL   C15241966   1.481   3.413   4.493 -1.1504  0.9884 -0.7688
  208MOL   C15341967   1.498   3.557   4.445 -0.4411 -1.0681 -0.1821
  208MOL   C15441968   1.573   3.582   4.334 -0.4093 -0.0029  0.3602
  208MOL   C15541969   1.589   3.723   4.279 -0.9700 -0.0594  0.2314
  208MOL   H15641970   1.512   3.413   4.598 -0.1301  1.7060 -1.0580
  208MOL   H15741971   1.561   3.357   4.445 -0.4451  2.0525 -0.8523
  208MOL   H15841972   1.458   3.643   4.497  0.7536  0.1073 -1.1621
  208MOL   H15941973   1.620   3.499   4.282  1.1425  0.6415  0.6977
  208MOL   H16041974   1.526   3.798   4.327 -1.4043 -0.3469  0.1162
  208MOL   H16141975   1.555   3.723   4.176  0.0269 -0.2237 -0.1041
  208MOL   C16241976   1.738   3.769   4.299 -0.4093 -0.5232  0.3896
  208MOL   C16341977   1.753   3.925   4.279 -0.6936 -0.3391 -0.2752
  208MOL   C16441978   1.848   4.002   4.343  0.1247 -0.0523  0.0923
  208MOL   C16541979   1.858   4.155   4.336  0.4715  0.2292 -0.5698
  208MOL   H16641980   1.767   3.743   4.401  2.7826  1.3584  0.0358
  208MOL   H16741981   1.814   3.719   4.240  0.5010  1.0598  0.1999
  208MOL   H16841982   1.680   3.971   4.214  0.6920  0.4128 -1.3343
  208MOL   H16941983   1.917   3.956   4.412  0.8383  0.7297 -0.0808
  208MOL   H17041984   1.760   4.196   4.312  0.4558  0.9563  0.7227
  208MOL   H17141985   1.935   4.177   4.261  2.3995 -0.4020  1.1913
  208MOL   C17241986   1.907   4.210   4.470 -0.4767 -0.3421 -0.0252
  208MOL   C17341987   1.942   4.360   4.462 -0.1737  0.5041  0.2091
  208MOL   C17441988   1.881   4.448   4.542 -0.6472 -0.3621  0.1144
  208MOL   C17541989   1.916   4.598   4.542  0.6659  0.2706 -0.0360
  208MOL   H17641990   1.835   4.200   4.551  3.8825 -1.7643  3.8843
  208MOL   H17741991   1.982   4.147   4.517 -0.4707  0.1098  0.5799
  208MOL   H17841992   2.021   4.393   4.397 -1.2859  3.4459  0.2814
  208MOL   H17941993   1.804   4.412   4.608  0.0770 -1.7873  0.2047
  208MOL   H18041994   1.829   4.659   4.520  2.4733  2.8771 -0.1978
  208MOL   H18141995   1.993   4.620   4.468 -0.8980  1.9092 -1.1857
  208MOL   C18241996   1.958   4.642   4.682  0.6624  0.0911 -0.5214
  208MOL   C18341997   1.845   4.630   4.784  0.2966  0.4911  0.3022
  208MOL   C18441998   1.785   4.737   4.847 -0.4511  0.0933  0.4091
  208MOL   C18541999   1.673   4.725   4.944  0.0405  0.5407  0.1604
  208MOL   H18642000   2.035   4.581   4.728 -1.3290 -2.6539 -0.7392
  208MOL   H18742001   1.989   4.746   4.671 -2.2670  1.1003  0.2975
  208MOL   H18842002   1.817   4.529   4.810  3.3170 -0.4157  0.3368
  208MOL   H18942003   1.820   4.837   4.825  0.1665 -0.5591 -1.7540
  208MOL   H19042004   1.624   4.628   4.937  0.5143  0.3092  0.0134
  208MOL   H19142005   1.600   4.805   4.932  1.1212  1.8154  1.7505
  208MOL   C19242006   1.708   4.732   5.088 -0.4187  0.9771  0.4364
  208MOL   C19342007   1.579   4.723   5.168  0.7329 -0.5689 -0.2108
  208MOL   C19442008   1.548   4.626   5.256  0.0180 -0.0546 -0.2531
  208MOL   C19542009   1.433   4.634   5.346 -0.0259 -0.3890 -0.2545
  208MOL   H19642010   1.778   4.663   5.135  1.6798  2.2755 -0.7148
  208MOL   H19742011   1.752   4.829   5.111  0.5974  0.9058 -1.1802
  208MOL   H19842012   1.516   4.810   5.154  1.5578  0.1926  0.7446
  208MOL   H19942013   1.622   4.549   5.273 -0.6550 -0.4910  0.7359
  208MOL   H20042014   1.447   4.640   5.454  2.5512 -0.3420 -0.5624
  208MOL   H20142015   1.365   4.550   5.328 -0.2148 -0.1309 -0.7788
  208MOL   H20242016   1.372   4.719   5.315 -0.0022  0.2994  1.5440
  209MOL     C142017   2.762   7.391   7.638 -0.1294  0.1718  0.6630
  209MOL     C242018   2.798   7.280   7.545 -0.5335  0.5056  0.0844
  209MOL     C342019   2.782   7.147   7.570 -0.3586  0.7432  0.3899
  209MOL     C442020   2.832   7.055   7.471  0.2366  0.9335 -0.7515
  209MOL     H542021   2.766   7.372   7.745 -2.5939 -3.0839  0.2384
  209MOL     H642022   2.669   7.447   7.623  0.5396  1.6352  1.7877
  209MOL     H742023   2.835   7.308   7.448 -0.7044 -0.9754 -0.4111
  209MOL     H842024   2.745   7.107   7.663  1.0602  0.0504  0.6783
  209MOL     H942025   2.893   7.110   7.399  1.0142  1.7666  0.5344
  209MOL    H1042026   2.737   7.026   7.426 -1.8655  0.2088  3.9106
  209MOL    H1142027   2.843   7.464   7.627  0.2666 -0.1391  1.5068
  209MOL    C1242028   2.922   6.944   7.531  0.6686  0.3199  0.0463
  209MOL    C1342029   2.940   6.832   7.433 -0.3411  0.5324  0.1741
  209MOL    C1442030   2.870   6.720   7.419  0.2007 -0.3963 -0.3875
  209MOL    C1542031   2.900   6.605   7.335 -0.5869 -0.1239  0.4115
  209MOL    H1642032   3.019   6.979   7.567  1.0895  0.0510 -0.8021
  209MOL    H1742033   2.876   6.903   7.621  0.6631 -0.1186 -0.1535
  209MOL    H1842034   3.029   6.841   7.372 -0.4383  0.8121  0.0736
  209MOL    H1942035   2.775   6.711   7.469 -0.1044  1.5060 -0.6217
  209MOL    H2042036   2.895   6.509   7.388 -0.7691 -0.5176 -0.3045
  209MOL    H2142037   2.999   6.618   7.291 -1.8937 -0.1816 -2.7303
  209MOL    C2242038   2.799   6.593   7.215  0.8516  0.4464 -0.4955
  209MOL    C2342039   2.782   6.456   7.153 -0.0436 -0.6482 -0.5116
  209MOL    C2442040   2.671   6.398   7.118  0.1831  0.1353 -0.0626
  209MOL    C2542041   2.660   6.264   7.061  0.3746 -0.3071 -0.5060
  209MOL    H2642042   2.703   6.630   7.251  0.3851 -0.1762 -1.0982
  209MOL    H2742043   2.835   6.674   7.151  2.1405 -0.3607 -0.8099
  209MOL    H2842044   2.877   6.406   7.138 -0.3781 -0.3849 -3.9311
  209MOL    H2942045   2.574   6.445   7.126 -0.2404 -0.6871 -0.3062
  209MOL    H3042046   2.560   6.223   7.073  0.5495 -1.4763 -2.7565
  209MOL    H3142047   2.729   6.197   7.112 -0.7709 -0.6641  0.5952
  209MOL    C3242048   2.682   6.275   6.907 -0.1239  0.0058  0.4116
  209MOL    C3342049   2.733   6.139   6.855 -0.7414  0.0859 -0.8297
  209MOL    C3442050   2.856   6.111   6.814 -0.2671 -0.4395 -0.0339
  209MOL    C3542051   2.916   5.976   6.765  0.5346 -0.3228  0.0128
  209MOL    H3642052   2.593   6.279   6.844  1.7065 -0.1138 -2.3024
  209MOL    H3742053   2.757   6.347   6.874 -0.1276 -1.0603 -2.1008
  209MOL    H3842054   2.659   6.061   6.859 -1.9888  1.2866  0.2606
  209MOL    H3942055   2.924   6.195   6.807  0.1221 -0.7727 -0.2787
  209MOL    H4042056   2.841   5.903   6.734 -0.5552  1.3691 -1.3709
  209MOL    H4142057   2.991   5.943   6.837  1.5899  2.5510  0.3085
  209MOL    C4242058   3.002   5.988   6.636  1.2924  0.5561 -0.4184
  209MOL    C4342059   3.141   6.053   6.643  0.4363 -0.1516 -0.0719
  209MOL    C4442060   3.176   6.168   6.586 -0.7167  0.9276  0.0478
  209MOL    C4542061   3.307   6.229   6.603  0.0049 -0.1712 -0.3870
  209MOL    H4642062   3.014   5.893   6.584 -2.2790  1.3443 -2.8000
  209MOL    H4742063   2.948   6.058   6.574  0.4776  0.5099  0.2317
  209MOL    H4842064   3.210   6.001   6.709 -0.4468 -0.2794  0.7640
  209MOL    H4942065   3.110   6.221   6.520 -0.5556  0.8005 -0.2157
  209MOL    H5042066   3.339   6.257   6.502 -1.4854  2.0296 -0.2934
  209MOL    H5142067   3.386   6.180   6.660  0.5404  2.2112  1.0260
  209MOL    C5242068   3.290   6.361   6.676 -0.0613  0.1165  0.0440
  209MOL    C5342069   3.426   6.445   6.688  0.5372 -0.4464 -0.0839
  209MOL    C5442070   3.534   6.425   6.607 -0.2757 -0.2518 -0.4442
  209MOL    C5542071   3.664   6.512   6.613  0.0045  0.3120  0.1895
  209MOL    H5642072   3.207   6.416   6.632 -0.2807 -1.6328 -1.8290
  209MOL    H5742073   3.243   6.336   6.771  0.8959 -0.9524  0.2440
  209MOL    H5842074   3.421   6.518   6.768 -0.4630 -0.2503 -0.3304
  209MOL    H5942075   3.545   6.352   6.527  0.5628  0.1356 -0.6924
  209MOL    H6042076   3.746   6.445   6.636 -0.9899 -0.7309  0.7917
  209MOL    H6142077   3.657   6.594   6.685  0.9490  0.6956 -0.1528
  209MOL    C6242078   3.700   6.574   6.475  0.2663 -0.1138  0.1670
  209MOL    C6342079   3.819   6.664   6.481  0.0585  0.5869  0.0099
  209MOL    C6442080   3.917   6.663   6.387  0.4523 -0.0117 -0.1381
  209MOL    C6542081   4.033   6.763   6.371  0.3378  0.3252  0.1194
  209MOL    H6642082   3.714   6.508   6.389  1.0071  1.4241 -0.9161
  209MOL    H6742083   3.626   6.649   6.445 -0.5432 -1.2163 -0.6523
  209MOL    H6842084   3.825   6.739   6.559 -0.2042  0.3551  0.2496
  209MOL    H6942085   3.915   6.599   6.300  0.5544  0.2212 -0.3115
  209MOL    H7042086   4.122   6.700   6.381 -0.1622 -0.3573  0.3318
  209MOL    H7142087   4.030   6.826   6.460 -1.8782 -0.3456  0.5462
  209MOL    C7242088   4.029   6.831   6.232 -0.2165  0.2679  0.0411
  209MOL    C7342089   4.146   6.919   6.209 -0.2297 -0.5046  0.0847
  209MOL    C7442090   4.236   6.964   6.298  0.2541  0.0791  0.5480
  209MOL    C7542091   4.355   7.055   6.274  0.7386  0.0944 -0.1006
  209MOL    H7642092   4.017   6.767   6.144 -2.4628 -1.9111  1.8425
  209MOL    H7742093   3.946   6.900   6.215  1.1599  1.4040 -2.4360
  209MOL    H7842094   4.163   6.943   6.105  1.4841 -1.0999  0.1977
  209MOL    H7942095   4.219   6.953   6.404 -1.5575  0.5961  0.3291
  209MOL    H8042096   4.309   7.154   6.273  0.1834 -0.1133  1.8492
  209MOL    H8142097   4.393   7.032   6.175  2.0210 -2.1853  0.8788
  209MOL    C8242098   4.459   7.029   6.381 -0.1277  0.6153 -0.6645
  209MOL    C8342099   4.531   6.890   6.363  0.1268 -0.1672  0.5357
  209MOL    C8442100   4.537   6.799   6.457 -0.4122  0.7793  0.0598
  209MOL    C8542101   4.601   6.664   6.439  0.1476  1.0103 -0.7909
  209MOL    H8642102   4.539   7.104   6.380  0.5522  0.0414  3.5189
  209MOL    H8742103   4.410   7.049   6.476 -0.3067 -1.5511 -0.2878
  209MOL    H8842104   4.570   6.868   6.265 -0.2794 -1.8192  0.7241
  209MOL    H8942105   4.496   6.813   6.556 -0.9058 -1.9777  0.2851
  209MOL    H9042106   4.708   6.677   6.455 -0.3927  1.1319  3.4021
  209MOL    H9142107   4.583   6.651   6.333 -2.7251  1.5685 -0.4258
  209MOL    C9242108   4.542   6.559   6.533  0.2096  0.5690  0.4657
  209MOL    C9342109   4.401   6.515   6.491 -0.4346 -0.2524 -0.2861
  209MOL    C9442110   4.297   6.513   6.577  0.2599  0.2353 -0.9965
  209MOL    C9542111   4.155   6.474   6.540  0.6687  0.7443 -0.1283
  209MOL    H9642112   4.612   6.476   6.540  0.1986  0.6859  2.3073
  209MOL    H9742113   4.543   6.593   6.637 -0.8111  1.5710  0.1717
  209MOL    H9842114   4.388   6.501   6.385 -0.6874 -2.8151  0.0620
  209MOL    H9942115   4.318   6.522   6.683  1.1599 -0.8856 -1.0725
  209MOL   H10042116   4.128   6.476   6.434  0.9348  2.0407 -0.1831
  209MOL   H10142117   4.091   6.550   6.584  1.4524  1.9936 -1.1116
  209MOL   C10242118   4.122   6.334   6.606  0.9282 -0.8703 -0.5716
  209MOL   C10342119   3.979   6.277   6.569  0.5097 -0.8916  0.0530
  209MOL   C10442120   3.903   6.209   6.656 -0.0070  0.4351 -0.2524
  209MOL   C10542121   3.764   6.136   6.630 -0.2707  1.2142 -0.7432
  209MOL   H10642122   4.188   6.254   6.571  0.1997 -1.5590 -0.3838
  209MOL   H10742123   4.132   6.330   6.714 -0.9900 -2.5954 -0.4354
  209MOL   H10842124   3.948   6.289   6.467  1.1870 -0.1235 -0.0662
  209MOL   H10942125   3.937   6.200   6.759  0.2136  1.4332 -0.2319
  209MOL   H11042126   3.725   6.168   6.534 -1.4758 -3.0936 -1.7973
  209MOL   H11142127   3.681   6.178   6.687 -0.2649  0.7140 -0.3566
  209MOL   C11242128   3.772   5.985   6.628 -0.2639 -0.3357 -0.4708
  209MOL   C11342129   3.640   5.924   6.589  1.1389 -0.0198 -0.2907
  209MOL   C11442130   3.605   5.877   6.468 -0.7825 -0.3212 -0.3181
  209MOL   C11542131   3.465   5.839   6.440 -0.3669  0.3710  0.0232
  209MOL   H11642132   3.844   5.946   6.557 -1.1166 -0.9181 -1.0183
  209MOL   H11742133   3.790   5.942   6.727 -2.7768  1.4313  0.8233
  209MOL   H11842134   3.557   5.938   6.657  1.6973  0.8005  0.2235
  209MOL   H11942135   3.680   5.854   6.394 -0.9516 -1.2393 -0.2100
  209MOL   H12042136   3.402   5.845   6.528 -1.0942  2.2845 -0.5944
  209MOL   H12142137   3.479   5.732   6.427  0.6086  0.2287  2.0735
  209MOL   C12242138   3.422   5.902   6.309  0.2065  0.0241 -0.4329
  209MOL   C12342139   3.275   5.907   6.292 -1.1999 -0.4283  0.1324
  209MOL   C12442140   3.208   5.866   6.179 -0.1171 -0.6181  0.1511
  209MOL   C12542141   3.063   5.888   6.152 -0.2048  0.1140  0.3389
  209MOL   H12642142   3.458   6.005   6.308  1.1025 -0.1702  3.4567
  209MOL   H12742143   3.462   5.854   6.219  1.1167  1.1961 -0.6623
  209MOL   H12842144   3.220   5.966   6.364  0.8445 -0.1401  1.4804
  209MOL   H12942145   3.269   5.816   6.105 -0.8463 -0.8176 -0.3121
  209MOL   H13042146   3.028   5.788   6.129 -0.4121  0.2279  0.1536
  209MOL   H13142147   3.050   5.946   6.060  0.3106  1.3468  1.0336
  209MOL   C13242148   2.982   5.958   6.260  1.0326  0.3401 -0.0728
  209MOL   C13342149   2.832   5.941   6.243  0.4175  0.3709  0.3387
  209MOL   C13442150   2.744   5.911   6.343  0.1096  0.0687  0.3933
  209MOL   C13542151   2.593   5.911   6.324  0.9549 -0.2884  0.1896
  209MOL   H13642152   3.000   5.932   6.364  2.2434 -1.6635 -0.7540
  209MOL   H13742153   2.998   6.066   6.254 -0.9730  0.6449 -0.1396
  209MOL   H13842154   2.798   5.968   6.144  5.8489  1.0976 -1.5381
  209MOL   H13942155   2.775   5.885   6.443  0.6748  0.4398  0.3165
  209MOL   H14042156   2.570   5.846   6.240 -0.9668  2.2510 -1.3366
  209MOL   H14142157   2.568   6.015   6.301  1.5781 -0.1968 -0.0796
  209MOL   C14242158   2.512   5.849   6.434 -0.6121 -0.6690 -0.5902
  209MOL   C14342159   2.362   5.850   6.409 -0.3853 -0.2204  0.0988
  209MOL   C14442160   2.304   5.766   6.320 -0.9282 -0.5197  0.7500
  209MOL   C14542161   2.161   5.753   6.279  0.1928  0.2634 -0.3386
  209MOL   H14642162   2.544   5.747   6.452  3.5111  0.9334  1.9242
  209MOL   H14742163   2.518   5.898   6.532  1.5462 -1.9102 -0.0769
  209MOL   H14842164   2.299   5.911   6.472 -0.3647  0.2437 -0.3311
  209MOL   H14942165   2.369   5.694   6.273  2.1320  1.9909  0.9622
  209MOL   H15042166   2.123   5.667   6.335 -1.1337  1.1488  0.1325
  209MOL   H15142167   2.162   5.705   6.181  1.4830  0.5446 -0.4783
  209MOL   C15242168   2.081   5.879   6.285 -0.9667  0.9410  0.7332
  209MOL   C15342169   1.937   5.847   6.297  0.2230  0.2710 -0.1103
  209MOL   C15442170   1.840   5.881   6.216  0.5491 -0.4015  0.9198
  209MOL   C15542171   1.692   5.851   6.239  0.6758 -0.2747 -0.0013
  209MOL   H15642172   2.101   5.942   6.372  0.3637  1.0603  0.3570
  209MOL   H15742173   2.090   5.948   6.201  1.2413 -0.7170 -0.4623
  209MOL   H15842174   1.901   5.806   6.390 -0.0556  2.4746  0.7938
  209MOL   H15942175   1.870   5.922   6.120  0.3547 -0.6368  0.7587
  209MOL   H16042176   1.658   5.953   6.225  1.1140 -0.1883 -0.4413
  209MOL   H16142177   1.674   5.838   6.346 -0.9742  3.9647  0.3053
  209MOL   C16242178   1.622   5.750   6.155  0.3763  0.4082  0.7377
  209MOL   C16342179   1.685   5.613   6.153 -0.3954  0.3711 -0.3949
  209MOL   C16442180   1.684   5.527   6.255 -0.5892 -0.0052  0.2120
  209MOL   C16542181   1.745   5.389   6.267 -0.3729 -1.3101 -0.5309
  209MOL   H16642182   1.521   5.751   6.198 -0.8882  0.3475 -2.1569
  209MOL   H16742183   1.615   5.782   6.052 -1.3046  1.1229  1.0540
  209MOL   H16842184   1.743   5.578   6.069 -0.8206  0.3248 -0.6671
  209MOL   H16942185   1.621   5.561   6.336  0.6473 -0.4482  1.4081
  209MOL   H17042186   1.773   5.352   6.168  1.1708  0.4516 -0.7969
  209MOL   H17142187   1.672   5.319   6.307  1.6392 -2.4425  1.1975
  209MOL   C17242188   1.866   5.388   6.360  0.4684 -0.1034 -0.0715
  209MOL   C17342189   1.913   5.253   6.378 -0.6064  0.0014 -0.3657
  209MOL   C17442190   1.908   5.181   6.491  0.3238  0.4164  0.6127
  209MOL   C17542191   1.958   5.039   6.514  0.9487 -0.2110  0.0693
  209MOL   H17642192   1.936   5.461   6.320  1.6718 -0.3256  1.5893
  209MOL   H17742193   1.838   5.417   6.461  0.5362  0.1372 -0.1225
  209MOL   H17842194   1.970   5.213   6.296 -0.7660 -2.8503  0.8723
  209MOL   H17942195   1.857   5.228   6.574 -0.5916 -0.6157  0.6488
  209MOL   H18042196   1.997   4.993   6.423 -1.2451 -0.1017 -0.9671
  209MOL   H18142197   1.866   4.988   6.544  1.5490 -1.5479 -0.3598
  209MOL   C18242198   2.048   5.021   6.635  0.4388 -0.0243  0.0849
  209MOL   C18342199   2.048   4.871   6.677  0.0880  0.2245 -0.0055
  209MOL   C18442200   2.069   4.829   6.804  0.1912  0.6380  0.4302
  209MOL   C18542201   2.095   4.680   6.832 -0.1104  0.0626 -0.5647
  209MOL   H18642202   2.151   5.041   6.606  0.1370  1.2670 -0.1440
  209MOL   H18742203   2.012   5.084   6.717  1.2024  0.5197  0.0033
  209MOL   H18842204   2.043   4.804   6.593  2.0974 -1.7090  1.3737
  209MOL   H18942205   2.086   4.894   6.888  0.5645  0.7384  0.2800
  209MOL   H19042206   2.065   4.609   6.755 -1.2864  1.9079 -1.8725
  209MOL   H19142207   2.037   4.642   6.916 -1.4560 -0.2584 -1.6121
  209MOL   C19242208   2.243   4.653   6.867 -0.0193 -0.0362 -0.0157
  209MOL   C19342209   2.276   4.511   6.866  0.5850 -0.1368  0.1647
  209MOL   C19442210   2.319   4.437   6.969  0.3985 -0.4058 -0.3726
  209MOL   C19542211   2.387   4.303   6.953 -0.8801 -0.3404 -0.6550
  209MOL   H19642212   2.303   4.704   6.792 -0.0535 -0.4396 -0.3206
  209MOL   H19742213   2.253   4.709   6.960 -0.2450  0.5189 -0.3276
  209MOL   H19842214   2.281   4.475   6.764  1.6137 -0.0752  0.1941
  209MOL   H19942215   2.309   4.481   7.067 -2.2666 -0.6153 -0.5065
  209MOL   H20042216   2.485   4.299   7.000 -1.3602 -0.1599  0.3870
  209MOL   H20142217   2.392   4.277   6.847 -1.9505 -1.4744 -0.4362
  209MOL   H20242218   2.323   4.231   7.003 -0.2143  0.5528  1.5551
  210MOL     C142219   5.974   2.477   6.614 -0.0740  0.1542  0.2283
  210MOL     C242220   6.122   2.443   6.581 -0.4155  0.3461 -0.0380
  210MOL     C342221   6.162   2.340   6.503 -0.0287  0.4047 -0.6749
  210MOL     C442222   6.306   2.297   6.477 -1.2823  0.0969  0.0222
  210MOL     H542223   5.964   2.585   6.605 -0.4595  0.2384  1.6337
  210MOL     H642224   5.949   2.432   6.710 -1.5802  0.5033  0.0120
  210MOL     H742225   6.202   2.490   6.638  0.5335 -1.6613  0.3332
  210MOL     H842226   6.087   2.281   6.453  1.0636 -0.0975 -1.7302
  210MOL     H942227   6.379   2.363   6.525 -0.1538  0.0543 -1.6083
  210MOL    H1042228   6.333   2.300   6.372 -1.7074 -1.4461 -0.1442
  210MOL    H1142229   5.913   2.438   6.532 -0.0512  1.6629 -0.5159
  210MOL    C1242230   6.314   2.148   6.522  0.5900 -0.1163  0.2335
  210MOL    C1342231   6.450   2.079   6.494  0.1473 -0.2953  0.3356
  210MOL    C1442232   6.523   2.091   6.385  0.2146  0.7314 -0.5604
  210MOL    C1542233   6.653   2.013   6.350  0.4050  0.3046  0.0750
  210MOL    H1642234   6.294   2.132   6.628  2.4982  0.6468  0.7348
  210MOL    H1742235   6.236   2.092   6.470  1.4488 -0.2320 -0.9663
  210MOL    H1842236   6.489   2.015   6.572 -0.3799 -1.8339 -0.6660
  210MOL    H1942237   6.493   2.166   6.313  1.7596  0.2685 -1.7118
  210MOL    H2042238   6.658   1.973   6.249  3.3999 -0.8701  0.6412
  210MOL    H2142239   6.639   1.925   6.413  1.9108  0.6271  0.9007
  210MOL    C2242240   6.778   2.081   6.395  0.2910 -0.2545 -0.3664
  210MOL    C2342241   6.784   2.108   6.543 -0.4677  0.0117 -0.6646
  210MOL    C2442242   6.861   2.038   6.632  0.1427  0.6832  0.1191
  210MOL    C2542243   6.888   2.062   6.780 -0.6674  0.1715  0.5632
  210MOL    H2642244   6.865   2.024   6.363  0.1832 -0.0180 -1.0971
  210MOL    H2742245   6.794   2.179   6.350  2.3543 -1.6917 -2.9438
  210MOL    H2842246   6.731   2.198   6.572  0.2409 -0.1082  1.0604
  210MOL    H2942247   6.917   1.952   6.597 -1.2915 -0.6932  1.1184
  210MOL    H3042248   6.989   2.044   6.815  0.0149  0.3282 -1.2556
  210MOL    H3142249   6.826   1.987   6.829  0.4882 -1.2180 -0.0836
  210MOL    C3242250   6.853   2.205   6.813  0.4421 -0.0875 -0.3739
  210MOL    C3342251   6.859   2.226   6.962  0.1179 -0.0483  0.0087
  210MOL    C3442252   6.910   2.336   7.025  0.7336  0.2325 -0.0133
  210MOL    C3542253   6.916   2.352   7.166 -0.3436 -0.2478 -0.8399
  210MOL    H3642254   6.918   2.265   6.749 -0.7656 -0.4326 -1.9348
  210MOL    H3742255   6.751   2.228   6.784  0.3977  0.0764 -0.0872
  210MOL    H3842256   6.820   2.145   7.022  0.0541 -0.1052 -0.1092
  210MOL    H3942257   6.938   2.423   6.967 -0.6378  0.8979  0.3122
  210MOL    H4042258   6.918   2.262   7.228  0.5072  1.0055  0.9863
  210MOL    H4142259   6.828   2.408   7.197 -0.3397 -0.8932  0.3978
  210MOL    C4242260   7.050   2.435   7.204  0.5107 -0.5946  0.1178
  210MOL    C4342261   7.066   2.464   7.348 -0.4899 -0.0759  0.5178
  210MOL    C4442262   7.081   2.592   7.397  0.0175  0.5393  0.4132
  210MOL    C4542263   7.097   2.639   7.538 -0.6891  0.0441 -0.1234
  210MOL    H4642264   7.142   2.382   7.178 -0.1329 -0.9253 -1.5404
  210MOL    H4742265   7.051   2.527   7.145  1.2401 -0.7888 -0.1807
  210MOL    H4842266   7.073   2.381   7.417  0.3801 -2.3072 -2.1902
  210MOL    H4942267   7.070   2.670   7.323 -0.3589 -0.0551 -0.1598
  210MOL    H5042268   7.100   2.554   7.606 -0.5991 -0.1962 -0.4256
  210MOL    H5142269   7.012   2.703   7.561 -1.0729 -0.0853 -1.1740
  210MOL    C5242270   7.225   2.723   7.544  0.4206 -0.5101 -0.3280
  210MOL    C5342271   7.353   2.646   7.520 -0.3742  0.0173 -0.3023
  210MOL    C5442272   7.462   2.664   7.602 -0.0332 -0.1067 -0.4469
  210MOL    C5542273   7.591   2.592   7.576  0.1674  0.5633  0.4655
  210MOL    H5642274   7.223   2.796   7.464 -1.6571  0.6091  0.6992
  210MOL    H5742275   7.232   2.785   7.634  0.5402  0.9501 -1.3337
  210MOL    H5842276   7.356   2.580   7.435 -1.3029  1.3267 -1.3736
  210MOL    H5942277   7.453   2.736   7.682  0.5808  0.0676 -0.5343
  210MOL    H6042278   7.583   2.505   7.511  0.8070  1.1878 -0.4664
  210MOL    H6142279   7.615   2.543   7.671  1.3438 -2.1596 -1.1870
  210MOL    C6242280   7.701   2.685   7.534  0.6130 -0.0498 -0.3336
  210MOL    C6342281   7.824   2.607   7.474  0.3912  0.6384  0.1644
  210MOL    C6442282   7.947   2.626   7.522 -0.0993 -0.3365  0.4575
  210MOL    C6542283   0.104   2.570   7.466  0.2941  0.7458  0.5538
  210MOL    H6642284   7.665   2.747   7.452  0.3222 -2.1381 -1.8154
  210MOL    H6742285   7.732   2.746   7.619 -0.4240 -1.6710  1.2427
  210MOL    H6842286   7.813   2.542   7.388  0.8402 -1.0123  1.3274
  210MOL    H6942287   7.951   2.691   7.609  0.6251  1.0322 -0.5725
  210MOL    H7042288   0.058   2.496   7.400  1.4569  0.0987  0.4576
  210MOL    H7142289   0.176   2.521   7.531  1.2686 -0.3660 -1.3206
  210MOL    C7242290   0.188   2.664   7.376 -0.6488 -0.1506 -0.0862
  210MOL    C7342291   0.294   2.593   7.294 -0.3837 -0.4092  0.6254
  210MOL    C7442292   0.426   2.611   7.303 -0.4426 -0.2223  0.4259
  210MOL    C7542293   0.529   2.525   7.231 -0.4066  0.3349  0.0608
  210MOL    H7642294   0.122   2.707   7.299 -0.0397  1.6807  0.3901
  210MOL    H7742295   0.230   2.746   7.434  0.9642 -1.1175  0.1233
  210MOL    H7842296   0.259   2.527   7.216 -3.7140 -1.5900  3.0241
  210MOL    H7942297   0.459   2.686   7.374  0.4546 -0.2031 -0.0004
  210MOL    H8042298   0.604   2.594   7.192 -1.8052  1.8536 -0.0021
  210MOL    H8142299   0.477   2.468   7.154  1.4013 -0.1163 -0.8326
  210MOL    C8242300   0.589   2.421   7.330 -0.3017  0.2184 -0.9436
  210MOL    C8342301   0.674   2.321   7.264 -1.0103  0.3622 -0.2123
  210MOL    C8442302   0.806   2.329   7.243 -0.3098  0.0923  0.1249
  210MOL    C8542303   0.884   2.214   7.186  0.1651  0.9627 -0.4756
  210MOL    H8642304   0.643   2.470   7.412 -1.4623  0.5971 -0.3834
  210MOL    H8742305   0.500   2.372   7.371  0.0066  0.8709  0.5493
  210MOL    H8842306   0.623   2.228   7.245  1.1921 -1.5504  2.7256
  210MOL    H8942307   0.861   2.416   7.275 -1.5165  0.3875  1.4460
  210MOL    H9042308   0.920   2.244   7.088 -0.5366 -3.0690 -2.0591
  210MOL    H9142309   0.817   2.128   7.172  1.5536 -0.0186 -1.2422
  210MOL    C9242310   1.004   2.182   7.283  0.2582 -0.1073  0.0879
  210MOL    C9342311   1.085   2.065   7.229 -0.5516 -0.6395 -0.4329
  210MOL    C9442312   1.136   1.973   7.313  0.5097  0.1409  0.2013
  210MOL    C9542313   1.220   1.850   7.276  0.1511  0.2556 -0.8837
  210MOL    H9642314   1.073   2.266   7.274  0.3064 -0.1036  0.4664
  210MOL    H9742315   0.981   2.170   7.389 -2.4620 -0.0345 -0.4613
  210MOL    H9842316   1.108   2.070   7.124  2.1404  0.0984  0.1496
  210MOL    H9942317   1.119   1.977   7.420  2.3102 -2.3559  0.6064
  210MOL   H10042318   1.187   1.814   7.179 -1.2630 -0.1443 -0.2715
  210MOL   H10142319   1.206   1.773   7.353  0.7624  0.9914 -0.0274
  210MOL   C10242320   1.366   1.885   7.260  0.5040 -0.1682 -0.7210
  210MOL   C10342321   1.460   1.774   7.214 -0.1707 -0.5329  0.0204
  210MOL   C10442322   1.548   1.702   7.287 -0.9045 -0.2182 -0.0783
  210MOL   C10542323   1.627   1.591   7.229 -0.3772  0.0212  0.1615
  210MOL   H10642324   1.396   1.972   7.202  0.5542  1.4245  1.6074
  210MOL   H10742325   1.389   1.908   7.364 -2.4695  0.5307 -0.1824
  210MOL   H10842326   1.460   1.753   7.108 -0.1251  0.5145 -0.1941
  210MOL   H10942327   1.553   1.729   7.392 -3.8658  1.9725 -0.4317
  210MOL   H11042328   1.731   1.606   7.258  0.0031 -0.7982 -0.7485
  210MOL   H11142329   1.621   1.594   7.121 -0.6033  0.1857  0.1785
  210MOL   C11242330   1.583   1.457   7.294  0.5359  0.5214  0.4623
  210MOL   C11342331   1.666   1.337   7.251 -0.1450  0.4269 -0.1850
  210MOL   C11442332   1.773   1.347   7.178  0.0783  0.2271  0.0273
  210MOL   C11542333   1.864   1.231   7.121  0.3561 -0.0965  0.2707
  210MOL   H11642334   1.586   1.466   7.403 -1.6387  1.1760  0.5008
  210MOL   H11742335   1.475   1.448   7.282  0.1912  2.7000  1.7834
  210MOL   H11842336   1.637   1.240   7.289  0.4334 -0.2446 -1.4178
  210MOL   H11942337   1.799   1.445   7.142  1.3309  0.1523  0.7142
  210MOL   H12042338   1.858   1.223   7.012  0.4620  1.6667  0.1330
  210MOL   H12142339   1.834   1.134   7.161  1.0728 -1.2484 -1.8833
  210MOL   C12242340   2.011   1.258   7.157  0.8891 -0.1532  0.0145
  210MOL   C12342341   2.099   1.136   7.141  0.8672 -0.3089 -0.3856
  210MOL   C12442342   2.231   1.138   7.118  0.0319 -0.2566  0.3452
  210MOL   C12542343   2.319   1.016   7.098  0.2164  0.3687  0.0809
  210MOL   H12642344   2.047   1.352   7.115  2.2663 -1.1507 -1.0233
  210MOL   H12742345   2.014   1.283   7.264  0.3109 -1.4237  0.3302
  210MOL   H12842346   2.050   1.042   7.161 -0.6842  0.0667 -2.2913
  210MOL   H12942347   2.273   1.237   7.112 -0.8806  0.1206  0.1510
  210MOL   H13042348   2.360   1.030   6.998 -0.9333 -1.2358 -0.6518
  210MOL   H13142349   2.257   0.926   7.107 -0.7393  0.9869 -0.2611
  210MOL   C13242350   2.439   1.016   7.193  0.0553  0.2192 -0.1295
  210MOL   C13342351   2.525   0.902   7.166  0.0194  0.0253  0.5440
  210MOL   C13442352   2.660   0.914   7.153 -0.4103  1.1043 -0.5848
  210MOL   C13542353   2.753   0.799   7.123  0.4350  0.2822  0.0363
  210MOL   H13642354   2.498   1.106   7.172  0.3074  0.3182  0.9738
  210MOL   H13742355   2.406   1.014   7.297 -1.3966  1.8177 -0.5493
  210MOL   H13842356   2.480   0.809   7.136  1.0511  0.5561 -2.8526
  210MOL   H13942357   2.701   1.012   7.171 -1.9806  1.8839 -1.1398
  210MOL   H14042358   2.798   0.816   7.025  0.1488 -0.3668 -0.2104
  210MOL   H14142359   2.704   0.702   7.115  0.5794  0.4038 -2.8809
  210MOL   C14242360   2.856   0.782   7.234 -0.1057 -0.1638 -0.0252
  210MOL   C14342361   2.801   0.747   7.376 -0.3566 -0.9520 -0.4102
  210MOL   C14442362   2.781   0.626   7.424 -0.0241 -0.7432 -0.2306
  210MOL   C14542363   2.727   0.591   7.556  0.2038  0.1964 -0.7717
  210MOL   H14642364   2.925   0.706   7.198  0.1616 -0.1329  0.4109
  210MOL   H14742365   2.923   0.867   7.247  2.1729 -1.9081  0.0122
  210MOL   H14842366   2.777   0.825   7.447  0.0088 -3.2201  2.2842
  210MOL   H14942367   2.790   0.543   7.356 -1.7612 -0.4710 -0.8242
  210MOL   H15042368   2.686   0.683   7.600 -0.0886 -0.6388  0.7230
  210MOL   H15142369   2.788   0.551   7.637 -2.6299 -2.4957  0.1429
  210MOL   C15242370   2.608   0.498   7.547  0.2718  0.2417 -0.1271
  210MOL   C15342371   2.646   0.356   7.519  0.0468 -0.2005  0.8944
  210MOL   C15442372   2.565   0.271   7.453  0.1949 -0.2310 -0.1197
  210MOL   C15542373   2.608   0.132   7.438 -0.0006  0.5872  0.6261
  210MOL   H15642374   2.543   0.506   7.634 -0.6672 -0.2278 -0.7773
  210MOL   H15742375   2.538   0.537   7.473 -0.3099  1.3464  0.9857
  210MOL   H15842376   2.740   0.323   7.560  1.1251 -0.1709 -1.4839
  210MOL   H15942377   2.461   0.286   7.428  0.4132 -1.2516 -1.6837
  210MOL   H16042378   2.707   0.119   7.482  1.5721 -0.4686 -2.9715
  210MOL   H16142379   2.615   0.121   7.329  1.5174  2.1115  0.5496
  210MOL   C16242380   2.506   0.037   7.508  0.1770  0.3808  0.8121
  210MOL   C16342381   2.555   7.874   7.500 -0.3843 -0.4118 -0.1622
  210MOL   C16442382   2.492   7.790   7.419  0.0138  0.4840 -0.6637
  210MOL   C16542383   2.521   7.640   7.419 -0.1476  0.0102 -0.3343
  210MOL   H16642384   2.504   0.045   7.617  0.9654 -3.5128  1.1951
  210MOL   H16742385   2.407   0.056   7.467  0.8582  0.2885 -0.9211
  210MOL   H16842386   2.645   7.849   7.554  0.1284  0.4732 -0.6016
  210MOL   H16942387   2.399   7.820   7.374 -1.1816 -2.0650  0.0227
  210MOL   H17042388   2.454   7.605   7.497  1.2810 -0.5974  0.6260
  210MOL   H17142389   2.619   7.618   7.459 -0.2683  0.2247  0.0871
  210MOL   C17242390   2.463   7.570   7.294  0.1036  0.6116  0.3190
  210MOL   C17342391   2.485   7.417   7.300  0.0076  0.0302  0.1629
  210MOL   C17442392   2.422   7.321   7.372  0.5002 -0.4691 -0.3254
  210MOL   C17542393   2.452   7.172   7.377  0.7177 -0.7746  0.1346
  210MOL   H17642394   2.354   7.581   7.297 -0.0428 -0.9040  0.9444
  210MOL   H17742395   2.505   7.597   7.197  0.6363 -0.8411  0.1445
  210MOL   H17842396   2.558   7.372   7.235 -1.9415 -1.8408 -0.8262
  210MOL   H17942397   2.352   7.360   7.445 -0.8298 -0.3541 -1.6318
  210MOL   H18042398   2.473   7.138   7.478 -0.5040  0.6697  0.8950
  210MOL   H18142399   2.544   7.154   7.320  0.6377  1.6145 -0.8146
  210MOL   C18242400   2.327   7.098   7.320  0.1466 -0.2375 -0.1498
  210MOL   C18342401   2.353   6.955   7.333  0.7429 -1.2729  0.2896
  210MOL   C18442402   2.299   6.871   7.418  0.1088 -0.9308  0.5836
  210MOL   C18542403   2.354   6.739   7.423  0.0559  0.0309 -0.5775
  210MOL   H18642404   2.233   7.128   7.367  0.6567  0.7173  0.2851
  210MOL   H18742405   2.301   7.120   7.217  0.7710 -0.5772 -0.3787
  210MOL   H18842406   2.445   6.927   7.283  2.1868  4.5308 -0.6314
  210MOL   H18942407   2.234   6.908   7.496  1.6576  0.3675  1.3058
  210MOL   H19042408   2.414   6.731   7.333 -1.3957  1.2260 -1.6796
  210MOL   H19142409   2.266   6.675   7.410 -0.0387  0.2741 -1.1099
  210MOL   C19242410   2.443   6.700   7.545  0.2297  0.0072  0.0983
  210MOL   C19342411   2.454   6.549   7.554  0.3274 -0.2268 -0.2962
  210MOL   C19442412   2.570   6.481   7.556 -0.2679 -0.3028 -1.1913
  210MOL   C19542413   2.583   6.329   7.563 -0.1604 -0.2521 -0.1937
  210MOL   H19642414   2.546   6.731   7.535  0.8392 -2.0060 -0.1447
  210MOL   H19742415   2.409   6.739   7.641 -0.6796  1.6017 -0.8445
  210MOL   H19842416   2.355   6.507   7.563 -0.0966  0.7761 -0.2356
  210MOL   H19942417   2.662   6.531   7.529 -1.2467  0.6805 -2.7482
  210MOL   H20042418   2.488   6.281   7.588  0.7768 -2.6235 -1.1157
  210MOL   H20142419   2.658   6.307   7.638 -1.0307  0.2651  0.8521
  210MOL   H20242420   2.607   6.285   7.466 -0.1377  1.0983 -0.8207
  211MOL     C142421   4.239   2.013   5.337 -0.6787  0.3622 -0.6548
  211MOL     C242422   4.335   1.891   5.361  0.5798 -0.1642 -0.3147
  211MOL     C342423   4.346   1.783   5.282  0.0855  1.3727  0.0635
  211MOL     C442424   4.444   1.670   5.309 -0.6201 -0.2719 -0.1845
  211MOL     H542425   4.287   2.092   5.394  0.3422 -0.6093 -0.1693
  211MOL     H642426   4.150   1.987   5.394 -1.8378  5.1205 -0.0660
  211MOL     H742427   4.409   1.904   5.438  0.6339 -0.5930 -0.2893
  211MOL     H842428   4.285   1.768   5.195  0.9908 -1.2204 -0.1624
  211MOL     H942429   4.493   1.678   5.406 -1.1249 -0.5539  0.0949
  211MOL    H1042430   4.516   1.683   5.228  0.8700  2.5987  1.5247
  211MOL    H1142431   4.218   2.035   5.232  2.2544  0.6967 -1.1971
  211MOL    C1242432   4.370   1.530   5.320  0.4018  0.5920 -0.0824
  211MOL    C1342433   4.448   1.399   5.346  0.0087 -0.3381  0.2361
  211MOL    C1442434   4.571   1.396   5.385 -0.5365 -0.0450  0.0601
  211MOL    C1542435   4.660   1.273   5.410 -0.3539 -0.5815  0.5768
  211MOL    H1642436   4.290   1.530   5.395 -1.1775  0.7271 -1.7464
  211MOL    H1742437   4.328   1.516   5.221 -0.4259 -0.3939  0.4006
  211MOL    H1842438   4.388   1.309   5.339 -2.8865  1.2960  2.6189
  211MOL    H1942439   4.631   1.486   5.392  1.5780 -1.5020  1.5730
  211MOL    H2042440   4.740   1.279   5.337 -1.2870  0.0099 -0.4242
  211MOL    H2142441   4.603   1.187   5.375 -0.0211 -0.8173  0.6117
  211MOL    C2242442   4.707   1.256   5.558 -0.2846 -0.1443 -0.1287
  211MOL    C2342443   4.816   1.159   5.570  0.4594  0.1596  0.7841
  211MOL    C2442444   4.830   1.064   5.662  0.2182  0.6209 -0.1782
  211MOL    C2542445   4.953   0.976   5.669 -0.5900  0.1342 -0.3987
  211MOL    H2642446   4.732   1.354   5.597  2.6818 -0.0116 -2.1898
  211MOL    H2742447   4.623   1.222   5.618 -0.5260 -0.0998 -0.4381
  211MOL    H2842448   4.899   1.166   5.502  0.2158  1.7098  0.6267
  211MOL    H2942449   4.749   1.051   5.732  0.3596  0.7081  0.0007
  211MOL    H3042450   5.012   0.983   5.578 -2.0987 -0.6959 -1.4579
  211MOL    H3142451   4.917   0.873   5.673  1.2559 -0.5083  0.3748
  211MOL    C3242452   5.044   0.993   5.793  0.5872  1.2402  0.2214
  211MOL    C3342453   5.174   0.914   5.772 -0.1135  0.2358  0.2268
  211MOL    C3442454   5.289   0.973   5.766 -0.4769 -1.0301  0.1884
  211MOL    C3542455   5.427   0.913   5.749 -0.4555  0.7340  0.4759
  211MOL    H3642456   5.060   1.098   5.816  0.0351  1.0751  1.3697
  211MOL    H3742457   4.995   0.950   5.881  1.7025  1.6163  1.0406
  211MOL    H3842458   5.167   0.807   5.769  1.1020  0.1020  1.7106
  211MOL    H3942459   5.296   1.081   5.761 -2.3184 -0.8698  0.8349
  211MOL    H4042460   5.438   0.896   5.642 -1.4367 -0.2052  0.5182
  211MOL    H4142461   5.424   0.811   5.787 -0.1775  1.5351  2.7634
  211MOL    C4242462   5.537   1.003   5.801 -0.4978 -0.1571 -0.2348
  211MOL    C4342463   5.669   0.930   5.832  0.3621  0.8267 -0.3491
  211MOL    C4442464   5.710   0.810   5.784 -0.4838  0.1442 -0.0941
  211MOL    C4542465   5.836   0.739   5.826  0.0660  0.1807  0.2837
  211MOL    H4642466   5.552   1.094   5.743 -0.5186  0.6255  0.9908
  211MOL    H4742467   5.506   1.027   5.903 -0.3632  1.0533 -0.4726
  211MOL    H4842468   5.737   0.978   5.901 -0.8915  1.1015  0.7189
  211MOL    H4942469   5.643   0.759   5.717  1.0887 -2.0217 -0.0873
  211MOL    H5042470   5.911   0.795   5.883  0.7439  1.4116 -1.7432
  211MOL    H5142471   5.882   0.712   5.731 -0.3211 -0.3968  0.2574
  211MOL    C5242472   5.795   0.602   5.890  0.4872  0.2427  0.3869
  211MOL    C5342473   5.921   0.532   5.919 -0.0409 -0.4411  0.5908
  211MOL    C5442474   5.940   0.412   5.863  0.5312  0.0142  0.3167
  211MOL    C5542475   6.069   0.337   5.876  0.2724  0.4345  0.4431
  211MOL    H5642476   5.731   0.619   5.976 -1.1107  0.0680 -0.7418
  211MOL    H5742477   5.734   0.557   5.812  0.3068 -1.1415  1.3035
  211MOL    H5842478   5.997   0.588   5.971  1.3330  1.4460 -3.2446
  211MOL    H5942479   5.862   0.357   5.811  0.3534 -0.6207  1.2559
  211MOL    H6042480   6.139   0.412   5.915  0.8683 -0.1438  0.4935
  211MOL    H6142481   6.120   0.310   5.784  0.8141  0.3331  0.7628
  211MOL    C6242482   6.047   0.219   5.974 -0.0407  0.2014 -0.4905
  211MOL    C6342483   6.159   0.119   5.963 -0.1791  0.4750 -0.4589
  211MOL    C6442484   6.198   0.043   6.066  0.4469  0.1799 -0.0659
  211MOL    C6542485   6.306   7.912   6.064 -0.0386  0.1785 -0.2791
  211MOL    H6642486   6.024   0.242   6.078  1.1997 -1.1876  0.0960
  211MOL    H6742487   5.963   0.158   5.939 -0.7638  0.5750  0.5559
  211MOL    H6842488   6.198   0.112   5.863  0.1161 -0.0422 -0.3089
  211MOL    H6942489   6.144   0.059   6.158 -0.5155  0.2152 -0.6337
  211MOL    H7042490   6.329   7.892   5.959 -0.1839 -0.5481 -0.1737
  211MOL    H7142491   6.259   7.822   6.102  0.1073  0.3937  0.4035
  211MOL    C7242492   6.419   7.948   6.162  0.2738  0.4023 -0.3969
  211MOL    C7342493   6.501   7.822   6.180  0.0938  0.0332  0.1456
  211MOL    C7442494   6.520   7.718   6.096  0.0838 -0.8005  0.1102
  211MOL    C7542495   6.613   7.594   6.125  0.4965  0.7977  0.1522
  211MOL    H7642496   6.480   0.058   6.138 -1.1462  1.7045  0.5935
  211MOL    H7742497   6.374   7.963   6.260  1.0280 -1.6429  0.2848
  211MOL    H7842498   6.563   7.816   6.268  2.4926  1.9025 -1.3518
  211MOL    H7942499   6.470   7.718   6.001  1.4383  4.1702 -0.7489
  211MOL    H8042500   6.552   7.503   6.124 -3.2220  3.1765  1.1115
  211MOL    H8142501   6.628   7.597   6.233 -2.1756  0.5203  0.5736
  211MOL    C8242502   6.745   7.595   6.055 -0.1199  0.0553 -1.1491
  211MOL    C8342503   6.834   7.477   6.099 -0.6633 -0.7147  0.6465
  211MOL    C8442504   6.921   7.481   6.203  0.4705  0.2910  0.6466
  211MOL    C8542505   6.990   7.348   6.244 -0.6374 -0.7028  0.2752
  211MOL    H8642506   6.739   7.596   5.946  0.4221  2.8530 -1.1818
  211MOL    H8742507   6.799   7.687   6.076 -1.4091  0.7756 -0.9925
  211MOL    H8842508   6.822   7.381   6.052 -2.5247  0.9403 -2.3727
  211MOL    H8942509   6.941   7.572   6.257  0.3723  1.8000 -1.7855
  211MOL    H9042510   7.096   7.364   6.263 -0.6678  1.6675 -1.3710
  211MOL    H9142511   6.991   7.275   6.163  1.1951 -0.6028  0.1889
  211MOL    C9242512   6.925   7.283   6.365 -0.3802 -0.9041 -0.2907
  211MOL    C9342513   6.938   7.349   6.500  0.5538  0.2176 -0.1581
  211MOL    C9442514   6.828   7.414   6.556 -0.0510  0.3688  0.0623
  211MOL    C9542515   6.822   7.471   6.703  0.0670 -0.0812 -0.3636
  211MOL    H9642516   6.817   7.276   6.354 -0.5247 -2.1945  1.6966
  211MOL    H9742517   6.946   7.176   6.365  2.1836 -0.4509  1.7134
  211MOL    H9842518   7.035   7.335   6.544  1.4292 -3.7612 -3.0582
  211MOL    H9942519   6.738   7.423   6.496 -0.8658 -2.4966  0.7843
  211MOL   H10042520   6.835   7.579   6.694  0.7956 -0.2229 -1.0114
  211MOL   H10142521   6.913   7.432   6.749 -0.4288  1.7274  2.3047
  211MOL   C10242522   6.699   7.417   6.777  0.3470  0.3636  0.1573
  211MOL   C10342523   6.568   7.459   6.717 -0.7733  0.9685 -0.2097
  211MOL   C10442524   6.497   7.374   6.646 -0.3411 -0.6026 -0.1662
  211MOL   C10542525   6.364   7.422   6.589  0.3231  0.2733  0.4537
  211MOL   H10642526   6.706   7.308   6.770 -1.6293 -0.1399  4.3554
  211MOL   H10742527   6.697   7.442   6.883 -2.4552 -1.3672  0.5652
  211MOL   H10842528   6.538   7.559   6.744  1.6339  1.5340  0.5538
  211MOL   H10942529   6.533   7.278   6.613 -1.3518  0.2941 -4.1870
  211MOL   H11042530   6.329   7.502   6.653  1.2065  0.3827  0.8019
  211MOL   H11142531   6.294   7.338   6.586 -1.3396  1.6446  0.3953
  211MOL   C11242532   6.378   7.480   6.444  0.0722 -0.5322  0.3646
  211MOL   C11342533   6.250   7.547   6.393  0.0470 -0.1536  0.0211
  211MOL   C11442534   6.125   7.529   6.438 -0.4267  0.2924  0.5004
  211MOL   C11542535   5.995   7.609   6.399 -0.1638 -0.2934 -0.0043
  211MOL   H11642536   6.451   7.561   6.438  0.0066 -0.5355 -0.4388
  211MOL   H11742537   6.410   7.405   6.372 -0.7722 -2.6233  2.1268
  211MOL   H11842538   6.261   7.610   6.306 -0.7665  0.5378  0.4236
  211MOL   H11942539   6.104   7.464   6.521  0.0051 -0.6269 -0.1083
  211MOL   H12042540   6.013   7.678   6.316 -0.3313  1.7507  1.5991
  211MOL   H12142541   5.995   7.670   6.489  0.0841 -0.0685 -0.1558
  211MOL   C12242542   5.867   7.526   6.391  0.3617  0.5054 -0.0728
  211MOL   C12342543   5.746   7.610   6.356 -0.2544  0.0863 -0.2316
  211MOL   C12442544   5.620   7.567   6.367 -0.1185  0.1733 -1.0352
  211MOL   C12542545   5.498   7.652   6.340  0.4269 -0.2652 -0.3571
  211MOL   H12642546   5.874   7.452   6.310  1.6905 -0.0794  0.5555
  211MOL   H12742547   5.850   7.489   6.492 -0.9531  0.6299 -0.2381
  211MOL   H12842548   5.754   7.714   6.326  1.5849  0.6021  1.9452
  211MOL   H12942549   5.592   7.469   6.403 -0.5325  0.2803 -1.0654
  211MOL   H13042550   5.475   7.651   6.233 -1.0225 -0.5047 -0.0561
  211MOL   H13142551   5.522   7.750   6.380  1.2998 -1.3800  1.9356
  211MOL   C13242552   5.380   7.589   6.423  0.1254 -0.6076  0.4709
  211MOL   C13342553   5.246   7.654   6.404 -0.3118  0.2026  0.7308
  211MOL   C13442554   5.125   7.597   6.365 -0.6532 -0.4084 -0.1325
  211MOL   C13542555   4.991   7.675   6.347 -0.3622 -0.5385 -0.2315
  211MOL   H13642556   5.372   7.485   6.390 -0.1245 -0.1041 -1.0465
  211MOL   H13742557   5.401   7.585   6.530 -1.8468 -2.1943  0.8282
  211MOL   H13842558   5.247   7.762   6.408  0.1122  0.2975 -1.3604
  211MOL   H13942559   5.117   7.491   6.347  0.9036 -0.8392  1.5368
  211MOL   H14042560   4.985   7.697   6.241 -1.3572  0.0515 -0.0554
  211MOL   H14142561   5.007   7.765   6.406 -1.6268 -0.3877 -0.1071
  211MOL   C14242562   4.871   7.595   6.403 -0.4859  0.7382 -0.0886
  211MOL   C14342563   4.734   7.653   6.369  0.0510 -0.3398  0.2325
  211MOL   C14442564   4.634   7.690   6.456  0.0143  0.0636 -0.2582
  211MOL   C14542565   4.504   7.744   6.402  0.2364 -0.0121 -0.1976
  211MOL   H14642566   4.861   7.497   6.357  0.4477  0.6157 -0.0282
  211MOL   H14742567   4.889   7.572   6.508  2.5246 -0.9903 -0.9344
  211MOL   H14842568   4.706   7.662   6.264 -0.5761  1.9340  0.5668
  211MOL   H14942569   4.651   7.680   6.562 -2.6455 -1.8893  0.0228
  211MOL   H15042570   4.481   7.710   6.301  1.2925 -0.3943 -0.3175
  211MOL   H15142571   4.507   7.853   6.398  0.8710 -0.0319 -0.3502
  211MOL   C15242572   4.389   7.700   6.495 -0.1432 -0.0715 -0.0449
  211MOL   C15342573   4.336   7.562   6.464 -0.0262  0.0119 -0.3085
  211MOL   C15442574   4.308   7.465   6.563  0.3370 -0.3258  0.4866
  211MOL   C15542575   4.233   7.338   6.535 -0.1003 -0.2115 -0.0978
  211MOL   H15642576   4.418   7.711   6.600  0.6326  0.0848 -0.2709
  211MOL   H15742577   4.302   7.766   6.487  0.4377  0.7740  0.5204
  211MOL   H15842578   4.306   7.536   6.364 -1.6348  0.8535 -0.0649
  211MOL   H15942579   4.334   7.492   6.665  0.1328  0.0499  0.4399
  211MOL   H16042580   4.296   7.276   6.470  0.7739 -1.0045  1.4797
  211MOL   H16142581   4.147   7.359   6.470 -0.2730  1.2297  0.5791
  211MOL   C16242582   4.187   7.262   6.663  0.3188 -0.1774 -0.5719
  211MOL   C16342583   4.305   7.231   6.755  0.2162  0.9766  0.0808
  211MOL   C16442584   4.355   7.106   6.775  0.0204 -0.1635 -0.2063
  211MOL   C16542585   4.466   7.063   6.872 -0.2480 -0.2162  0.1978
  211MOL   H16642586   4.114   7.321   6.718  0.2999  1.5893 -2.4486
  211MOL   H16742587   4.144   7.166   6.635 -2.4690  0.9407 -0.3440
  211MOL   H16842588   4.347   7.310   6.815  1.6974 -0.8587  1.4880
  211MOL   H16942589   4.302   7.024   6.730 -0.4116 -0.2408  0.4479
  211MOL   H17042590   4.412   7.013   6.952  1.5120 -0.5487  1.1958
  211MOL   H17142591   4.510   7.151   6.917  0.4117 -0.3749 -0.1242
  211MOL   C17242592   4.574   6.972   6.808  0.1197  0.3706 -0.2992
  211MOL   C17342593   4.663   6.915   6.913 -0.2203 -0.0568  0.1916
  211MOL   C17442594   4.781   6.970   6.955 -1.1906  0.6988  0.2749
  211MOL   C17542595   4.883   6.894   7.047 -0.6773 -0.0907 -0.9248
  211MOL   H17642596   4.513   6.894   6.762  2.3455 -1.0015 -1.0048
  211MOL   H17742597   4.638   7.021   6.735  2.2482  0.5659  1.6348
  211MOL   H17842598   4.623   6.835   6.973 -1.4405  1.4916  1.4845
  211MOL   H17942599   4.818   7.051   6.895 -0.1087 -0.8276 -1.1786
  211MOL   H18042600   4.982   6.916   7.008 -0.2248  0.0108  0.2628
  211MOL   H18142601   4.857   6.788   7.041  3.4904 -1.1880 -0.6549
  211MOL   C18242602   4.870   6.934   7.196 -0.4686 -0.1207 -0.3527
  211MOL   C18342603   4.974   6.869   7.289  0.1484 -0.5708 -0.3927
  211MOL   C18442604   5.011   6.918   7.409 -0.0778  0.0981 -0.3052
  211MOL   C18542605   5.120   6.853   7.493  0.0007  0.0653 -0.1503
  211MOL   H18642606   4.871   7.040   7.223  0.3184 -0.5623  1.4223
  211MOL   H18742607   4.772   6.893   7.223 -1.2164  1.3885 -0.6981
  211MOL   H18842608   5.012   6.776   7.250 -0.1112 -0.0073 -1.9934
  211MOL   H18942609   4.970   7.012   7.442  1.3055  0.5208  0.2215
  211MOL   H19042610   5.213   6.833   7.440  1.6422  0.9533  2.3133
  211MOL   H19142611   5.087   6.757   7.533 -0.8167  0.8797  1.1809
  211MOL   C19242612   5.152   6.945   7.614  0.3031 -0.0513 -0.2559
  211MOL   C19342613   5.244   6.877   7.715  0.2494 -0.0924  0.1359
  211MOL   C19442614   5.371   6.924   7.737  0.4131  0.1369  0.3393
  211MOL   C19542615   5.483   6.869   7.823 -0.5332 -0.2681 -0.1159
  211MOL   H19642616   5.208   7.033   7.583  0.7889  0.0698  0.9507
  211MOL   H19742617   5.064   6.979   7.668  0.3633  0.3996 -0.4387
  211MOL   H19842618   5.199   6.790   7.761  0.6895 -0.4674 -0.1374
  211MOL   H19942619   5.401   7.015   7.687 -0.2840  0.9180  1.3213
  211MOL   H20042620   5.573   6.852   7.765 -0.0108 -0.3934  0.7263
  211MOL   H20142621   5.449   6.771   7.857 -0.7200  1.0947  3.8735
  211MOL   H20242622   5.493   6.928   7.914  1.9236 -2.9413  1.4144
  212MOL     C142623   5.503   0.228   1.367  0.3902 -0.0929  0.3307
  212MOL     C242624   5.422   0.298   1.262 -0.1543 -0.1453 -0.1509
  212MOL     C342625   5.452   0.316   1.131  0.0364  0.2193  0.0700
  212MOL     C442626   5.363   0.376   1.017 -1.7609  0.1496 -0.5400
  212MOL     H542627   5.611   0.225   1.357  0.5641  0.2219  2.0497
  212MOL     H642628   5.468   0.127   1.388 -0.2427 -0.6328 -2.9976
  212MOL     H742629   5.324   0.341   1.280  0.4649  1.7199 -1.0891
  212MOL     H842630   5.551   0.279   1.107  0.1331  0.8637 -0.5069
  212MOL     H942631   5.321   0.304   0.948 -1.2024 -0.5721 -0.1289
  212MOL    H1042632   5.429   0.433   0.950 -2.7149 -1.5402 -2.9831
  212MOL    H1142633   5.491   0.289   1.457 -0.5192 -2.7166  2.0347
  212MOL    C1242634   5.238   0.459   1.068 -0.4731 -0.0766 -0.5502
  212MOL    C1342635   5.270   0.574   1.160  0.0004  0.0782  0.1646
  212MOL    C1442636   5.184   0.636   1.253  0.5883  1.0989  0.1250
  212MOL    C1542637   5.226   0.734   1.359 -0.4040 -0.2807  0.2398
  212MOL    H1642638   5.188   0.496   0.979  2.2461  0.2217 -2.0291
  212MOL    H1742639   5.171   0.400   1.130 -1.0468  1.6582  0.4897
  212MOL    H1842640   5.371   0.610   1.142  0.1548 -1.0629 -1.2966
  212MOL    H1942641   5.086   0.592   1.264  0.9273  0.0519 -0.9060
  212MOL    H2042642   5.243   0.680   1.452 -0.2617 -0.9309 -0.1611
  212MOL    H2142643   5.146   0.806   1.371  1.4462  2.1733 -1.6781
  212MOL    C2242644   5.346   0.824   1.323  0.0981  0.5029  0.1479
  212MOL    C2342645   5.370   0.936   1.413  0.0691 -0.0470  0.5419
  212MOL    C2442646   5.489   0.966   1.465  0.3706 -0.3015  0.3911
  212MOL    C2542647   5.515   1.069   1.564 -0.3122  0.3895 -0.1236
  212MOL    H2642648   5.428   0.755   1.305 -1.3372 -0.4543 -3.1047
  212MOL    H2742649   5.325   0.868   1.225 -1.8919 -0.0984  0.2783
  212MOL    H2842650   5.286   0.993   1.451 -1.4779 -2.0730  0.2578
  212MOL    H2942651   5.576   0.907   1.442  1.9728  1.3366  2.1256
  212MOL    H3042652   5.422   1.086   1.620 -1.0150 -0.6581 -0.9690
  212MOL    H3142653   5.527   1.166   1.514 -1.0398  0.2601 -0.5557
  212MOL    C3242654   5.615   1.027   1.667  0.3399 -0.6580  0.0615
  212MOL    C3342655   5.643   1.128   1.781  0.0412 -0.0920  0.6644
  212MOL    C3442656   5.580   1.133   1.899  0.2176  0.2757  0.3131
  212MOL    C3542657   5.635   1.219   2.011  0.2337  0.2390 -0.1718
  212MOL    H3642658   5.604   0.927   1.708  0.7773 -1.0625 -0.8006
  212MOL    H3742659   5.710   1.007   1.616 -0.1332 -1.4814 -0.5126
  212MOL    H3842660   5.721   1.199   1.760 -0.1248 -0.3296 -0.8176
  212MOL    H3942661   5.499   1.066   1.924 -0.9996  2.3231  2.0455
  212MOL    H4042662   5.568   1.304   2.020 -1.0188 -0.7641  0.1233
  212MOL    H4142663   5.735   1.256   1.986  0.6367 -0.7119  0.0200
  212MOL    C4242664   5.644   1.138   2.140 -0.3750 -0.0188  0.0143
  212MOL    C4342665   5.671   1.222   2.261 -0.1889 -0.2185 -0.1759
  212MOL    C4442666   5.670   1.177   2.384  0.1235 -0.3470  0.1151
  212MOL    C4542667   5.681   1.256   2.516  0.4219 -0.2252  0.6911
  212MOL    H4642668   5.548   1.093   2.168 -0.4494 -0.1967 -0.5059
  212MOL    H4742669   5.715   1.055   2.141 -0.1871  0.1312  2.0928
  212MOL    H4842670   5.685   1.328   2.243 -0.0286  0.1240  1.8125
  212MOL    H4942671   5.645   1.073   2.399  0.3947 -0.4554 -0.1853
  212MOL    H5042672   5.774   1.218   2.557  0.7510 -0.4253 -0.2258
  212MOL    H5142673   5.592   1.223   2.571 -0.5331  0.2693 -0.5338
  212MOL    C5242674   5.707   1.412   2.507  0.2639 -0.0606 -0.1638
  212MOL    C5342675   5.715   1.467   2.647  0.1721  0.0189  0.4479
  212MOL    C5442676   5.818   1.544   2.683 -0.1661  0.1056  0.2035
  212MOL    C5542677   5.851   1.593   2.819 -0.2550 -0.7325 -0.2266
  212MOL    H5642678   5.798   1.426   2.448  0.0828 -0.0544 -0.4407
  212MOL    H5742679   5.625   1.464   2.459 -0.1635 -2.0833 -1.6898
  212MOL    H5842680   5.648   1.446   2.728  0.5695 -1.3744  0.4427
  212MOL    H5942681   5.892   1.562   2.605 -0.7647  1.4755 -0.0625
  212MOL    H6042682   5.814   1.536   2.904 -1.8661 -0.1444 -0.5140
  212MOL    H6142683   5.806   1.691   2.833  1.3388 -0.1404  0.9396
  212MOL    C6242684   6.002   1.622   2.839  0.6433  0.0244 -0.0528
  212MOL    C6342685   6.041   1.705   2.966  0.0453 -0.1997 -0.3721
  212MOL    C6442686   5.954   1.780   3.037 -0.2735 -0.4777  0.2635
  212MOL    C6542687   5.993   1.860   3.166  0.5925  0.3301  0.4483
  212MOL    H6642688   6.069   1.536   2.846  4.2074  2.7302  0.6199
  212MOL    H6742689   6.040   1.680   2.755 -1.0926  0.8301 -0.2972
  212MOL    H6842690   6.148   1.707   2.981  0.2910 -1.0734 -1.8918
  212MOL    H6942691   5.849   1.786   3.013 -0.2119  1.2810  0.3532
  212MOL    H7042692   5.978   1.962   3.130 -0.8084 -0.1422 -0.3559
  212MOL    H7142693   6.100   1.842   3.179  0.6655  0.7174  0.3876
  212MOL    C7242694   5.926   1.813   3.289 -0.0811 -0.0322  0.3867
  212MOL    C7342695   5.937   1.921   3.394 -0.4433  0.5702  0.4298
  212MOL    C7442696   6.004   1.913   3.508  0.2232 -0.2593 -0.3615
  212MOL    C7542697   6.014   2.020   3.613  0.1749  0.1189  0.8833
  212MOL    H7642698   5.818   1.804   3.273 -0.0465  0.5281 -0.1646
  212MOL    H7742699   5.951   1.713   3.326  2.5220 -0.5848 -2.6320
  212MOL    H7842700   5.891   2.016   3.370 -4.4775 -1.5820 -0.9222
  212MOL    H7942701   6.047   1.817   3.528 -0.3083 -0.0521  1.9350
  212MOL    H8042702   5.980   1.991   3.713 -0.8460 -0.6912  0.3191
  212MOL    H8142703   5.954   2.106   3.586 -0.9341 -1.3898 -1.6710
  212MOL    C8242704   6.161   2.062   3.634 -0.4134 -0.8045 -0.4314
  212MOL    C8342705   6.232   1.960   3.724  0.4495 -0.0802 -0.4611
  212MOL    C8442706   6.280   1.989   3.847  0.4837  0.0182 -0.7821
  212MOL    C8542707   6.364   1.892   3.924 -0.2869 -0.3374 -0.3587
  212MOL    H8642708   6.216   2.070   3.541 -1.4873  2.8096 -0.8529
  212MOL    H8742709   6.161   2.160   3.683  0.7075 -0.5266 -0.9536
  212MOL    H8842710   6.236   1.857   3.693  1.4057  0.2581 -1.4761
  212MOL    H8942711   6.258   2.087   3.887  0.3354  0.0515 -0.9428
  212MOL    H9042712   6.322   1.881   4.024  0.2205 -0.4434 -0.1560
  212MOL    H9142713   6.457   1.949   3.923 -0.7511  0.4969  1.3021
  212MOL    C9242714   6.389   1.746   3.874 -0.1136  0.3591 -0.1444
  212MOL    C9342715   6.502   1.686   3.951  0.0054 -0.4100  0.1780
  212MOL    C9442716   6.617   1.633   3.897  0.0217 -0.6282  1.1322
  212MOL    C9542717   6.728   1.559   3.972  0.0143  0.8068 -0.0900
  212MOL    H9642718   6.300   1.685   3.884 -2.7143  3.9464 -0.6953
  212MOL    H9742719   6.421   1.754   3.770  0.0776 -0.7490 -0.1816
  212MOL    H9842720   6.494   1.690   4.059 -0.4446 -1.4812  0.1892
  212MOL    H9942721   6.622   1.627   3.789 -0.7505 -1.0147  1.1126
  212MOL   H10042722   6.740   1.616   4.064  1.6920 -0.2499  0.3702
  212MOL   H10142723   6.820   1.569   3.915 -0.5244  2.4919 -0.6788
  212MOL   C10242724   6.685   1.413   3.996  0.3169  0.0630 -0.6160
  212MOL   C10342725   6.800   1.345   4.072  0.6301  0.6076 -0.2821
  212MOL   C10442726   6.827   1.215   4.063  0.2197 -0.1454  0.4199
  212MOL   C10542727   6.927   1.139   4.144 -0.0809  0.1624 -0.4496
  212MOL   H10642728   6.592   1.408   4.053  0.9505 -1.7543  0.3073
  212MOL   H10742729   6.667   1.352   3.908  0.5898 -2.6666  1.1232
  212MOL   H10842730   6.847   1.413   4.141 -1.6074  0.8214  1.0952
  212MOL   H10942731   6.762   1.165   3.992 -1.6293 -1.0604  2.7151
  212MOL   H11042732   6.963   1.203   4.225 -3.8284  0.0407  1.4360
  212MOL   H11142733   7.007   1.125   4.072  0.4313  2.7020 -0.3966
  212MOL   C11242734   6.878   1.006   4.214 -0.4767  0.5963  0.0583
  212MOL   C11342735   7.007   0.943   4.264  0.3467 -0.6520 -0.1894
  212MOL   C11442736   7.072   0.833   4.219 -0.3497 -0.2508  0.7037
  212MOL   C11542737   7.202   0.788   4.281 -0.3011 -0.0463 -0.1026
  212MOL   H11642738   6.810   1.031   4.296  0.6651 -1.1078  1.5918
  212MOL   H11742739   6.827   0.946   4.139 -2.7269  1.2935  0.9925
  212MOL   H11842740   7.052   0.990   4.350  0.0306 -1.1765  0.2628
  212MOL   H11942741   7.039   0.781   4.130  0.0527  0.7750 -0.0607
  212MOL   H12042742   7.174   0.693   4.326  0.6151 -0.2216  0.1000
  212MOL   H12142743   7.249   0.849   4.358 -0.1455  0.0481 -0.2739
  212MOL   C12242744   7.305   0.764   4.170  0.3035  0.3803 -1.2221
  212MOL   C12342745   7.340   0.889   4.099 -0.3169  0.1025  0.5966
  212MOL   C12442746   7.302   0.923   3.974 -0.7800 -0.1137 -0.2615
  212MOL   C12542747   7.346   1.055   3.902  0.3861  0.7151 -0.5954
  212MOL   H12642748   7.399   0.716   4.199 -0.2331  1.3558  2.3257
  212MOL   H12742749   7.266   0.690   4.101 -1.0995  0.6433 -0.7183
  212MOL   H12842750   7.411   0.952   4.150 -0.1484 -0.0951  0.6058
  212MOL   H12942751   7.227   0.867   3.921 -0.3764 -0.5949 -0.3254
  212MOL   H13042752   7.397   1.014   3.815  0.6721 -1.9168  0.7817
  212MOL   H13142753   7.417   1.105   3.968  3.7151 -2.2163 -1.8111
  212MOL   C13242754   7.230   1.155   3.880  0.2397 -0.8631  0.2429
  212MOL   C13342755   7.107   1.109   3.788 -0.4339 -0.2622  0.3961
  212MOL   C13442756   7.029   1.191   3.708 -0.2033 -1.1154 -0.0599
  212MOL   C13542757   6.926   1.139   3.614 -0.4357  0.2994 -1.0215
  212MOL   H13642758   7.195   1.190   3.977 -1.8523  0.2881 -0.8890
  212MOL   H13742759   7.270   1.248   3.839  1.2203 -1.3600  0.0594
  212MOL   H13842760   7.083   1.004   3.781  1.3896 -0.6061 -0.9554
  212MOL   H13942761   7.054   1.296   3.702 -2.1571 -0.7297 -2.1189
  212MOL   H14042762   6.892   1.040   3.644 -1.8438  0.8519 -0.7498
  212MOL   H14142763   6.963   1.131   3.512  0.1593  0.7076 -0.8413
  212MOL   C14242764   6.805   1.237   3.620  0.1778  0.1907 -0.7595
  212MOL   C14342765   6.813   1.358   3.532  0.1620 -0.6800  0.5456
  212MOL   C14442766   6.820   1.481   3.579  0.0404  0.5745 -0.7386
  212MOL   C14542767   6.844   1.605   3.499 -0.4060  0.2211  0.3401
  212MOL   H14642768   6.711   1.182   3.616 -0.5186  1.1830  1.3360
  212MOL   H14742769   6.783   1.264   3.723 -2.7408 -0.9669 -1.0285
  212MOL   H14842770   6.816   1.328   3.428  1.5936  1.9251 -0.2068
  212MOL   H14942771   6.822   1.491   3.687 -0.4000  0.1952 -0.6940
  212MOL   H15042772   6.758   1.672   3.506  0.5421  1.6476 -1.2102
  212MOL   H15142773   6.848   1.579   3.393 -0.6316  0.5197  0.2586
  212MOL   C15242774   6.979   1.672   3.544  0.3953 -0.2015  0.3340
  212MOL   C15342775   7.025   1.785   3.451  0.2773  0.2650 -0.3078
  212MOL   C15442776   7.068   1.905   3.489 -0.2349  0.3134 -0.3156
  212MOL   C15542777   7.096   2.013   3.391 -0.4748  0.1111  0.2119
  212MOL   H15642778   6.974   1.705   3.648  3.2741 -2.9599  1.3999
  212MOL   H15742779   7.062   1.602   3.538 -0.1172 -0.6887 -1.3472
  212MOL   H15842780   7.036   1.771   3.345  0.5952  0.4990 -0.3073
  212MOL   H15942781   7.062   1.932   3.593 -2.9234  2.2632 -0.9058
  212MOL   H16042782   7.042   1.993   3.298  0.4089 -0.3962 -0.1988
  212MOL   H16142783   7.199   2.012   3.357 -0.7131  1.1541 -0.5726
  212MOL   C16242784   7.040   2.151   3.432  0.5091 -0.4418 -0.5440
  212MOL   C16342785   7.044   2.239   3.316  0.2551 -0.6009  0.8535
  212MOL   C16442786   6.941   2.316   3.271  0.0497  0.0764  0.2720
  212MOL   C16542787   6.951   2.396   3.148  0.2484  0.5382 -0.5099
  212MOL   H16642788   6.939   2.140   3.473  0.2621  1.2953 -0.6646
  212MOL   H16742789   7.104   2.186   3.513  0.7001 -1.5080 -0.2215
  212MOL   H16842790   7.141   2.249   3.270  0.0312 -0.2245  0.4527
  212MOL   H16942791   6.851   2.303   3.328 -0.4683  2.3396 -0.0076
  212MOL   H17042792   7.035   2.363   3.087 -0.5450 -1.6646 -0.4529
  212MOL   H17142793   6.992   2.490   3.185  2.0953 -0.6515  0.5562
  212MOL   C17242794   6.823   2.414   3.067 -0.5126 -0.0352  0.6092
  212MOL   C17342795   6.830   2.517   2.955 -0.5116 -0.3007 -0.2643
  212MOL   C17442796   6.728   2.557   2.881  0.6949  0.0570 -0.9713
  212MOL   C17542797   6.739   2.671   2.784  0.0819 -0.2817  0.0446
  212MOL   H17642798   6.779   2.323   3.025  0.5314 -0.2789  0.0336
  212MOL   H17742799   6.751   2.453   3.139  0.0324  0.4822  0.8744
  212MOL   H17842800   6.923   2.570   2.944 -0.4588 -0.8490 -2.8814
  212MOL   H17942801   6.633   2.510   2.905 -1.1911  4.4778  0.8571
  212MOL   H18042802   6.828   2.663   2.722 -0.0121  3.7141 -0.7786
  212MOL   H18142803   6.736   2.767   2.835  1.6471  0.2478 -0.8384
  212MOL   C18242804   6.615   2.665   2.687 -0.5456 -0.8189 -0.2781
  212MOL   C18342805   6.655   2.740   2.552 -0.0160  0.6520 -0.2231
  212MOL   C18442806   6.583   2.843   2.505 -0.3785 -0.2035 -0.0696
  212MOL   C18542807   6.609   2.912   2.380  0.0967  0.8316  0.1140
  212MOL   H18642808   6.582   2.563   2.667 -1.2684 -0.5445 -0.5053
  212MOL   H18742809   6.535   2.712   2.745 -0.8742 -3.4367  1.4993
  212MOL   H18842810   6.728   2.689   2.491 -1.3095 -0.8085 -0.5815
  212MOL   H18942811   6.501   2.888   2.559  0.4026  3.3402 -1.7309
  212MOL   H19042812   6.714   2.884   2.365 -0.1049 -0.1602  0.5262
  212MOL   H19142813   6.608   3.019   2.399  2.3726  1.1225 -1.1679
  212MOL   C19242814   6.525   2.860   2.261 -0.5924  0.0005  0.1417
  212MOL   C19342815   6.596   2.845   2.131 -0.0600 -0.7425 -0.4005
  212MOL   C19442816   6.587   2.748   2.038  0.8980 -0.4710 -0.0130
  212MOL   C19542817   6.667   2.741   1.912 -0.7669  0.7614 -0.4155
  212MOL   H19642818   6.486   2.763   2.291 -0.3682  0.4064  1.7662
  212MOL   H19742819   6.435   2.920   2.245 -0.8082 -0.2395  0.4579
  212MOL   H19842820   6.661   2.926   2.105 -0.5966 -0.3724 -0.6041
  212MOL   H19942821   6.533   2.656   2.052  0.0758 -0.0623 -0.4504
  212MOL   H20042822   6.609   2.692   1.833  0.4179  0.0304 -0.8473
  212MOL   H20142823   6.740   2.665   1.939 -1.6539  0.2326  0.5362
  212MOL   H20242824   6.712   2.836   1.886  1.6681  0.1596  1.4514
  213MOL     C142825   5.292   0.723   3.639 -0.6705  0.3108  0.1464
  213MOL     C242826   5.395   0.795   3.723  0.5137  0.3050 -0.4954
  213MOL     C342827   5.452   0.743   3.832 -0.6687 -0.8565  0.0433
  213MOL     C442828   5.556   0.815   3.906  0.6369  0.2315 -0.1540
  213MOL     H542829   5.342   0.684   3.550 -1.0627 -1.1774  0.5554
  213MOL     H642830   5.202   0.778   3.610 -1.4808 -0.5423  1.0016
  213MOL     H742831   5.422   0.894   3.690  0.1448  0.2622 -0.9255
  213MOL     H842832   5.422   0.646   3.869 -0.5469 -0.7052  0.5373
  213MOL     H942833   5.556   0.923   3.895 -1.7874  0.4372  1.4953
  213MOL    H1042834   5.646   0.769   3.865 -0.5649 -2.1343 -0.2202
  213MOL    H1142835   5.261   0.630   3.686 -1.6342  0.0248 -1.0140
  213MOL    C1242836   5.547   0.785   4.059 -0.7341 -0.2709 -0.1806
  213MOL    C1342837   5.655   0.849   4.138  0.2165 -0.2931  0.6018
  213MOL    C1442838   5.742   0.780   4.211 -0.9713  0.5546  0.0181
  213MOL    C1542839   5.853   0.837   4.293  0.7634  0.3259  0.3638
  213MOL    H1642840   5.447   0.817   4.092 -2.0732  0.3328 -4.4928
  213MOL    H1742841   5.553   0.680   4.086  0.1050 -0.9171 -2.7270
  213MOL    H1842842   5.667   0.956   4.125 -5.2173  0.3254 -0.4374
  213MOL    H1942843   5.729   0.676   4.237  0.6033  0.5600  0.8957
  213MOL    H2042844   5.820   0.838   4.397 -1.1060  2.8820 -0.2271
  213MOL    H2142845   5.881   0.939   4.270 -0.8848  0.3530 -1.6044
  213MOL    C2242846   5.979   0.753   4.287 -0.6924  0.2324 -0.0304
  213MOL    C2342847   6.048   0.737   4.152  0.2902  1.0165  0.2105
  213MOL    C2442848   6.178   0.761   4.132  0.0603 -0.0326  0.8265
  213MOL    C2542849   6.257   0.718   4.010 -0.4088  0.0764  0.5766
  213MOL    H2642850   6.055   0.790   4.355 -1.4200  0.1897  0.8192
  213MOL    H2742851   5.958   0.648   4.308 -3.2024  0.6610 -0.2389
  213MOL    H2842852   5.989   0.698   4.071  1.6489 -1.4928  0.3900
  213MOL    H2942853   6.235   0.809   4.211  0.7552  1.9558 -0.8472
  213MOL    H3042854   6.310   0.625   4.029 -1.8934 -1.4355 -2.3656
  213MOL    H3142855   6.343   0.782   3.987 -1.7374  2.7183  2.7194
  213MOL    C3242856   6.168   0.711   3.883  0.1363 -0.2452  0.6420
  213MOL    C3342857   6.247   0.695   3.751  0.4856  0.1226  0.2791
  213MOL    C3442858   6.258   0.578   3.686  1.4655 -0.1369  0.3327
  213MOL    C3542859   6.335   0.555   3.557  0.0839 -0.2906  0.0545
  213MOL    H3642860   6.090   0.635   3.889 -0.5408  0.4684  0.9403
  213MOL    H3742861   6.116   0.806   3.873  0.0555 -0.4318 -0.8000
  213MOL    H3842862   6.281   0.786   3.704 -0.5483  1.8276  2.6910
  213MOL    H3942863   6.218   0.489   3.732  0.4376 -0.2022 -0.6753
  213MOL    H4042864   6.406   0.473   3.569  0.8827  0.2608 -0.8855
  213MOL    H4142865   6.393   0.639   3.519 -0.5633 -1.3175 -3.3700
  213MOL    C4242866   6.244   0.507   3.450  0.5187  0.5278 -0.0009
  213MOL    C4342867   6.334   0.450   3.340  0.6305  0.8793 -0.2662
  213MOL    C4442868   6.317   0.339   3.265  0.2011  0.1732 -0.1932
  213MOL    C4542869   6.419   0.297   3.167 -0.1229  0.4638 -0.0809
  213MOL    H4642870   6.180   0.428   3.489 -2.1493  2.3060 -0.6409
  213MOL    H4742871   6.185   0.592   3.416  2.1929  1.3045 -1.0431
  213MOL    H4842872   6.424   0.508   3.330  1.1424 -0.0802 -1.3927
  213MOL    H4942873   6.233   0.272   3.272 -0.2748  0.8920  1.2556
  213MOL    H5042874   6.518   0.321   3.206  0.9366 -1.2476 -1.6278
  213MOL    H5142875   6.401   0.340   3.069 -1.3297  0.7209  0.2519
  213MOL    C5242876   6.444   0.141   3.152  0.3530 -0.7871 -0.0498
  213MOL    C5342877   6.350   0.073   3.048 -0.1412 -0.3391  0.6616
  213MOL    C5442878   6.252   7.968   3.090  0.0069 -0.5122  0.6371
  213MOL    C5542879   6.158   7.907   2.988  0.6080  0.0370 -0.0546
  213MOL    H5642880   6.545   0.121   3.117  0.9716  0.3094  1.0879
  213MOL    H5742881   6.427   0.085   3.244 -0.7423 -0.4394 -0.0359
  213MOL    H5842882   6.370   0.103   2.945  1.5603  1.0299  1.3517
  213MOL    H5942883   6.222   7.963   3.194 -1.1877 -0.9809  0.2778
  213MOL    H6042884   6.173   7.799   2.988  1.3571  0.1138  3.0608
  213MOL    H6142885   6.180   7.930   2.883 -0.5156 -1.1755 -0.5809
  213MOL    C6242886   6.015   7.947   3.034 -0.5934 -0.1704 -0.2188
  213MOL    C6342887   5.907   7.864   2.973  0.5738  0.2944 -0.3905
  213MOL    C6442888   5.788   7.912   2.925  0.5844  0.0491 -0.2019
  213MOL    C6542889   5.684   7.831   2.853 -0.4791 -0.1650  0.3255
  213MOL    H6642890   6.007   7.924   3.140 -2.4163  0.2806 -0.2411
  213MOL    H6742891   6.002   0.078   3.022 -1.4464 -0.1992  0.4055
  213MOL    H6842892   5.917   7.757   2.959  1.0304  0.3648 -0.6091
  213MOL    H6942893   5.767   0.041   2.933 -0.1169 -0.1586  0.7759
  213MOL    H7042894   5.599   7.818   2.920 -0.6894 -0.3342  0.0235
  213MOL    H7142895   5.733   7.737   2.825  2.2059  0.5749  2.3317
  213MOL    C7242896   5.644   7.910   2.726  0.0292 -0.7697 -0.0709
  213MOL    C7342897   5.535   7.831   2.642  0.0748 -0.3041  0.1507
  213MOL    C7442898   5.407   7.872   2.629 -0.1250 -0.0879  0.5604
  213MOL    C7542899   5.299   7.804   2.551 -0.3241 -0.1557  0.5961
  213MOL    H7642900   5.599   0.028   2.754 -0.6894 -1.6155  1.7898
  213MOL    H7742901   5.736   7.931   2.672  0.2713 -1.5928  0.0123
  213MOL    H7842902   5.572   7.735   2.608  0.6796 -0.7692  2.0584
  213MOL    H7942903   5.374   7.957   2.686 -0.5268 -0.7247  1.2883
  213MOL    H8042904   5.326   7.698   2.552  0.9875  0.1691  0.8457
  213MOL    H8142905   5.311   7.838   2.449 -0.9399 -1.4069  0.0944
  213MOL    C8242906   5.158   7.810   2.605  0.7972  0.2484 -0.2275
  213MOL    C8342907   5.153   7.787   2.751  0.4402  0.8265 -0.5377
  213MOL    C8442908   5.116   7.668   2.798  0.0922 -0.5894  0.3838
  213MOL    C8542909   5.095   7.636   2.945 -0.5716 -0.0382  0.3964
  213MOL    H8642910   5.129   7.914   2.589  0.4976  0.3453  0.9313
  213MOL    H8742911   5.094   7.740   2.552 -1.4991 -0.2958  3.1003
  213MOL    H8842912   5.175   7.871   2.814 -0.2275  3.0163 -3.1292
  213MOL    H8942913   5.088   7.594   2.724 -1.8027 -0.2758  0.7750
  213MOL    H9042914   4.991   7.606   2.959 -1.1767  1.3757 -0.9157
  213MOL    H9142915   5.108   7.730   2.998 -1.3345  0.7679 -0.8211
  213MOL    C9242916   5.180   7.517   3.001 -0.4363  0.1878 -0.2436
  213MOL    C9342917   5.332   7.555   2.988 -0.1099 -0.0267  0.8972
  213MOL    C9442918   5.424   7.558   3.091  0.6249  0.0377  0.0124
  213MOL    C9542919   5.568   7.578   3.080 -0.1246 -0.0983 -0.3833
  213MOL    H9642920   5.161   7.490   3.105  0.7446  1.1133  0.2261
  213MOL    H9742921   5.163   7.430   2.938  0.7220 -0.0324 -0.2787
  213MOL    H9842922   5.368   7.574   2.888 -1.2748  1.6205  0.7598
  213MOL    H9942923   5.391   7.543   3.193  1.7679  1.4563  0.6178
  213MOL   H10042924   5.605   7.656   3.147  1.2491 -1.0651  0.0053
  213MOL   H10142925   5.600   7.608   2.980  0.3564  0.0527 -0.1887
  213MOL   C10242926   5.641   7.456   3.121 -0.1587 -0.0700 -0.1768
  213MOL   C10342927   5.790   7.487   3.127 -0.2497  0.2846 -0.1681
  213MOL   C10442928   5.884   7.424   3.054 -0.2852 -0.1407 -0.0169
  213MOL   C10542929   6.035   7.444   3.047  0.0489 -0.1626  0.9572
  213MOL   H10642930   5.608   7.436   3.223  1.2240 -0.3282  0.2307
  213MOL   H10742931   5.609   7.374   3.057 -1.5315  1.3643 -1.3729
  213MOL   H10842932   5.823   7.577   3.176 -3.0230  0.0897  2.2109
  213MOL   H10942933   5.863   7.335   2.998  4.0639 -2.0933  1.1891
  213MOL   H11042934   6.076   7.344   3.060  0.1936 -0.2658 -0.2253
  213MOL   H11142935   6.076   7.515   3.119  0.9507 -1.3117  1.5957
  213MOL   C11242936   6.086   7.490   2.911 -0.3790  0.2685  0.0841
  213MOL   C11342937   6.046   7.393   2.802 -0.4470  0.2047  0.1892
  213MOL   C11442938   6.105   7.278   2.786 -0.5123 -0.4351 -0.7249
  213MOL   C11542939   6.081   7.187   2.667  0.1012 -0.0743 -0.1759
  213MOL   H11642940   6.053   7.592   2.891 -0.7379 -0.1106 -1.3098
  213MOL   H11742941   6.194   7.508   2.911 -0.1186 -1.1619  1.9090
  213MOL   H11842942   5.959   7.425   2.748 -1.3266 -1.4264  0.6135
  213MOL   H11942943   6.194   7.256   2.842  0.0091 -1.1117 -1.7942
  213MOL   H12042944   5.991   7.225   2.619  1.8875  0.0381 -3.5841
  213MOL   H12142945   6.055   7.091   2.712 -0.9153 -0.4178 -1.4520
  213MOL   C12242946   6.182   7.198   2.555 -0.3635 -0.3249 -0.3132
  213MOL   C12342947   6.162   7.099   2.440 -0.0141  0.0074 -0.1698
  213MOL   C12442948   6.257   7.031   2.377 -0.6360 -0.6212  0.0417
  213MOL   C12542949   6.230   6.925   2.285  0.8941  0.1293 -0.0342
  213MOL   H12642950   6.170   7.302   2.523 -0.3041 -0.3541 -0.4319
  213MOL   H12742951   6.285   7.189   2.590  0.3109  2.2658 -1.4821
  213MOL   H12842952   6.059   7.077   2.413 -0.1958  1.3332 -0.5902
  213MOL   H12942953   6.358   7.041   2.415  0.0158 -2.4090 -1.1516
  213MOL   H13042954   6.264   6.952   2.185 -0.7480  1.3973 -0.2624
  213MOL   H13142955   6.127   6.895   2.265  0.6393 -0.1902  1.6301
  213MOL   C13242956   6.305   6.802   2.339 -0.0997  0.0944  0.2147
  213MOL   C13342957   6.259   6.753   2.470 -0.0121  0.7355 -0.0898
  213MOL   C13442958   6.342   6.723   2.571  0.7219 -0.0625  0.2214
  213MOL   C13542959   6.291   6.724   2.713 -0.4504 -0.5566 -0.2183
  213MOL   H13642960   6.296   6.714   2.274 -0.2889 -1.6484  2.5266
  213MOL   H13742961   6.411   6.828   2.349 -0.1125 -0.0273  0.6698
  213MOL   H13842962   6.154   6.742   2.493 -0.0308 -1.4228 -1.0822
  213MOL   H13942963   6.449   6.729   2.563  0.7321 -1.0036 -0.4301
  213MOL   H14042964   6.357   6.656   2.767  0.5910 -0.3824 -1.2456
  213MOL   H14142965   6.188   6.692   2.726 -0.2475 -1.8989 -1.8023
  213MOL   C14242966   6.321   6.859   2.776  0.3962  0.4537 -0.4507
  213MOL   C14342967   6.291   6.870   2.923 -0.5755  0.4052 -0.8505
  213MOL   C14442968   6.167   6.913   2.965  0.1182  0.8025  0.4128
  213MOL   C14542969   6.130   6.921   3.115  0.4961 -0.1267  0.7529
  213MOL   H14642970   6.419   6.905   2.762  0.8369 -0.5187 -0.6189
  213MOL   H14742971   6.250   6.922   2.723  0.0829 -0.9963 -1.7724
  213MOL   H14842972   6.376   6.850   2.986 -0.7291  2.2990 -0.0061
  213MOL   H14942973   6.089   6.931   2.892  0.3340  0.3922  0.0771
  213MOL   H15042974   6.059   7.000   3.135 -0.6168 -1.2028  1.1034
  213MOL   H15142975   6.211   6.962   3.174 -0.4998  0.6272  1.6017
  213MOL   C15242976   6.093   6.791   3.174 -0.0961 -0.3580 -0.5739
  213MOL   C15342977   6.201   6.677   3.159 -0.1248  0.5587 -0.1460
  213MOL   C15442978   6.229   6.587   3.256  0.8129  0.4990 -0.0078
  213MOL   C15542979   6.310   6.463   3.236 -0.2876 -0.0449  0.3506
  213MOL   H15642980   6.060   6.800   3.278 -0.2848  0.6279 -0.7173
  213MOL   H15742981   6.006   6.752   3.122  1.2577 -1.4548 -2.0780
  213MOL   H15842982   6.248   6.657   3.064 -0.7773  0.3519 -0.4338
  213MOL   H15942983   6.173   6.595   3.348  1.3801 -1.0491  0.4886
  213MOL   H16042984   6.406   6.479   3.284  0.8975 -0.5760 -1.7566
  213MOL   H16142985   6.334   6.439   3.132  0.2103 -1.6769  0.8391
  213MOL   C16242986   6.232   6.344   3.301 -0.0114 -0.1740  0.3790
  213MOL   C16342987   6.321   6.218   3.308  0.1392  0.2908  0.1024
  213MOL   C16442988   6.281   6.095   3.268 -0.5277  0.3417 -0.0080
  213MOL   C16542989   6.356   5.963   3.274  0.0026  0.1560  0.2128
  213MOL   H16642990   6.208   6.358   3.407 -1.1181 -2.6997  0.5102
  213MOL   H16742991   6.128   6.330   3.270 -0.6862  1.2630  1.8648
  213MOL   H16842992   6.419   6.228   3.353  0.1229  1.4656 -0.1206
  213MOL   H16942993   6.192   6.085   3.209  0.0358  0.6372 -0.9116
  213MOL   H17042994   6.438   5.981   3.343  0.5042 -2.6361  0.4069
  213MOL   H17142995   6.385   5.935   3.172 -0.0515 -1.3784  0.6087
  213MOL   C17242996   6.278   5.843   3.343 -0.0150  0.0028 -0.3204
  213MOL   C17342997   6.195   5.765   3.243  0.4142 -0.4907 -0.5789
  213MOL   C17442998   6.067   5.730   3.270  0.0270 -0.4108 -0.2531
  213MOL   C17542999   5.982   5.647   3.178  0.1091 -0.0557 -0.1034
  213MOL   H17643000   6.347   5.776   3.393 -1.9360 -2.1679 -0.5257
  213MOL   H17743001   6.213   5.877   3.424  1.5233 -0.0414  0.9681
  213MOL   H17843002   6.260   5.734   3.162  1.0443  0.1530 -0.3271
  213MOL   H17943003   6.022   5.761   3.363 -2.1802 -1.3256 -0.9822
  213MOL   H18043004   5.888   5.695   3.150 -1.3356 -2.1507  1.0719
  213MOL   H18143005   5.949   5.559   3.232  0.8692  0.2469  0.8703
  213MOL   C18243006   6.053   5.608   3.046  0.1049  0.1561  0.7756
  213MOL   C18343007   5.969   5.512   2.967 -0.5854  0.9436  0.0933
  213MOL   C18443008   6.012   5.410   2.894 -0.6913 -0.1823  0.0818
  213MOL   C18543009   5.929   5.308   2.820  0.2048  0.0173 -0.4984
  213MOL   H18643010   6.063   5.695   2.981  1.1127 -1.1978 -0.9279
  213MOL   H18743011   6.152   5.563   3.051  0.1293 -0.3092 -2.3643
  213MOL   H18843012   5.862   5.520   2.975 -1.0956 -1.9257 -2.7365
  213MOL   H18943013   6.119   5.397   2.881 -0.6204  0.2278  0.2572
  213MOL   H19043014   5.828   5.322   2.856  1.2070  0.2504  2.3518
  213MOL   H19143015   5.966   5.210   2.851 -2.1295 -0.9158 -0.5583
  213MOL   C19243016   5.966   5.324   2.671  0.2209 -0.4600 -0.3215
  213MOL   C19343017   5.857   5.401   2.605  0.1987  0.4011  0.1242
  213MOL   C19443018   5.871   5.514   2.531 -0.4523  0.0836 -0.3707
  213MOL   C19543019   5.759   5.584   2.457 -0.2933  0.3677 -0.0155
  213MOL   H19643020   6.057   5.381   2.651  2.2575 -3.4058  0.1891
  213MOL   H19743021   5.983   5.227   2.625 -1.3768  0.1557 -2.2729
  213MOL   H19843022   5.759   5.357   2.616  0.1409  0.6243  0.5108
  213MOL   H19943023   5.967   5.563   2.524 -0.3654  0.1450  1.2555
  213MOL   H20043024   5.738   5.686   2.490  1.0507  1.0115 -1.0934
  213MOL   H20143025   5.665   5.530   2.458 -0.9217  1.1319 -4.7071
  213MOL   H20243026   5.786   5.600   2.352 -0.6706  1.3876  0.0328
  214MOL     C143027   7.420   1.646   0.766 -0.6151 -1.0048 -0.3513
  214MOL     C243028   7.444   1.793   0.773  0.1482  0.3054 -0.8125
  214MOL     C343029   7.361   1.890   0.730 -0.9455  0.6865  0.8601
  214MOL     C443030   7.387   2.038   0.746 -0.2426 -0.0050 -0.1140
  214MOL     H543031   7.428   1.616   0.871 -0.2990  1.0921  0.2504
  214MOL     H643032   7.506   1.602   0.715  0.6464 -0.0924  0.9401
  214MOL     H743033   7.543   1.811   0.812  0.0641  1.5412 -1.1609
  214MOL     H843034   7.271   1.865   0.675 -0.9800  0.8729  0.8315
  214MOL     H943035   7.477   2.042   0.806  0.3761 -0.6230 -0.9876
  214MOL    H1043036   7.296   2.069   0.797  1.5131  1.6641  2.0369
  214MOL    H1143037   7.325   1.627   0.717  0.5977  0.1068 -3.2890
  214MOL    C1243038   7.410   2.107   0.610 -0.1597  0.3014 -0.0614
  214MOL    C1343039   7.273   2.106   0.541  0.2691  0.0915  0.4375
  214MOL    C1443040   7.246   2.049   0.426 -0.4658  0.3072 -0.1079
  214MOL    C1543041   7.106   2.055   0.362 -0.2326 -0.0977  0.0795
  214MOL    H1643042   7.441   2.211   0.623  0.3108 -0.0328  1.5675
  214MOL    H1743043   7.496   2.056   0.567  1.6422  0.5235  3.1242
  214MOL    H1843044   7.198   2.164   0.594  0.8527  0.5471  0.7796
  214MOL    H1943045   7.325   1.994   0.377 -1.5865 -1.8653  0.4534
  214MOL    H2043046   7.114   2.100   0.263  1.1914  1.2311  0.7648
  214MOL    H2143047   7.036   2.108   0.427  3.5021  1.5080  2.9767
  214MOL    C2243048   7.048   1.913   0.345 -0.2054  0.4943 -0.7094
  214MOL    C2343049   6.899   1.917   0.326 -0.7521  1.0869  0.3829
  214MOL    C2443050   6.843   1.870   0.214 -0.2960  0.1225 -0.0735
  214MOL    C2543051   6.698   1.863   0.178  0.0028 -0.2673 -0.0462
  214MOL    H2643052   7.099   1.865   0.260  1.3304  0.4406  0.2214
  214MOL    H2743053   7.067   1.852   0.434 -0.9963 -1.1821 -1.6580
  214MOL    H2843054   6.844   1.953   0.412 -1.1282  1.6495 -0.0900
  214MOL    H2943055   6.908   1.825   0.140 -0.4235  0.8904 -0.6541
  214MOL    H3043056   6.641   1.903   0.262 -0.7278 -1.5056  0.0653
  214MOL    H3143057   6.678   1.759   0.153  1.4445 -0.3455 -0.9176
  214MOL    C3243058   6.659   1.956   0.063 -0.0380 -0.4599 -0.3532
  214MOL    C3343059   6.513   1.934   0.020 -0.2145  0.1094 -0.1657
  214MOL    C3443060   6.493   1.870   7.877 -0.1066 -0.2519 -0.2146
  214MOL    C3543061   6.355   1.850   7.813 -0.0410  0.0910  0.0645
  214MOL    H3643062   6.668   2.058   0.101 -1.2391 -0.6882  0.5835
  214MOL    H3743063   6.729   1.956   7.957  0.5331  0.0025  0.1260
  214MOL    H3843064   6.437   1.956   0.094 -0.3788 -0.2533 -0.2260
  214MOL    H3943065   6.582   1.839   7.825  2.0013  1.7488  2.0709
  214MOL    H4043066   6.345   1.924   7.734 -1.7703  0.6728  0.8059
  214MOL    H4143067   6.277   1.877   7.883 -2.5275  1.1625 -3.0156
  214MOL    C4243068   6.329   1.716   7.749 -0.2007 -0.3618  0.0319
  214MOL    C4343069   6.391   1.684   7.610  1.4318 -0.5691 -0.0978
  214MOL    C4443070   6.317   1.639   7.503 -0.4947 -0.3338 -0.1598
  214MOL    C4543071   6.368   1.595   7.370  0.9270  0.1632 -0.5614
  214MOL    H4643072   6.349   1.642   7.825 -0.5196 -2.1957 -1.6330
  214MOL    H4743073   6.222   1.713   7.732 -0.4770 -1.0427  1.8663
  214MOL    H4843074   6.498   1.686   7.597  1.2448 -1.7331 -2.2657
  214MOL    H4943075   6.212   1.628   7.526  0.2146 -0.4130  3.3476
  214MOL    H5043076   6.475   1.616   7.378  0.8819 -0.1460  0.9882
  214MOL    H5143077   6.327   1.649   7.285 -2.1110 -0.8197  0.2157
  214MOL    C5243078   6.342   1.438   7.363 -0.0180 -0.2021  1.2532
  214MOL    C5343079   6.385   1.367   7.234 -0.1854  0.1726 -0.0603
  214MOL    C5443080   6.480   1.276   7.217  0.0389  0.6243  1.2289
  214MOL    C5543081   6.510   1.225   7.076  0.5603  0.6000 -0.6806
  214MOL    H5643082   6.394   1.389   7.445  2.0220 -0.8886 -0.3849
  214MOL    H5743083   6.235   1.419   7.374 -0.2099 -1.1239 -1.5948
  214MOL    H5843084   6.330   1.402   7.148  1.1430 -0.4583 -1.2020
  214MOL    H5943085   6.534   1.226   7.297  1.6434 -0.9591 -0.7875
  214MOL    H6043086   6.458   1.287   7.004 -2.0954 -0.7779 -0.0058
  214MOL    H6143087   6.469   1.124   7.066  0.3433  0.8806 -2.8546
  214MOL    C6243088   6.661   1.202   7.045  0.1071  0.5895  0.4151
  214MOL    C6343089   6.677   1.158   6.902 -0.4389 -0.0189  0.8266
  214MOL    C6443090   6.759   1.058   6.861  0.4998 -1.2501 -0.6298
  214MOL    C6543091   6.783   1.023   6.719 -0.0052  0.4535 -0.6631
  214MOL    H6643092   6.717   1.293   7.064  0.3761  0.6425 -0.5661
  214MOL    H6743093   6.711   1.126   7.106  1.2412 -0.8472 -2.1840
  214MOL    H6843094   6.614   1.213   6.834 -0.6613  1.1261  1.9507
  214MOL    H6943095   6.823   1.017   6.938  0.3981 -0.0894  0.0799
  214MOL    H7043096   6.890   1.036   6.707  0.1190 -0.4304 -0.5820
  214MOL    H7143097   6.730   1.086   6.648 -2.9135 -0.4289  0.6346
  214MOL    C7243098   6.735   0.880   6.698  0.3732  0.1776  0.0871
  214MOL    C7343099   6.745   0.848   6.553 -0.2100 -0.3871 -0.6239
  214MOL    C7443100   6.638   0.805   6.478  0.5060 -0.1752  0.6813
  214MOL    C7543101   6.629   0.756   6.330 -0.6175  0.7220 -0.8090
  214MOL    H7643102   6.800   0.810   6.750  0.4720 -0.2968 -0.6753
  214MOL    H7743103   6.634   0.867   6.736 -0.1130  3.2763  0.0444
  214MOL    H7843104   6.845   0.843   6.513  0.8158  2.7829  1.4282
  214MOL    H7943105   6.541   0.800   6.525  0.3368  1.2573  0.4993
  214MOL    H8043106   6.632   0.647   6.334 -0.1477  0.7755  1.2342
  214MOL    H8143107   6.720   0.775   6.274  0.2289 -0.9411 -0.0556
  214MOL    C8243108   6.504   0.816   6.257  0.2095 -0.1390  0.1656
  214MOL    C8343109   6.522   0.804   6.106 -0.3836  0.6148 -0.6368
  214MOL    C8443110   6.424   0.764   6.018  0.6293  0.7864  0.1570
  214MOL    C8543111   6.433   0.752   5.870  0.4832  0.5196  0.8475
  214MOL    H8643112   6.411   0.768   6.290 -0.5087  0.0601 -1.5524
  214MOL    H8743113   6.497   0.920   6.287  2.6143 -0.5303  2.2877
  214MOL    H8843114   6.617   0.837   6.068 -0.6811  1.6008 -0.5401
  214MOL    H8943115   6.330   0.739   6.064  1.6357 -1.7073  0.9806
  214MOL    H9043116   6.429   0.646   5.844 -2.0422  0.2788  2.0402
  214MOL    H9143117   6.527   0.795   5.836  1.0701 -0.0671  1.7017
  214MOL    C9243118   6.321   0.838   5.792  0.0659  0.3673  0.0221
  214MOL    C9343119   6.345   0.811   5.638  0.2991  0.0058 -0.1995
  214MOL    C9443120   6.361   0.906   5.544  0.5054  0.4463  0.4192
  214MOL    C9543121   6.365   0.868   5.397  0.3571 -0.1689  0.2471
  214MOL    H9643122   6.221   0.812   5.826  0.1379  1.4476  1.0952
  214MOL    H9743123   6.346   0.942   5.810  0.0624 -0.0873  2.7682
  214MOL    H9843124   6.337   0.707   5.613  1.6124  0.2987 -1.9575
  214MOL    H9943125   6.354   1.011   5.569  1.0652  1.4344 -3.3372
  214MOL   H10043126   6.272   0.886   5.343  0.0861 -1.1714  0.3703
  214MOL   H10143127   6.380   0.761   5.383  1.8724  0.3152 -2.0842
  214MOL   C10243128   6.478   0.938   5.322  0.2008 -0.9768  0.4929
  214MOL   C10343129   6.486   0.905   5.177  0.9296 -0.2688  0.3900
  214MOL   C10443130   6.589   0.844   5.119  0.0235  0.4978  0.0676
  214MOL   C10543131   6.588   0.835   4.969 -0.4158 -0.2179 -0.6721
  214MOL   H10643132   6.476   1.044   5.347  0.7792 -0.7162 -0.5379
  214MOL   H10743133   6.571   0.901   5.366  1.4219 -1.2051 -2.1635
  214MOL   H10843134   6.411   0.945   5.111  0.0797 -0.9176  0.9644
  214MOL   H10943135   6.677   0.823   5.177 -1.2572 -1.4128  1.3664
  214MOL   H11043136   6.663   0.905   4.932  1.0534 -1.4102 -0.0428
  214MOL   H11143137   6.491   0.863   4.929  0.3036 -0.5268 -2.7345
  214MOL   C11243138   6.612   0.698   4.918 -0.6969 -0.2940 -0.0871
  214MOL   C11343139   6.649   0.702   4.774  0.0499 -0.2357  0.2792
  214MOL   C11443140   6.767   0.657   4.733 -0.2962  0.4948  0.3446
  214MOL   C11543141   6.794   0.629   4.585  0.4947 -0.1722 -0.0044
  214MOL   H11643142   6.693   0.651   4.973 -0.5447 -2.7470 -2.3258
  214MOL   H11743143   6.518   0.645   4.936  0.2815 -1.0107  3.2572
  214MOL   H11843144   6.576   0.737   4.702  0.6958 -1.7914 -1.1652
  214MOL   H11943145   6.841   0.618   4.802 -1.2477 -1.3732  0.3400
  214MOL   H12043146   6.697   0.654   4.540 -0.5357  2.0171  3.2717
  214MOL   H12143147   6.812   0.522   4.580  0.1602 -0.2499  0.5136
  214MOL   C12243148   6.901   0.716   4.528 -0.4637  0.0754 -0.4339
  214MOL   C12343149   7.025   0.698   4.613 -0.3472  0.3499  0.4795
  214MOL   C12443150   7.116   0.609   4.570  0.5150  0.0094  0.7361
  214MOL   C12543151   7.237   0.564   4.650  0.7858 -0.3898 -0.6944
  214MOL   H12643152   6.914   0.684   4.425 -0.7671  0.6241 -0.6481
  214MOL   H12743153   6.879   0.822   4.520 -0.3776  0.0383 -1.2524
  214MOL   H12843154   7.021   0.743   4.711 -1.8114  0.0872  0.5648
  214MOL   H12943155   7.108   0.561   4.474  1.2949 -2.1982  1.7261
  214MOL   H13043156   7.259   0.638   4.727 -0.8207 -0.7807  0.1648
  214MOL   H13143157   7.329   0.560   4.591  0.0309 -2.4751 -1.7844
  214MOL   C13243158   7.212   0.424   4.698  0.2356 -0.5242 -0.2335
  214MOL   C13343159   7.332   0.380   4.780 -0.2646 -0.3839 -1.0448
  214MOL   C13443160   7.339   0.359   4.909 -0.0354  0.9016 -0.4502
  214MOL   C13543161   7.465   0.322   4.993  0.3619  0.7032 -0.4639
  214MOL   H13643162   7.122   0.425   4.760  1.3663 -0.1212  1.4356
  214MOL   H13743163   7.180   0.348   4.628  0.4357 -0.7680 -0.0592
  214MOL   H13843164   7.417   0.398   4.716  1.6801  0.3922  1.6915
  214MOL   H13943165   7.246   0.361   4.964  0.4748  0.2912  0.4582
  214MOL   H14043166   7.499   0.403   5.058  0.2754 -0.5085  1.1294
  214MOL   H14143167   7.553   0.295   4.935  0.7664 -1.9522  1.3154
  214MOL   C14243168   7.429   0.199   5.074  0.1479 -0.0974  0.3062
  214MOL   C14343169   7.541   0.133   5.147  0.3849 -0.5033 -0.5420
  214MOL   C14443170   7.553   0.149   5.283 -0.2577  0.0207  0.6502
  214MOL   C14543171   7.641   0.063   5.371 -0.4368 -0.1141  0.4818
  214MOL   H14643172   7.351   0.220   5.146  0.1579 -0.7387  0.5049
  214MOL   H14743173   7.392   0.115   5.016 -0.6617  1.5297 -1.6296
  214MOL   H14843174   7.612   0.072   5.094  1.7716 -0.4162  1.1585
  214MOL   H14943175   7.488   0.211   5.343  0.7476  1.4639  0.2641
  214MOL   H15043176   7.708   0.012   5.302 -1.1844  0.7351 -0.9078
  214MOL   H15143177   7.585   7.958   5.416  0.0908 -0.9205 -0.3084
  214MOL   C15243178   7.724   0.128   5.476 -0.1599  0.1998  0.6062
  214MOL   C15343179   7.813   0.030   5.547 -0.5870 -0.6184 -0.6389
  214MOL   C15443180   7.945   0.030   5.550 -0.0483  0.3626 -0.7811
  214MOL   C15543181   0.051   7.898   5.618  0.8790  0.1381  0.1535
  214MOL   H15643182   7.788   0.205   5.433  0.6119 -0.3241  0.7992
  214MOL   H15743183   7.655   0.178   5.545  0.1324  1.2107  0.1738
  214MOL   H15843184   7.763   7.935   5.611 -0.8363  1.0106  1.0356
  214MOL   H15943185   0.021   0.100   5.486 -2.0755  1.2526 -1.5287
  214MOL   H16043186   7.962   7.838   5.681 -3.0257  2.2412 -1.7214
  214MOL   H16143187   0.120   7.936   5.694  1.9873 -1.9234  0.1978
  214MOL   C16243188   0.132   7.808   5.521  0.3631  0.1646  0.0743
  214MOL   C16343189   0.047   7.702   5.448 -0.3009  0.0731 -0.1227
  214MOL   C16443190   0.004   7.714   5.327  0.5985  0.1535  0.0991
  214MOL   C16543191   7.893   7.605   5.268 -0.3794  0.8202  0.0280
  214MOL   H16643192   0.191   7.876   5.460 -1.5738  1.2025 -0.6959
  214MOL   H16743193   0.210   7.761   5.580 -0.3102  1.5168  2.0863
  214MOL   H16843194   0.030   7.613   5.507 -0.4850  0.7065  0.7920
  214MOL   H16943195   0.023   7.794   5.257  0.7132  0.5601  0.5922
  214MOL   H17043196   7.850   7.542   5.346  0.4178 -0.3441 -0.4589
  214MOL   H17143197   7.953   7.536   5.209 -1.7136 -1.5817  1.4024
  214MOL   C17243198   7.787   7.677   5.176 -0.4163 -0.0053 -0.0516
  214MOL   C17343199   7.674   7.584   5.143 -0.1580  0.4575  0.3556
  214MOL   C17443200   7.655   7.458   5.174  0.3024  0.1150  0.3437
  214MOL   C17543201   7.530   7.378   5.144 -0.3396  0.0792  0.0589
  214MOL   H17643202   7.763   7.776   5.214 -3.3342 -1.1462  1.2356
  214MOL   H17743203   7.834   7.697   5.080 -1.4821  2.4733 -0.0894
  214MOL   H17843204   7.594   7.622   5.081 -0.6877  2.3697  2.1723
  214MOL   H17943205   7.723   7.400   5.234  0.5119 -1.1737 -1.1060
  214MOL   H18043206   7.488   7.420   5.052 -0.3140  1.5148  0.6864
  214MOL   H18143207   7.458   7.378   5.226  0.1177  0.7136  0.4662
  214MOL   C18243208   7.560   7.235   5.121 -0.5695  0.3036  0.5101
  214MOL   C18343209   7.441   7.157   5.071 -0.8233 -0.1331  1.2339
  214MOL   C18443210   7.403   7.035   5.104  0.2038 -0.0216 -0.7070
  214MOL   C18543211   7.284   6.963   5.038 -0.4933  0.1564 -0.2396
  214MOL   H18643212   7.631   7.227   5.039 -1.7196 -0.9428 -0.3962
  214MOL   H18743213   7.603   7.181   5.205  0.9229 -1.3498 -1.2764
  214MOL   H18843214   7.392   7.198   4.984  1.9070  0.6766  0.0079
  214MOL   H18943215   7.426   6.992   5.201 -2.6399 -0.2566 -0.0909
  214MOL   H19043216   7.320   6.861   5.031 -2.3638 -0.5154 -0.0789
  214MOL   H19143217   7.271   7.000   4.937  1.0260 -1.2697 -0.9816
  214MOL   C19243218   7.157   6.979   5.107 -0.2812  0.1998  0.3484
  214MOL   C19343219   7.045   6.890   5.062  0.6344 -0.4898 -0.8626
  214MOL   C19443220   6.919   6.941   5.036  0.3298  0.4675 -0.0603
  214MOL   C19543221   6.803   6.850   4.996  0.2653  0.2302  0.0326
  214MOL   H19643222   7.170   6.935   5.206 -1.1964  0.0514  0.4057
  214MOL   H19743223   7.120   7.079   5.133 -0.7351  0.0372  0.3313
  214MOL   H19843224   7.061   6.783   5.051 -0.0053 -0.6181 -0.5511
  214MOL   H19943225   6.891   7.044   5.054 -0.2475  0.5752 -1.5094
  214MOL   H20043226   6.738   6.827   5.080  0.9303  0.4438  0.6157
  214MOL   H20143227   6.844   6.763   4.945  0.8945  0.4627  0.1315
  214MOL   H20243228   6.735   6.890   4.920  0.5519 -1.4943 -1.1381
  215MOL     C143229   0.503   3.714   0.479 -0.1478 -0.4232  0.5565
  215MOL     C243230   0.620   3.804   0.445  0.0530 -0.8648  0.2830
  215MOL     C343231   0.699   3.797   0.340  0.7087  0.5883 -0.4292
  215MOL     C443232   0.814   3.900   0.324  0.6191  0.2348 -0.0865
  215MOL     H543233   0.501   3.624   0.419 -1.3507  0.7985 -1.2737
  215MOL     H643234   0.415   3.779   0.476 -0.3128 -0.6938 -0.7277
  215MOL     H743235   0.646   3.886   0.510  0.6952  0.0038 -1.0497
  215MOL     H843236   0.680   3.713   0.275  1.4660 -0.2487  0.4098
  215MOL     H943237   0.902   3.858   0.374 -0.5014 -1.5002  0.4804
  215MOL    H1043238   0.785   3.999   0.358  1.2777  1.5657 -3.2231
  215MOL    H1143239   0.495   3.684   0.584 -0.0834 -0.4735  0.5468
  215MOL    C1243240   0.841   3.935   0.178 -0.3384  0.3018  0.1393
  215MOL    C1343241   0.940   3.835   0.118  0.4915 -0.4131  0.2510
  215MOL    C1443242   1.042   3.853   0.042  0.5521  0.3358  0.5770
  215MOL    C1543243   1.126   3.733   0.000  0.3119  0.3013  0.6292
  215MOL    H1643244   0.759   3.917   0.108  0.9060 -0.7068 -1.0929
  215MOL    H1743245   0.881   4.035   0.164  1.4050 -0.4830 -0.6047
  215MOL    H1843246   0.919   3.734   0.149 -0.7620  0.0860  1.0913
  215MOL    H1943247   1.085   3.945   0.007 -4.0812  2.2046 -0.4090
  215MOL    H2043248   1.096   3.637   0.042  1.0530 -0.5838 -0.8389
  215MOL    H2143249   1.232   3.751   0.020  0.1243  0.7383  1.2520
  215MOL    C2243250   1.141   3.711   7.827 -0.1737 -0.1478 -0.0826
  215MOL    C2343251   1.253   3.619   7.794  0.2981 -0.0906 -0.6735
  215MOL    C2443252   1.236   3.491   7.768 -0.1611  0.6135  0.2053
  215MOL    C2543253   1.342   3.388   7.746 -0.3322 -0.6203  0.0670
  215MOL    H2643254   1.045   3.676   7.789 -0.5446  0.7425  0.0305
  215MOL    H2743255   1.163   3.805   7.778 -1.3836 -0.7134 -1.7650
  215MOL    H2843256   1.351   3.663   7.808 -0.0165  0.3503  0.1493
  215MOL    H2943257   1.132   3.462   7.769  0.3085 -1.2559 -1.8158
  215MOL    H3043258   1.444   3.419   7.768 -0.9458 -0.6029  3.0228
  215MOL    H3143259   1.334   3.362   7.640  0.5555  0.1931 -0.2056
  215MOL    C3243260   1.324   3.256   7.825  0.0113  0.2594 -0.0900
  215MOL    C3343261   1.390   3.137   7.759  0.2105  0.6821 -0.0722
  215MOL    C3443262   1.325   3.047   7.687  0.4414  0.7076  0.3198
  215MOL    C3543263   1.379   2.915   7.628 -0.3407 -0.1498 -0.1086
  215MOL    H3643264   1.375   3.268   7.921  0.1696  0.3410 -0.1846
  215MOL    H3743265   1.221   3.231   7.850  0.0975 -0.4029 -0.3851
  215MOL    H3843266   1.492   3.112   7.783  0.1515  0.8569  0.3807
  215MOL    H3943267   1.220   3.057   7.663  0.3673 -0.4407  0.1229
  215MOL    H4043268   1.321   2.833   7.672  0.3855 -1.2468 -1.1517
  215MOL    H4143269   1.484   2.899   7.652 -0.5866  0.1656  1.2242
  215MOL    C4243270   1.370   2.912   7.472  0.0431 -0.2282 -0.8300
  215MOL    C4343271   1.408   2.776   7.412 -0.3115  0.2969  0.3792
  215MOL    C4443272   1.535   2.735   7.394 -0.0298  0.0599 -0.6050
  215MOL    C4543273   1.562   2.603   7.344  0.5439  0.4084  0.0641
  215MOL    H4643274   1.277   2.949   7.429 -1.6490  1.9629  4.2620
  215MOL    H4743275   1.438   2.985   7.428 -0.4198  1.1629  0.6896
  215MOL    H4843276   1.333   2.699   7.410 -0.4079  0.3955  0.2155
  215MOL    H4943277   1.619   2.801   7.411 -0.1433 -0.2004  1.0860
  215MOL    H5043278   1.476   2.537   7.352  0.0876  1.1063  1.1071
  215MOL    H5143279   1.645   2.562   7.401 -0.6069  0.9681  2.2164
  215MOL    C5243280   1.599   2.612   7.192  0.2387  0.0036  0.3755
  215MOL    C5343281   1.625   2.493   7.112 -0.4630 -0.5216 -0.2275
  215MOL    C5443282   1.741   2.471   7.048  0.3373 -0.5124 -0.4856
  215MOL    C5543283   1.772   2.344   6.970  0.1878  0.3461 -0.3253
  215MOL    H5643284   1.517   2.666   7.144 -0.0874 -1.3180 -0.5908
  215MOL    H5743285   1.676   2.688   7.188  1.0325 -0.8291 -0.4684
  215MOL    H5843286   1.542   2.423   7.105 -0.6749 -0.4166  1.1178
  215MOL    H5943287   1.826   2.537   7.058  0.1877 -0.5374  1.1367
  215MOL    H6043288   1.678   2.307   6.930 -0.2636 -1.2751  2.1234
  215MOL    H6143289   1.803   2.272   7.045 -2.1680  0.4183  0.7438
  215MOL    C6243290   1.876   2.380   6.863  0.1371 -0.0033  0.3044
  215MOL    C6343291   1.912   2.266   6.772  0.0306  0.0121  0.0531
  215MOL    C6443292   2.043   2.245   6.741 -0.1661  0.3351  0.9272
  215MOL    C6543293   2.093   2.133   6.649  0.1186  0.2730 -0.3364
  215MOL    H6643294   1.840   2.459   6.797  2.1620  1.6354  1.1022
  215MOL    H6743295   1.970   2.422   6.899  0.8215 -1.4064  0.2006
  215MOL    H6843296   1.828   2.218   6.723  0.4415  1.5145 -2.2137
  215MOL    H6943297   2.120   2.313   6.775  0.6405 -0.4753  0.7254
  215MOL    H7043298   2.132   2.176   6.557  1.4717  1.3101  0.6964
  215MOL    H7143299   2.011   2.074   6.608  0.2872 -1.1563  1.3095
  215MOL    C7243300   2.191   2.046   6.717 -0.4839  0.4366 -0.0818
  215MOL    C7343301   2.131   1.964   6.832 -0.4318 -0.3084  0.5747
  215MOL    C7443302   2.183   1.962   6.954 -0.2329 -0.0945 -0.3322
  215MOL    C7543303   2.141   1.880   7.062  0.4322 -0.1046  0.2669
  215MOL    H7643304   2.225   1.976   6.642  0.9944 -0.2996  1.2371
  215MOL    H7743305   2.282   2.098   6.745  0.0803 -1.6193  2.1120
  215MOL    H7843306   2.050   1.893   6.820 -0.8372 -0.2468  2.8025
  215MOL    H7943307   2.274   2.018   6.972 -0.8679  0.7183  0.3344
  215MOL    H8043308   2.054   1.824   7.027  0.7958 -0.1168 -0.6363
  215MOL    H8143309   2.104   1.942   7.143 -1.1774 -1.0814  0.3048
  215MOL    C8243310   2.244   1.791   7.123  0.3068  0.0850 -0.0077
  215MOL    C8343311   2.293   1.691   7.016 -0.5472  0.0405 -0.3163
  215MOL    C8443312   2.283   1.557   7.028 -0.6263 -0.4041 -0.6595
  215MOL    C8543313   2.340   1.457   6.924  0.0932 -0.4984  0.6426
  215MOL    H8643314   2.325   1.852   7.163 -0.2451 -0.0469  1.3347
  215MOL    H8743315   2.196   1.743   7.208 -0.7315 -0.1805 -0.7213
  215MOL    H8843316   2.329   1.730   6.922 -1.0123 -0.4346 -0.6930
  215MOL    H8943317   2.240   1.511   7.115  1.5860 -0.1096  0.6226
  215MOL    H9043318   2.373   1.518   6.840  2.9880 -0.9670  1.3816
  215MOL    H9143319   2.263   1.389   6.888  1.7244 -1.8619 -0.2885
  215MOL    C9243320   2.467   1.392   6.974  0.4334  0.4021  0.0850
  215MOL    C9343321   2.525   1.298   6.865  0.1501  0.0404 -0.1344
  215MOL    C9443322   2.573   1.176   6.889 -0.6049 -0.0551 -0.0942
  215MOL    C9543323   2.628   1.093   6.779  0.0331 -0.6073  0.0070
  215MOL    H9643324   2.540   1.473   6.969  2.7272 -1.4602  1.8961
  215MOL    H9743325   2.460   1.338   7.068  0.5105  0.2621  0.0110
  215MOL    H9843326   2.517   1.332   6.763 -1.6358  1.8049  0.5420
  215MOL    H9943327   2.584   1.132   6.987 -0.7528  1.0735  0.4329
  215MOL   H10043328   2.728   1.071   6.816 -0.6105 -1.6943  1.1577
  215MOL   H10143329   2.646   1.141   6.683 -2.3854 -1.1208 -0.7585
  215MOL   C10243330   2.536   0.972   6.770 -0.2340 -0.2828  0.7804
  215MOL   C10343331   2.561   0.868   6.659 -0.0385 -0.3096 -0.6878
  215MOL   C10443332   2.655   0.872   6.572  0.4483  0.7276 -0.1344
  215MOL   C10543333   2.659   0.770   6.460 -0.3220 -0.0822  0.4032
  215MOL   H10643334   2.558   0.914   6.860  0.2906 -0.7138  0.3790
  215MOL   H10743335   2.429   0.989   6.760 -0.2394 -1.2954 -1.2677
  215MOL   H10843336   2.491   0.786   6.662  0.4747 -0.7385 -0.3677
  215MOL   H10943337   2.725   0.954   6.560  0.4869  0.4780 -1.7944
  215MOL   H11043338   2.617   0.806   6.366 -2.8323 -1.1774  1.0476
  215MOL   H11143339   2.588   0.689   6.478  0.9732 -1.3549 -0.1365
  215MOL   C11243340   2.800   0.709   6.457 -0.1760 -0.1124 -0.2645
  215MOL   C11343341   2.808   0.585   6.382  0.3991 -0.1107  0.8109
  215MOL   C11443342   2.873   0.472   6.413  0.8269 -0.2150 -0.2076
  215MOL   C11543343   2.862   0.343   6.339 -0.6221 -0.0704  0.5494
  215MOL   H11643344   2.869   0.773   6.402  1.1554 -0.5124  0.8887
  215MOL   H11743345   2.842   0.687   6.555 -3.5990 -3.3178  0.6084
  215MOL   H11843346   2.749   0.587   6.291 -1.6496 -2.7588  1.9952
  215MOL   H11943347   2.928   0.470   6.506 -1.7285  1.3268  1.3911
  215MOL   H12043348   2.809   0.351   6.245  1.2519  0.3612 -0.5063
  215MOL   H12143349   2.816   0.264   6.399  1.6321 -1.8892 -0.0314
  215MOL   C12243350   3.006   0.296   6.316  0.2084  1.1763 -0.2064
  215MOL   C12343351   3.017   0.211   6.188 -0.2840  0.5335 -0.2908
  215MOL   C12443352   3.072   0.092   6.171  0.7630  0.4997  0.0659
  215MOL   C12543353   3.074   0.017   6.039  0.4150 -0.3102  0.0403
  215MOL   H12643354   3.079   0.378   6.314  4.8864 -2.7658 -0.5464
  215MOL   H12743355   3.052   0.239   6.397  0.1359  0.1009 -0.9119
  215MOL   H12843356   2.968   0.246   6.098  1.5176 -0.3477 -1.6727
  215MOL   H12943357   3.112   0.032   6.251  0.1881 -0.3906 -0.3084
  215MOL   H13043358   3.112   0.077   5.957 -0.9911  0.1369 -0.3024
  215MOL   H13143359   2.970   7.960   6.029  0.4152  0.1231 -1.5038
  215MOL   C13243360   3.180   7.883   6.038 -0.0844 -0.5364 -0.5277
  215MOL   C13343361   3.133   7.771   5.952 -0.0323 -1.1098 -0.2109
  215MOL   C13443362   3.189   7.744   5.829 -0.4103 -0.4594  0.2134
  215MOL   C13543363   3.146   7.635   5.737 -0.1606  0.4365  0.9596
  215MOL   H13643364   3.280   7.924   6.024 -0.1085 -0.3186 -0.0713
  215MOL   H13743365   3.192   7.837   6.137 -2.8261 -0.0325  0.0790
  215MOL   H13843366   3.036   7.730   5.978 -0.5778  0.9183  1.0389
  215MOL   H13943367   3.277   7.803   5.806  0.0316 -1.1906  0.0138
  215MOL   H14043368   3.219   7.554   5.730  0.2821  1.0918 -2.7297
  215MOL   H14143369   3.146   7.687   5.642 -0.7197  0.3533  0.9115
  215MOL   C14243370   3.002   7.576   5.758  0.0650  0.0219  0.3803
  215MOL   C14343371   2.950   7.484   5.649 -0.1230 -0.2726  0.6756
  215MOL   C14443372   2.842   7.489   5.567 -0.3592 -0.1854  0.0217
  215MOL   C14543373   2.798   7.378   5.469 -1.1194 -0.4254  0.3178
  215MOL   H14643374   2.998   7.521   5.851 -0.7829 -1.6590 -0.6262
  215MOL   H14743375   2.928   7.656   5.760  1.6003  1.5260 -1.1970
  215MOL   H14843376   3.014   7.400   5.627 -0.4633  0.0329 -1.6172
  215MOL   H14943377   2.775   7.573   5.577 -1.9556 -1.7118  2.6375
  215MOL   H15043378   2.695   7.353   5.495 -1.7058  0.5625 -1.0255
  215MOL   H15143379   2.855   7.290   5.497 -0.6050  0.0672  0.8522
  215MOL   C15243380   2.823   7.410   5.326 -0.3733  0.3734  0.2451
  215MOL   C15343381   2.729   7.511   5.265 -0.3877 -0.2647 -0.6229
  215MOL   C15443382   2.669   7.497   5.145  0.5610  0.8911 -0.1689
  215MOL   C15543383   2.569   7.595   5.085 -0.3517  0.0549  0.0893
  215MOL   H15643384   2.920   7.459   5.311  0.5373 -1.3311  0.3941
  215MOL   H15743385   2.810   7.318   5.269  1.2013  1.9912 -2.9013
  215MOL   H15843386   2.730   7.604   5.319  2.7055 -1.0191  0.7414
  215MOL   H15943387   2.677   7.401   5.096 -1.7199  1.0239 -0.8798
  215MOL   H16043388   2.621   7.623   4.994 -0.4609 -0.1751 -0.0445
  215MOL   H16143389   2.568   7.683   5.149  0.7235 -1.8852  2.9292
  215MOL   C16243390   2.435   7.525   5.068 -0.6302  0.6507  0.9985
  215MOL   C16343391   2.336   7.629   5.019  0.1544  0.2660 -0.0162
  215MOL   C16443392   2.302   7.642   4.889 -0.4905  0.1601 -0.4305
  215MOL   C16543393   2.200   7.745   4.834  0.0617  0.1073 -0.5736
  215MOL   H16643394   2.443   7.436   5.006  0.8316  0.7017  1.0898
  215MOL   H16743395   2.402   7.471   5.156  1.4621  0.9999  2.0364
  215MOL   H16843396   2.295   7.685   5.101 -3.1035 -1.2954 -0.5001
  215MOL   H16943397   2.356   7.576   4.822  1.1918  0.4048  0.6782
  215MOL   H17043398   2.261   7.835   4.829  1.2318 -0.5038  1.8073
  215MOL   H17143399   2.119   7.764   4.905  0.1026  1.5694 -0.9145
  215MOL   C17243400   2.155   7.732   4.682 -0.3597  0.4340 -0.3838
  215MOL   C17343401   2.069   7.849   4.638 -0.2409 -0.0805  0.8719
  215MOL   C17443402   1.964   7.843   4.548  0.4600  0.3097 -0.2114
  215MOL   C17543403   1.866   7.954   4.514 -0.0746  0.1717  0.4966
  215MOL   H17643404   2.249   7.727   4.627 -1.2814  2.4402 -2.1780
  215MOL   H17743405   2.102   7.639   4.660  1.9120 -0.2584 -3.2636
  215MOL   H17843406   2.096   7.944   4.681 -1.0113 -0.3944  2.0877
  215MOL   H17943407   1.937   7.742   4.521 -1.5163  0.8265 -0.2117
  215MOL   H18043408   1.773   7.924   4.563  1.3744 -0.5711  2.8665
  215MOL   H18143409   1.853   7.956   4.406  1.4949 -0.1450  0.3046
  215MOL   C18243410   1.916   0.120   4.556 -0.5094 -0.3404  0.3230
  215MOL   C18343411   1.823   0.229   4.524 -0.0649 -0.2171  0.6225
  215MOL   C18443412   1.852   0.338   4.448  0.3165  0.1266  0.0925
  215MOL   C18543413   1.743   0.447   4.433 -0.7375  0.1389 -0.3710
  215MOL   H18643414   1.939   0.129   4.662  0.3399 -0.0692  0.1179
  215MOL   H18743415   2.007   0.137   4.498 -1.2643 -1.3003 -1.1652
  215MOL   H18843416   1.722   0.225   4.560 -0.1733 -1.7317  0.1804
  215MOL   H18943417   1.948   0.344   4.398  1.7062 -4.8661  1.8198
  215MOL   H19043418   1.650   0.403   4.469 -0.7560  0.4978  0.0248
  215MOL   H19143419   1.721   0.454   4.327 -1.5615  0.7683 -0.1626
  215MOL   C19243420   1.770   0.585   4.504 -0.8907  0.0058  0.1182
  215MOL   C19343421   1.845   0.684   4.421  0.8345  0.0411  0.4134
  215MOL   C19443422   1.820   0.813   4.388  0.0592  0.7961 -0.8355
  215MOL   C19543423   1.902   0.890   4.294 -0.0924  0.5923  0.2797
  215MOL   H19643424   1.673   0.623   4.537  0.0519  0.5809  2.3133
  215MOL   H19743425   1.822   0.565   4.598  2.0369  0.5345 -1.3383
  215MOL   H19843426   1.938   0.654   4.375  1.5352  0.1016  1.7623
  215MOL   H19943427   1.724   0.855   4.414 -0.3429 -0.9102  0.4808
  215MOL   H20043428   1.896   0.999   4.302  0.2702  0.4547  2.5165
  215MOL   H20143429   1.854   0.867   4.199  0.1923 -0.1116  0.3049
  215MOL   H20243430   2.009   0.872   4.303 -0.1120  0.9500  1.2412
  216MOL     C143431   1.613   4.977   3.776  0.1781  0.0898 -0.4867
  216MOL     C243432   1.523   5.029   3.886  0.8212  0.8320  0.7441
  216MOL     C343433   1.559   5.121   3.979  0.5218 -0.1021  0.3711
  216MOL     C443434   1.471   5.188   4.086  0.8028 -0.3742 -0.0188
  216MOL     H543435   1.564   4.977   3.678 -0.3725 -1.8634 -0.2281
  216MOL     H643436   1.618   4.873   3.805 -1.9382  0.6730  2.1321
  216MOL     H743437   1.418   5.008   3.868  1.0072  1.1583 -0.7517
  216MOL     H843438   1.662   5.151   3.972  0.5523 -0.3029 -0.0531
  216MOL     H943439   1.441   5.286   4.047  1.2374 -0.8208 -1.5013
  216MOL    H1043440   1.531   5.206   4.175 -1.3392 -0.2304  1.4340
  216MOL    H1143441   1.713   5.021   3.780  0.6499 -0.9460 -0.8546
  216MOL    C1243442   1.350   5.103   4.117  0.1802 -0.1219  0.4290
  216MOL    C1343443   1.271   5.166   4.226 -0.1386 -0.8749 -0.1392
  216MOL    C1443444   1.268   5.126   4.357  0.4226 -0.1367  0.1205
  216MOL    C1543445   1.185   5.213   4.457 -0.2888  0.2369  0.1992
  216MOL    H1643446   1.292   5.075   4.029  2.0891 -1.5404 -0.3912
  216MOL    H1743447   1.386   5.012   4.164  0.0374 -0.1853  0.4164
  216MOL    H1843448   1.223   5.259   4.199 -0.5764 -0.7836  0.8974
  216MOL    H1943449   1.323   5.040   4.392  0.7337 -0.5113 -1.2588
  216MOL    H2043450   1.120   5.149   4.517  2.7548 -0.7724  2.5604
  216MOL    H2143451   1.116   5.277   4.402 -2.0298 -1.5745  0.2210
  216MOL    C2243452   1.263   5.309   4.554 -0.6208  0.0377 -0.4991
  216MOL    C2343453   1.388   5.250   4.629  0.4389  0.9846 -0.0027
  216MOL    C2443454   1.425   5.269   4.758  0.2901 -0.9561  0.1457
  216MOL    C2543455   1.546   5.218   4.830 -0.4737  0.2869  0.8025
  216MOL    H2643456   1.302   5.397   4.503  0.1224 -1.0417 -1.8207
  216MOL    H2743457   1.193   5.358   4.622  0.5946 -0.4553  1.1169
  216MOL    H2843458   1.462   5.200   4.568 -0.8838 -0.9540 -0.0512
  216MOL    H2943459   1.352   5.319   4.820  1.8017  1.0149  0.3644
  216MOL    H3043460   1.627   5.193   4.762 -0.0170  1.4980  0.8876
  216MOL    H3143461   1.523   5.136   4.897 -2.7089 -1.1454 -1.6336
  216MOL    C3243462   1.625   5.327   4.907 -0.3938  0.3855 -0.5135
  216MOL    C3343463   1.685   5.422   4.808 -0.3424  0.8984  0.6336
  216MOL    C3443464   1.690   5.557   4.826 -0.2941 -0.0284 -0.1219
  216MOL    C3543465   1.754   5.662   4.730 -0.1756  0.0864 -1.2847
  216MOL    H3643466   1.556   5.379   4.973 -3.2238 -2.4678 -1.0945
  216MOL    H3743467   1.691   5.272   4.974  0.2644  0.0194 -1.4498
  216MOL    H3843468   1.753   5.397   4.727 -1.2787  0.7633 -0.1182
  216MOL    H3943469   1.639   5.604   4.909 -1.7026 -1.1474 -0.3367
  216MOL    H4043470   1.737   5.610   4.635  0.4846  0.3875 -1.5681
  216MOL    H4143471   1.860   5.677   4.750 -0.8134  2.0525  0.7518
  216MOL    C4243472   1.676   5.794   4.730 -0.2296 -0.1316  0.0320
  216MOL    C4343473   1.738   5.899   4.648 -0.2926  0.9323 -0.0824
  216MOL    C4443474   1.684   5.952   4.532 -0.8578 -0.0638  0.5729
  216MOL    C4543475   1.753   6.055   4.440  0.5149 -0.1029 -0.4041
  216MOL    H4643476   1.573   5.774   4.699 -0.2133 -0.6667  0.3110
  216MOL    H4743477   1.662   5.842   4.827 -0.4990 -0.5150  0.1864
  216MOL    H4843478   1.829   5.940   4.689 -0.2519  2.0601 -1.2641
  216MOL    H4943479   1.582   5.926   4.510 -0.2426 -0.9393 -1.3367
  216MOL    H5043480   1.859   6.061   4.463  0.0071  0.4582  1.9356
  216MOL    H5143481   1.715   6.156   4.450 -0.8085 -0.5975 -0.3091
  216MOL    C5243482   1.739   6.011   4.298 -0.8101 -0.9956  0.4650
  216MOL    C5343483   1.621   6.073   4.223 -0.0797  0.7534 -0.5124
  216MOL    C5443484   1.500   6.110   4.277  0.1974  0.2691  0.0627
  216MOL    C5543485   1.389   6.165   4.196 -0.1805 -0.1331  0.0547
  216MOL    H5643486   1.829   6.048   4.249 -0.9747  0.2513  1.0862
  216MOL    H5743487   1.737   5.902   4.291 -1.3604 -0.9616  0.0540
  216MOL    H5843488   1.622   6.078   4.115 -2.9276  1.3578 -0.5563
  216MOL    H5943489   1.487   6.099   4.383 -2.2291 -2.7696 -0.4594
  216MOL    H6043490   1.298   6.111   4.223 -0.6893  0.8642  0.3582
  216MOL    H6143491   1.402   6.134   4.092 -2.2739  0.8250 -0.5201
  216MOL    C6243492   1.364   6.315   4.194  0.1235 -0.4984 -0.0734
  216MOL    C6343493   1.254   6.350   4.091  0.4126  0.2130 -0.4543
  216MOL    C6443494   1.138   6.410   4.121  0.3556  0.6200  0.1338
  216MOL    C6543495   1.034   6.465   4.026  0.5366 -0.2246  0.1785
  216MOL    H6643496   1.338   6.354   4.293  1.2234  0.3622 -0.1163
  216MOL    H6743497   1.453   6.374   4.173 -1.8619  1.4302 -3.4338
  216MOL    H6843498   1.273   6.316   3.990  2.7527  0.8264 -0.2457
  216MOL    H6943499   1.136   6.432   4.227  0.2977 -3.3749  1.0510
  216MOL    H7043500   1.055   6.428   3.926  1.3340 -0.1312  0.3087
  216MOL    H7143501   1.052   6.572   4.012 -1.8665  0.3467  1.2573
  216MOL    C7243502   0.888   6.446   4.079  0.8538  0.1149 -0.5250
  216MOL    C7343503   0.782   6.491   3.981 -0.2901 -0.5778  0.3193
  216MOL    C7443504   0.688   6.584   3.997  0.1071 -0.3278 -0.1503
  216MOL    C7543505   0.590   6.624   3.896  0.1402 -0.0219  0.0864
  216MOL    H7643506   0.872   6.343   4.110 -0.3456  1.0954  2.2211
  216MOL    H7743507   0.865   6.502   4.169  0.9087 -0.5225 -0.1050
  216MOL    H7843508   0.799   6.446   3.884 -0.0470 -0.3167  0.2401
  216MOL    H7943509   0.683   6.633   4.093 -0.0061  0.1193 -0.3826
  216MOL    H8043510   0.619   6.610   3.791 -3.8027  2.1750 -1.4016
  216MOL    H8143511   0.562   6.728   3.916  1.1335 -0.0476  1.7241
  216MOL    C8243512   0.469   6.538   3.908  0.3595  1.0730  0.1441
  216MOL    C8343513   0.371   6.562   3.798  0.2905 -0.3887  0.2045
  216MOL    C8443514   0.291   6.472   3.737 -0.3961 -0.1784  0.1884
  216MOL    C8543515   0.182   6.483   3.636  0.4569 -0.0806 -0.0903
  216MOL    H8643516   0.504   6.435   3.916  1.5155  1.2082 -2.5659
  216MOL    H8743517   0.415   6.558   4.001 -1.1911 -1.2230 -0.2071
  216MOL    H8843518   0.360   6.668   3.778  1.4146 -0.0742  1.1302
  216MOL    H8943519   0.312   6.372   3.772 -1.4037 -1.0272 -1.5630
  216MOL    H9043520   0.123   6.394   3.656  0.4642 -0.3289 -1.1658
  216MOL    H9143521   0.231   6.461   3.541  1.4666  1.1773  0.1116
  216MOL    C9243522   0.096   6.611   3.638 -0.9587  0.1470  0.3804
  216MOL    C9343523   7.965   6.617   3.524 -0.1211  0.3118 -0.6763
  216MOL    C9443524   7.850   6.684   3.530  0.3673  0.6039 -0.6917
  216MOL    C9543525   7.745   6.685   3.416  0.4385 -0.3608 -0.1001
  216MOL    H9643526   0.045   6.611   3.734 -1.8217  0.7524 -0.0695
  216MOL    H9743527   0.151   6.706   3.632  0.8471 -0.7579  2.0679
  216MOL    H9843528   0.023   6.561   3.438  0.9786  0.9060 -0.6267
  216MOL    H9943529   7.827   6.747   3.614  2.0356  0.7201 -0.3173
  216MOL   H10043530   7.666   6.616   3.445 -0.8966  1.9721  2.0290
  216MOL   H10143531   7.794   6.643   3.328  2.2599 -0.2120  0.8158
  216MOL   C10243532   7.708   6.826   3.375  0.9437 -0.4193  0.6728
  216MOL   C10343533   7.599   6.827   3.266 -0.3418 -0.4313 -0.2958
  216MOL   C10443534   7.619   6.857   3.138  0.5616  0.7851  0.3357
  216MOL   C10543535   7.506   6.842   3.036  0.2469 -0.7038 -0.0906
  216MOL   H10643536   7.672   6.881   3.462 -0.6701 -1.0676  0.4185
  216MOL   H10743537   7.795   6.881   3.339 -1.1497  2.5469 -0.0233
  216MOL   H10843538   7.497   6.817   3.300 -0.7838  3.7057 -0.1467
  216MOL   H10943539   7.721   6.877   3.110  0.8844 -0.7662  0.3909
  216MOL   H11043540   7.535   6.897   2.947  1.3307 -1.8069 -0.4225
  216MOL   H11143541   7.418   6.881   3.088  2.0396  0.3370  2.2816
  216MOL   C11243542   7.485   6.695   3.004  0.0528 -0.2530 -0.0190
  216MOL   C11343543   7.368   6.681   2.912 -0.5002  0.1102  0.3736
  216MOL   C11443544   7.385   6.679   2.781  0.5980  0.0840  0.7442
  216MOL   C11543545   7.280   6.668   2.674 -0.0800  0.1941 -0.5959
  216MOL   H11643546   7.572   6.645   2.962  0.2325 -1.3203  1.5922
  216MOL   H11743547   7.465   6.634   3.092  0.9191  0.4657  0.6853
  216MOL   H11843548   7.265   6.676   2.945  0.0246  0.0116  2.0517
  216MOL   H11943549   7.486   6.689   2.745 -0.2001  0.5150 -1.4105
  216MOL   H12043550   7.298   6.724   2.582  2.2682 -0.7873 -0.7639
  216MOL   H12143551   7.188   6.703   2.721  0.0796  1.6247 -1.3119
  216MOL   C12243552   7.256   6.514   2.637 -0.1897 -0.1083  0.2670
  216MOL   C12343553   7.155   6.486   2.521 -0.2615  0.3899  0.1553
  216MOL   C12443554   7.173   6.430   2.404  0.1729  0.2134  0.9265
  216MOL   C12543555   7.057   6.407   2.309 -0.2068 -0.0194  0.0628
  216MOL   H12643556   7.357   6.480   2.612 -0.4099 -0.5974  0.0514
  216MOL   H12743557   7.225   6.456   2.724 -2.2275 -0.6791 -0.8315
  216MOL   H12843558   7.057   6.514   2.558 -1.5677 -1.4405 -1.8346
  216MOL   H12943559   7.273   6.406   2.370  0.0906  0.2330  0.6785
  216MOL   H13043560   7.056   6.490   2.239  1.9490  1.1455  1.3814
  216MOL   H13143561   6.967   6.411   2.370  1.2257 -1.4221  2.3428
  216MOL   C13243562   7.053   6.263   2.246  0.5789 -0.3487 -0.4434
  216MOL   C13343563   7.175   6.243   2.151  0.4131  0.0035  0.3636
  216MOL   C13443564   7.248   6.126   2.151  0.1712  0.0763  0.1596
  216MOL   C13543565   7.368   6.086   2.062  0.1578 -0.2334 -0.7419
  216MOL   H13643566   7.053   6.189   2.326 -0.6546 -1.0499 -1.0824
  216MOL   H13743567   6.959   6.244   2.194 -0.8226  4.4204  0.1265
  216MOL   H13843568   7.194   6.312   2.070  3.0454 -0.3364  0.6371
  216MOL   H13943569   7.228   6.045   2.220  1.0367  0.6977  1.1459
  216MOL   H14043570   7.373   6.153   1.976 -1.7588  1.3245  0.3176
  216MOL   H14143571   7.345   5.989   2.017  0.1753 -0.4824 -0.2166
  216MOL   C14243572   7.504   6.087   2.132  0.2857  0.0305  0.8208
  216MOL   C14343573   7.617   6.077   2.032  0.3675  0.5409  0.3930
  216MOL   C14443574   7.705   6.175   2.009  0.1539  0.6734  0.6145
  216MOL   C14543575   7.819   6.163   1.910 -0.1835  0.2588  0.2109
  216MOL   H14643576   7.501   6.178   2.192 -0.2171  0.5784 -0.0102
  216MOL   H14743577   7.502   6.006   2.205 -1.0796  1.7914  2.8152
  216MOL   H14843578   7.612   5.982   1.981  1.8593  0.2429  0.7732
  216MOL   H14943579   7.707   6.261   2.074  0.0808  2.6894 -1.9328
  216MOL   H15043580   7.828   6.259   1.860 -0.4803 -0.1203 -0.5683
  216MOL   H15143581   7.795   6.093   1.831 -2.6788 -1.8536  2.7269
  216MOL   C15243582   7.952   6.127   1.977 -0.0656  0.1506 -0.0632
  216MOL   C15343583   0.008   6.205   2.101 -0.2179 -0.3555  0.9022
  216MOL   C15443584   0.074   6.152   2.206  0.7465  0.2151 -1.1750
  216MOL   C15543585   0.118   6.224   2.327 -0.4250 -0.3023  0.6130
  216MOL   H15643586   7.959   6.019   1.993 -0.1608  0.1405 -0.0892
  216MOL   H15743587   0.059   6.147   1.910  0.4296  0.1879  0.5544
  216MOL   H15843588   7.955   6.309   2.096 -1.3308 -0.6137  1.8156
  216MOL   H15943589   0.073   6.044   2.211  3.2988  0.2153  0.1022
  216MOL   H16043590   0.222   6.202   2.348  0.2074  0.5204 -1.5305
  216MOL   H16143591   0.052   6.187   2.406 -0.3714 -0.3067  0.6564
  216MOL   C16243592   0.096   6.378   2.327  0.9134 -0.3406  0.6002
  216MOL   C16343593   0.167   6.433   2.449  0.7798 -0.0863 -0.2892
  216MOL   C16443594   0.291   6.486   2.440  0.5090  0.2150  0.8190
  216MOL   C16543595   0.378   6.545   2.550  0.2602 -0.4802  0.9717
  216MOL   H16643596   0.138   6.417   2.234 -2.0805  0.3421 -0.5340
  216MOL   H16743597   7.971   6.416   2.330  1.3276  0.8209  0.2131
  216MOL   H16843598   0.117   6.423   2.545  2.5826  1.0022  0.8054
  216MOL   H16943599   0.352   6.479   2.352  3.0835  0.6927  2.5120
  216MOL   H17043600   0.315   6.627   2.583  1.1380  0.3486  0.5755
  216MOL   H17143601   0.472   6.578   2.506 -0.5168  0.6316  0.1294
  216MOL   C17243602   0.395   6.441   2.664 -0.1011 -0.2344 -0.1911
  216MOL   C17343603   0.517   6.471   2.753 -0.5322 -0.1409 -0.8972
  216MOL   C17443604   0.609   6.373   2.779 -0.5820  0.1340 -0.1780
  216MOL   C17543605   0.743   6.385   2.846  0.5098  0.3798 -0.7398
  216MOL   H17643606   0.303   6.458   2.719  0.2198 -1.4346  0.7449
  216MOL   H17743607   0.387   6.338   2.628 -0.9375 -0.6238  1.0857
  216MOL   H17843608   0.554   6.571   2.765  1.1408 -0.8053 -0.3416
  216MOL   H17943609   0.602   6.279   2.727  0.4969 -0.0815  0.0540
  216MOL   H18043610   0.774   6.488   2.864 -0.9889  0.3644  2.2481
  216MOL   H18143611   0.816   6.342   2.777  1.2707  1.7527 -0.8129
  216MOL   C18243612   0.752   6.288   2.962  0.3637  0.5549  0.1364
  216MOL   C18343613   0.884   6.263   3.035 -0.0725  0.2587 -0.3301
  216MOL   C18443614   0.892   6.260   3.171 -0.4470 -0.3602  0.9301
  216MOL   C18543615   1.034   6.240   3.234 -0.1797 -0.4376 -0.2397
  216MOL   H18643616   0.680   6.317   3.038  1.6288  0.7764  1.2696
  216MOL   H18743617   0.712   6.192   2.929  0.6765  0.0483  1.2039
  216MOL   H18843618   0.977   6.249   2.982  1.0362 -0.0771  1.6766
  216MOL   H18943619   0.813   6.252   3.244 -0.3921  0.3985  1.0823
  216MOL   H19043620   1.018   6.312   3.315 -0.9799  1.1851 -1.8208
  216MOL   H19143621   1.114   6.290   3.179  0.2667  0.2140  0.9544
  216MOL   C19243622   1.066   6.091   3.271  0.0612  0.0933  0.2497
  216MOL   C19343623   1.203   6.086   3.327  0.5025 -0.3403  0.2588
  216MOL   C19443624   1.310   6.021   3.280  0.3912  0.6646  0.0378
  216MOL   C19543625   1.450   6.028   3.324 -0.2584 -0.1172 -0.1571
  216MOL   H19643626   1.000   6.045   3.345  0.4954  0.7796  1.0805
  216MOL   H19743627   1.067   6.023   3.186  2.1779  0.0115  0.3116
  216MOL   H19843628   1.223   6.134   3.422 -1.0154 -0.7791  0.8061
  216MOL   H19943629   1.300   5.965   3.188  2.3628  0.5787 -0.1356
  216MOL   H20043630   1.502   6.109   3.273  1.7796 -1.1778  0.2189
  216MOL   H20143631   1.504   5.942   3.284  0.3726 -0.6069  1.6931
  216MOL   H20243632   1.467   6.037   3.431 -1.7023 -0.8131  0.1424
  217MOL     C143633   0.397   6.334   3.109 -0.1680  0.3668  0.5207
  217MOL     C243634   0.390   6.318   3.258 -0.0507  0.1175  0.0511
  217MOL     C343635   0.436   6.203   3.323  0.1287 -0.2280  0.3629
  217MOL     C443636   0.443   6.194   3.475 -0.0300  0.3324 -0.3757
  217MOL     H543637   0.447   6.252   3.057  0.8258  0.4662  1.2798
  217MOL     H643638   0.459   6.421   3.088 -0.4530  0.3754 -0.3010
  217MOL     H743639   0.346   6.400   3.312 -2.0078 -0.2232 -1.0121
  217MOL     H843640   0.456   6.112   3.269  0.5532  0.0889 -0.0185
  217MOL     H943641   0.393   6.285   3.509  0.2242 -0.2678  1.7094
  217MOL    H1043642   0.548   6.210   3.501  0.1140 -2.3176  0.7797
  217MOL    H1143643   0.303   6.348   3.057  0.4719 -0.1818 -0.8209
  217MOL    C1243644   0.377   6.075   3.535  0.8762  0.0786 -0.4257
  217MOL    C1343645   0.461   5.947   3.518  0.0653 -0.1314  0.0106
  217MOL    C1443646   0.592   5.934   3.529 -0.2379  0.6382  0.4263
  217MOL    C1543647   0.666   5.803   3.508  0.0577 -0.0157  0.6488
  217MOL    H1643648   0.373   6.097   3.642 -0.1658 -2.9083  0.1960
  217MOL    H1743649   0.273   6.054   3.511 -0.4048  3.8404  1.3211
  217MOL    H1843650   0.399   5.861   3.498  1.3868 -1.0328 -0.2582
  217MOL    H1943651   0.650   6.020   3.560  0.0710  0.7989 -0.5908
  217MOL    H2043652   0.583   5.733   3.491 -0.7676  1.1600 -0.2418
  217MOL    H2143653   0.718   5.783   3.601  0.4138  1.8505  0.8671
  217MOL    C2243654   0.767   5.804   3.391  0.1313 -0.2197  0.2367
  217MOL    C2343655   0.713   5.852   3.261 -0.2865 -0.1112 -0.4258
  217MOL    C2443656   0.674   5.777   3.152  0.1035  0.3685  0.0837
  217MOL    C2543657   0.635   5.826   3.015  1.0681 -0.5115  0.3929
  217MOL    H2643658   0.847   5.871   3.421 -0.3591 -0.0060  1.0869
  217MOL    H2743659   0.790   5.700   3.365 -1.4818 -0.1038 -1.8205
  217MOL    H2843660   0.704   5.959   3.259  0.9836  0.0389  0.8691
  217MOL    H2943661   0.687   5.670   3.165 -2.2653  0.1795  1.1045
  217MOL    H3043662   0.710   5.782   2.949 -0.0058 -0.4714 -0.8765
  217MOL    H3143663   0.652   5.933   3.005  1.8908 -0.4810  2.0274
  217MOL    C3243664   0.497   5.780   2.970  0.6968 -0.2418  0.6731
  217MOL    C3343665   0.489   5.634   2.973 -0.0300 -0.2516  0.3348
  217MOL    C3443666   0.379   5.570   3.011 -0.1001  0.3945  0.3923
  217MOL    C3543667   0.375   5.418   3.038  0.7634 -0.5463  0.8180
  217MOL    H3643668   0.427   5.816   3.046 -2.4827 -0.8922 -1.8774
  217MOL    H3743669   0.469   5.827   2.876 -0.3804 -0.2134  0.9987
  217MOL    H3843670   0.584   5.585   2.957  0.1663  0.2876 -0.1806
  217MOL    H3943671   0.292   5.626   3.042  0.2079  0.5386  1.0200
  217MOL    H4043672   0.365   5.405   3.146  0.1359  0.1314  0.8467
  217MOL    H4143673   0.462   5.371   2.991  0.1351  2.0012 -3.0842
  217MOL    C4243674   0.255   5.373   2.965 -0.0052  0.3864 -0.0639
  217MOL    C4343675   0.275   5.366   2.815  0.4907  0.9598  0.3193
  217MOL    C4443676   0.263   5.254   2.738 -0.3874 -0.0851  0.1737
  217MOL    C4543677   0.311   5.252   2.596  0.8311  0.7335 -0.1500
  217MOL    H4643678   0.236   5.270   2.994 -1.8247  0.7817  0.2284
  217MOL    H4743679   0.160   5.424   2.982  0.0923  0.8017 -0.7296
  217MOL    H4843680   0.306   5.459   2.770 -3.0939  3.2532  2.2842
  217MOL    H4943681   0.242   5.153   2.770  0.3100  0.1155  1.2520
  217MOL    H5043682   0.358   5.159   2.565 -1.5902 -0.4977 -0.2265
  217MOL    H5143683   0.377   5.338   2.582  0.9757  0.4666 -1.2062
  217MOL    C5243684   0.203   5.274   2.492  0.4710  0.7417  0.2876
  217MOL    C5343685   0.264   5.273   2.353  0.0563  0.2030 -0.4669
  217MOL    C5443686   0.199   5.221   2.247  0.2245 -0.2350  0.3745
  217MOL    C5543687   0.243   5.225   2.103  0.7861 -0.1525 -0.6603
  217MOL    H5643688   0.130   5.194   2.500 -0.5221  1.3779 -1.9260
  217MOL    H5743689   0.149   5.367   2.512 -0.7892 -0.1919  1.2579
  217MOL    H5843690   0.359   5.325   2.351 -0.2342  1.1329  3.9526
  217MOL    H5943691   0.105   5.174   2.272  0.6551 -2.0269 -1.3161
  217MOL    H6043692   0.230   5.128   2.056 -0.6977 -0.8390  1.1132
  217MOL    H6143693   0.349   5.251   2.105  0.9543 -0.8396 -0.4725
  217MOL    C6243694   0.157   5.320   2.027  0.0903  0.3406 -0.4455
  217MOL    C6343695   0.194   5.327   1.888  0.9939  0.0152 -0.6910
  217MOL    C6443696   0.130   5.270   1.784 -0.3999 -0.4358 -0.5240
  217MOL    C6543697   0.180   5.271   1.641 -0.1352  0.1749  0.4468
  217MOL    H6643698   0.052   5.295   2.041  0.3203 -1.2698 -1.5079
  217MOL    H6743699   0.181   5.421   2.061 -1.3441  0.7122 -0.5188
  217MOL    H6843700   0.288   5.376   1.871  1.3468 -0.0870  0.8442
  217MOL    H6943701   0.031   5.228   1.795 -0.1194 -0.9013  0.2215
  217MOL    H7043702   0.183   5.170   1.601 -0.3156 -0.5244  2.1532
  217MOL    H7143703   0.279   5.311   1.619 -0.7347  3.1401  2.7350
  217MOL    C7243704   0.087   5.372   1.572  1.2387 -0.0502  0.3518
  217MOL    C7343705   0.088   5.339   1.422  0.3660 -0.5372 -0.5029
  217MOL    C7443706   7.955   5.332   1.343  0.4770 -0.5180 -0.7011
  217MOL    C7543707   7.952   5.295   1.195 -0.3747 -0.4223  0.2967
  217MOL    H7643708   7.960   5.367   1.606  0.7486 -3.5206 -1.4531
  217MOL    H7743709   0.120   5.474   1.590  2.0050 -0.1899 -0.2423
  217MOL    H7843710   0.186   5.305   1.390  0.7298 -0.6076  0.6420
  217MOL    H7943711   7.859   5.368   1.376  0.4537 -1.9430  0.8788
  217MOL    H8043712   7.908   5.376   1.136 -0.2885 -2.6488 -2.9574
  217MOL    H8143713   7.877   5.217   1.192  0.3816 -1.1192 -1.0657
  217MOL    C8243714   0.108   5.261   1.127  0.1354 -0.3635  0.8672
  217MOL    C8343715   0.085   5.189   0.996  0.1467 -0.0952  0.0823
  217MOL    C8443716   0.117   5.232   0.874 -0.2597 -0.0427 -0.1868
  217MOL    C8543717   0.082   5.157   0.751 -0.5907 -0.0604  0.1150
  217MOL    H8643718   0.173   5.347   1.106  0.1674 -0.5985 -0.0185
  217MOL    H8743719   0.172   5.198   1.189  2.3608  2.4527  1.5998
  217MOL    H8843720   0.041   5.091   1.008  0.9845 -0.4102  0.6265
  217MOL    H8943721   0.186   5.316   0.874 -1.0144  0.5888  0.2524
  217MOL    H9043722   0.023   5.221   0.686 -2.5643 -2.0117 -0.0580
  217MOL    H9143723   0.004   5.086   0.777 -1.6308  0.1420 -2.3579
  217MOL    C9243724   0.199   5.089   0.672  0.3428 -0.6017  0.0787
  217MOL    C9343725   0.158   5.024   0.538 -0.5740  0.9194 -1.2055
  217MOL    C9443726   0.034   5.010   0.484 -0.3281  0.3173  0.1599
  217MOL    C9543727   0.023   4.943   0.347  0.2260 -0.5970 -0.5746
  217MOL    H9643728   0.269   5.170   0.654  1.3285 -1.2235  1.0259
  217MOL    H9743729   0.254   5.016   0.730  1.2600  0.3310  0.3958
  217MOL    H9843730   0.235   4.979   0.478  0.5748 -0.7282  1.4210
  217MOL    H9943731   7.924   5.045   0.537  0.6660  2.7576  0.2293
  217MOL   H10043732   0.118   4.935   0.294 -0.1935 -2.4671 -1.0689
  217MOL   H10143733   7.945   5.006   0.276  0.5923 -0.0137 -0.3444
  217MOL   C10243734   7.923   4.817   0.362 -0.0192 -0.1317 -0.2775
  217MOL   C10343735   7.899   4.753   0.223  0.0880 -0.0646 -0.4301
  217MOL   C10443736   7.776   4.737   0.177  0.2376 -0.0432  0.2925
  217MOL   C10543737   7.739   4.670   0.042 -0.1827 -0.5106 -1.0874
  217MOL   H10643738   7.976   4.741   0.420 -0.5507 -0.2997 -0.0130
  217MOL   H10743739   7.829   4.841   0.412 -0.4261 -1.0776 -0.5830
  217MOL   H10843740   0.006   4.717   0.165  0.9357  0.5455  0.4093
  217MOL   H10943741   7.698   4.783   0.235  1.3917 -1.4659  3.0296
  217MOL   H11043742   7.686   4.575   0.053  1.9799 -2.3493 -5.0710
  217MOL   H11143743   7.823   4.653   7.951 -0.1457 -0.1831 -1.1223
  217MOL   C11243744   7.633   4.755   7.940 -0.5804  0.5645 -0.2330
  217MOL   C11343745   7.582   4.694   7.814 -0.7350  0.4738  0.6132
  217MOL   C11443746   7.616   4.744   7.694 -0.4252 -0.1643 -0.1095
  217MOL   C11543747   7.578   4.686   7.561  0.0181  0.2279  0.3296
  217MOL   H11643748   7.545   4.784   0.021 -0.3911  2.1104 -0.6934
  217MOL   H11743749   7.681   4.852   7.924  0.3349 -0.0365 -1.1830
  217MOL   H11843750   7.518   4.608   7.824  0.2477 -0.7061 -2.6362
  217MOL   H11943751   7.675   4.835   7.692  0.4513 -0.7609 -1.8229
  217MOL   H12043752   7.546   4.582   7.567  0.6701 -0.0926 -1.6847
  217MOL   H12143753   7.671   4.678   7.504 -0.3805 -1.0816 -0.1565
  217MOL   C12243754   7.465   4.758   7.485 -0.9833  0.5989  0.5812
  217MOL   C12343755   7.457   4.714   7.333 -0.4257  0.2682 -0.3553
  217MOL   C12443756   7.348   4.675   7.269 -0.5159  0.0898 -0.1711
  217MOL   C12543757   7.353   4.639   7.124  0.3822 -0.6060  0.3840
  217MOL   H12643758   7.366   4.738   7.525 -1.5682  0.6820 -0.7823
  217MOL   H12743759   7.487   4.864   7.498  1.6932  0.2426 -0.6170
  217MOL   H12843760   7.557   4.710   7.293  0.3979 -1.3340  1.7738
  217MOL   H12943761   7.257   4.673   7.329  1.2932  1.2795  2.7198
  217MOL   H13043762   7.289   4.554   7.101 -0.2951 -0.5245  1.8899
  217MOL   H13143763   7.451   4.610   7.085  0.5946  0.2744  0.2533
  217MOL   C13243764   7.315   4.759   7.028  0.0196  0.1364  0.2977
  217MOL   C13343765   7.306   4.693   6.888  0.1590 -0.7420  0.3987
  217MOL   C13443766   7.189   4.643   6.848  0.7409 -0.1219  0.4203
  217MOL   C13543767   7.157   4.594   6.706  0.4727  0.6305 -0.2685
  217MOL   H13643768   7.219   4.802   7.056 -0.1078  0.2152 -0.2684
  217MOL   H13743769   7.386   4.841   7.030 -0.2825  0.4172 -0.3245
  217MOL   H13843770   7.394   4.693   6.825 -0.1025  1.4219 -0.0197
  217MOL   H13943771   7.099   4.650   6.908 -0.1448 -0.1474 -0.8892
  217MOL   H14043772   7.149   4.486   6.720  3.3119  0.5929  1.5575
  217MOL   H14143773   7.240   4.610   6.637  1.4306 -0.8371  0.5188
  217MOL   C14243774   7.024   4.657   6.661  0.3039  1.0560 -0.3334
  217MOL   C14343775   7.046   4.801   6.615 -0.5276  0.2032  0.3493
  217MOL   C14443776   7.015   4.900   6.697  0.3619 -0.5104  0.7844
  217MOL   C14543777   7.043   5.050   6.663 -0.4553 -0.5878  0.0185
  217MOL   H14643778   6.991   4.603   6.572 -1.6325  1.6279  0.0072
  217MOL   H14743779   6.936   4.643   6.723  1.7179 -2.1515  1.0689
  217MOL   H14843780   7.088   4.810   6.516 -1.2567 -1.0878 -0.0919
  217MOL   H14943781   6.977   4.883   6.796  1.1098 -1.1047  0.9721
  217MOL   H15043782   7.075   5.095   6.757 -1.1469  1.7894 -0.8430
  217MOL   H15143783   6.951   5.094   6.626 -0.2972 -0.5113 -0.2854
  217MOL   C15243784   7.152   5.076   6.556 -0.3358 -0.2382 -0.1506
  217MOL   C15343785   7.167   5.217   6.499 -0.4019 -0.2755 -0.4897
  217MOL   C15443786   7.274   5.300   6.522  1.0880  0.3927  0.3517
  217MOL   C15543787   7.301   5.427   6.455  0.0803 -0.5017  0.0537
  217MOL   H15643788   7.242   5.044   6.608 -1.0758 -2.9931 -0.4312
  217MOL   H15743789   7.146   5.010   6.469  0.5887 -2.5756  1.4920
  217MOL   H15843790   7.097   5.255   6.427 -0.7041 -0.3006 -0.2081
  217MOL   H15943791   7.358   5.263   6.580  1.7879  2.7738  0.9230
  217MOL   H16043792   7.331   5.420   6.350 -1.1362 -0.9946 -0.2678
  217MOL   H16143793   7.383   5.482   6.501  1.1878 -0.2110 -2.2027
  217MOL   C16243794   7.192   5.534   6.474 -0.4957 -0.3335  0.7595
  217MOL   C16343795   7.222   5.657   6.383  0.0485  0.6099  0.2622
  217MOL   C16443796   7.185   5.780   6.426 -0.7751 -0.0409 -0.0144
  217MOL   C16543797   7.212   5.914   6.358  0.6711 -0.4234  0.3987
  217MOL   H16643798   7.094   5.503   6.438 -0.8521  1.6529 -0.0494
  217MOL   H16743799   7.169   5.555   6.579 -0.3974  1.1093  0.5071
  217MOL   H16843800   7.282   5.638   6.296  0.0759  0.5551  0.2927
  217MOL   H16943801   7.136   5.789   6.522  1.5179  0.2852  1.1560
  217MOL   H17043802   7.273   5.908   6.268  1.6892  0.4875  1.0186
  217MOL   H17143803   7.263   5.984   6.424 -1.6641  1.3294  0.3947
  217MOL   C17243804   7.080   5.985   6.334  0.2556 -0.4508  0.2484
  217MOL   C17343805   7.005   6.011   6.460  0.5421  0.2953  0.2412
  217MOL   C17443806   6.901   5.939   6.508 -0.7002  0.5897  0.1595
  217MOL   C17543807   6.832   5.959   6.646 -0.0892 -0.4449  0.4720
  217MOL   H17643808   7.102   6.084   6.294  0.1772 -1.0180 -1.2442
  217MOL   H17743809   7.014   5.929   6.268 -1.7452  0.9055  1.0837
  217MOL   H17843810   7.046   6.098   6.508 -0.2509 -0.2217  1.8949
  217MOL   H17943811   6.867   5.852   6.454  3.0042 -0.3649 -0.7782
  217MOL   H18043812   6.733   5.997   6.621  0.5415 -0.0553 -1.5452
  217MOL   H18143813   6.868   6.049   6.695 -1.2106 -0.0494  0.5922
  217MOL   C18243814   6.841   5.837   6.740  0.2671  0.2357  0.5363
  217MOL   C18343815   6.773   5.875   6.863 -1.1379 -0.3630  0.2261
  217MOL   C18443816   6.652   5.834   6.900  0.5127  0.9801  0.3303
  217MOL   C18543817   6.587   5.862   7.032 -0.3166 -0.0318  0.0312
  217MOL   H18643818   6.793   5.748   6.700 -0.7832  0.1347  2.0061
  217MOL   H18743819   6.947   5.812   6.753  0.2756 -0.2905 -0.5161
  217MOL   H18843820   6.825   5.932   6.938  0.6021  0.9044 -1.9068
  217MOL   H18943821   6.594   5.777   6.829  3.4774 -1.5951 -0.1185
  217MOL   H19043822   6.509   5.938   7.021  0.2011  0.5612  0.4456
  217MOL   H19143823   6.659   5.905   7.100 -1.4398 -1.8052  2.4283
  217MOL   C19243824   6.531   5.734   7.092 -0.2184  0.3638  0.1064
  217MOL   C19343825   6.439   5.755   7.213 -0.3826 -0.7161  0.4454
  217MOL   C19443826   6.309   5.737   7.205  0.3996  0.2861  0.0214
  217MOL   C19543827   6.218   5.761   7.325 -0.4062 -0.1826  0.1772
  217MOL   H19643828   6.478   5.675   7.018 -1.6184  1.8627 -0.1318
  217MOL   H19743829   6.618   5.670   7.105 -0.7579 -0.3912  0.0254
  217MOL   H19843830   6.493   5.797   7.297 -0.4195  0.0911  0.0661
  217MOL   H19943831   6.264   5.704   7.113 -0.6981  1.3151  0.1693
  217MOL   H20043832   6.143   5.837   7.305 -0.4156  0.3173  1.9979
  217MOL   H20143833   6.272   5.798   7.412 -1.2230 -0.1997  0.7006
  217MOL   H20243834   6.157   5.672   7.340  0.1126 -0.7250 -0.9033
  218MOL     C143835   2.611   4.539   3.559  0.0450 -0.0562 -0.0688
  218MOL     C243836   2.625   4.448   3.441 -0.3082  0.0598 -0.1774
  218MOL     C343837   2.579   4.322   3.429  0.6608 -0.2453 -0.5447
  218MOL     C443838   2.620   4.228   3.314 -0.1403  0.0775  1.0773
  218MOL     H543839   2.538   4.504   3.632 -1.7718 -0.0355 -1.8369
  218MOL     H643840   2.586   4.640   3.528 -0.8352  0.4619  2.2518
  218MOL     H743841   2.690   4.486   3.364 -0.6640  1.6744  0.3025
  218MOL     H843842   2.513   4.288   3.506  0.8736 -1.4592 -0.8795
  218MOL     H943843   2.705   4.174   3.355 -0.6177 -2.0130 -0.6045
  218MOL    H1043844   2.670   4.281   3.232  0.5852 -1.6396  0.3860
  218MOL    H1143845   2.704   4.538   3.615 -0.7573 -0.6251  1.2865
  218MOL    C1243846   2.502   4.138   3.286  0.1013  0.2573  0.0852
  218MOL    C1343847   2.544   4.020   3.193 -0.6594  0.2425  0.6924
  218MOL    C1443848   2.537   3.886   3.214 -0.5759  0.1967  0.2224
  218MOL    C1543849   2.611   3.774   3.135  0.4242 -0.5481 -0.2998
  218MOL    H1643850   2.463   4.099   3.380 -1.6595 -1.3044 -1.2422
  218MOL    H1743851   2.427   4.193   3.229 -1.9214 -0.2800  2.1773
  218MOL    H1843852   2.593   4.049   3.101  0.5609 -1.4189  0.8006
  218MOL    H1943853   2.476   3.859   3.299 -1.2520  2.0868  0.3614
  218MOL    H2043854   2.706   3.759   3.187 -0.6077 -1.3889  1.3968
  218MOL    H2143855   2.634   3.810   3.035  1.4625  3.0082  1.1389
  218MOL    C2243856   2.550   3.640   3.128  0.4515 -0.3095 -0.6875
  218MOL    C2343857   2.618   3.567   3.017  0.4256  0.2868  0.0310
  218MOL    C2443858   2.674   3.447   3.022 -0.3834  0.6855  0.3463
  218MOL    C2543859   2.740   3.374   2.909  0.3790  0.4423  0.0355
  218MOL    H2643860   2.562   3.586   3.223 -0.0434  2.2327  0.8680
  218MOL    H2743861   2.443   3.643   3.107  0.6121  1.7788 -1.3316
  218MOL    H2843862   2.599   3.609   2.919 -0.6602 -0.4115 -0.0599
  218MOL    H2943863   2.692   3.408   3.121  0.8868 -0.0396 -0.1525
  218MOL    H3043864   2.845   3.352   2.929  0.2223  0.0502  0.4485
  218MOL    H3143865   2.733   3.424   2.813  0.3094  0.0788 -0.1528
  218MOL    C3243866   2.677   3.228   2.893  0.6378 -0.5849 -0.0225
  218MOL    C3343867   2.708   3.132   3.004  0.0884  0.4994 -0.1207
  218MOL    C3443868   2.787   3.021   2.994  0.1268 -0.0744 -0.0885
  218MOL    C3543869   2.831   2.945   3.118  0.3284  0.3671 -0.5553
  218MOL    H3643870   2.570   3.247   2.885  0.6888 -0.8100 -1.4240
  218MOL    H3743871   2.695   3.170   2.802 -1.2530  1.2150 -1.6023
  218MOL    H3843872   2.674   3.172   3.098  1.3369 -1.1093  1.0571
  218MOL    H3943873   2.835   2.993   2.901  0.8085 -0.2450  0.3152
  218MOL    H4043874   2.754   2.946   3.195  0.5185  0.2662 -0.3649
  218MOL    H4143875   2.906   3.013   3.158 -0.1590 -0.4738  1.8416
  218MOL    C4243876   2.880   2.807   3.075  0.0032 -0.1679 -0.7220
  218MOL    C4343877   2.889   2.706   3.190  0.3813 -0.2580  0.4575
  218MOL    C4443878   2.810   2.595   3.203  0.5464  0.5103  0.0944
  218MOL    C4543879   2.813   2.495   3.316 -0.5866 -0.0871 -0.3146
  218MOL    H4643880   2.803   2.770   3.007  0.1954 -2.1266  0.0934
  218MOL    H4743881   2.977   2.806   3.026 -0.5135 -1.0777 -1.7488
  218MOL    H4843882   2.969   2.723   3.261  0.9242 -2.9985  0.5393
  218MOL    H4943883   2.737   2.569   3.127 -0.6911  0.1000  1.4041
  218MOL    H5043884   2.705   2.481   3.326 -0.7657  0.7520 -0.9503
  218MOL    H5143885   2.851   2.531   3.411 -0.0113  0.3584 -0.7092
  218MOL    C5243886   2.885   2.361   3.261  0.1751 -0.6284 -0.4670
  218MOL    C5343887   2.864   2.240   3.347 -0.4401  0.6827 -0.9144
  218MOL    C5443888   2.771   2.221   3.441 -0.5812 -0.6384 -0.3299
  218MOL    C5543889   2.750   2.096   3.523  0.3166 -0.0863 -0.2655
  218MOL    H5643890   2.854   2.343   3.158 -0.0598 -1.0750 -0.3200
  218MOL    H5743891   2.993   2.371   3.250 -0.1296  0.8334 -2.3586
  218MOL    H5843892   2.924   2.154   3.319  0.8000  1.3286 -0.2574
  218MOL    H5943893   2.705   2.303   3.465  0.6550  0.4323 -0.5626
  218MOL    H6043894   2.823   2.101   3.604 -1.4896  1.6066  1.2972
  218MOL    H6143895   2.772   2.008   3.462 -1.5538 -0.3360 -0.6220
  218MOL    C6243896   2.608   2.078   3.573  0.3249 -0.5857  0.1913
  218MOL    C6343897   2.605   1.969   3.676  0.0615 -0.6272  0.4680
  218MOL    C6443898   2.546   1.970   3.797 -0.4848  0.5571  0.6067
  218MOL    C6543899   2.557   1.852   3.888 -0.0391  0.3894 -0.8408
  218MOL    H6643900   2.563   2.168   3.614 -1.4069 -1.9265  1.3149
  218MOL    H6743901   2.551   2.053   3.484  0.6450 -0.8789  0.0656
  218MOL    H6843902   2.646   1.877   3.638 -0.4013 -0.8171  0.4246
  218MOL    H6943903   2.501   2.061   3.832 -3.2132  0.2264 -1.8486
  218MOL    H7043904   2.570   1.750   3.851  0.8406  0.5128 -0.8918
  218MOL    H7143905   2.461   1.843   3.939  0.1102  1.0654 -0.4314
  218MOL    C7243906   2.663   1.891   3.988  0.1417  0.3605 -0.2569
  218MOL    C7343907   2.691   1.782   4.089 -0.5996  0.5680  0.8670
  218MOL    C7443908   2.664   1.800   4.222 -0.2039  0.1003  0.1293
  218MOL    C7543909   2.699   1.694   4.329 -0.0127  0.6382 -0.0144
  218MOL    H7643910   2.757   1.918   3.939  1.2904  0.3504  1.8784
  218MOL    H7743911   2.628   1.979   4.041 -2.2925 -0.9288  0.3081
  218MOL    H7843912   2.734   1.694   4.044 -2.2381 -0.0774  0.5221
  218MOL    H7943913   2.620   1.894   4.252  0.8257  1.0098 -1.1575
  218MOL    H8043914   2.748   1.749   4.409 -1.1563  0.5463  0.7550
  218MOL    H8143915   2.777   1.632   4.284 -0.7623 -1.2159  1.1903
  218MOL    C8243916   2.572   1.632   4.373 -0.5072 -0.2205  0.1084
  218MOL    C8343917   2.588   1.509   4.460 -0.1840  1.2124  0.0253
  218MOL    C8443918   2.584   1.513   4.595  0.4198 -0.1577 -0.1545
  218MOL    C8543919   2.621   1.400   4.684 -0.0414  0.8400  0.0852
  218MOL    H8643920   2.524   1.711   4.430  1.6962 -0.0795  1.7993
  218MOL    H8743921   2.511   1.604   4.286  1.4716  0.1133 -1.4242
  218MOL    H8843922   2.605   1.417   4.406 -2.0233  0.9222 -0.0833
  218MOL    H8943923   2.568   1.607   4.646  1.2544 -0.7330  1.1870
  218MOL    H9043924   2.703   1.446   4.740  0.2181 -0.3563  0.7181
  218MOL    H9143925   2.659   1.313   4.631  1.2326  0.9862  0.7296
  218MOL    C9243926   2.509   1.362   4.779 -0.2731 -0.9873 -0.3699
  218MOL    C9343927   2.567   1.296   4.907  0.0218 -0.3238  0.4597
  218MOL    C9443928   2.525   1.335   5.023 -0.0534 -0.2428 -0.4956
  218MOL    C9543929   2.577   1.275   5.151  0.5152  0.0122  0.0990
  218MOL    H9643930   2.445   1.448   4.800 -2.2973 -2.7514  0.9374
  218MOL    H9743931   2.448   1.290   4.723  1.1080 -1.2121 -1.6357
  218MOL    H9843932   2.646   1.224   4.895 -0.3114 -0.8835  1.5639
  218MOL    H9943933   2.444   1.406   5.034 -0.8036 -0.7225 -2.7735
  218MOL   H10043934   2.607   1.355   5.219  1.4548  2.4681 -3.0717
  218MOL   H10143935   2.669   1.220   5.129  0.5053 -0.3662  0.9845
  218MOL   C10243936   2.483   1.174   5.212 -0.2425 -0.2876 -0.4289
  218MOL   C10343937   2.532   1.120   5.343 -0.2708 -0.8030 -0.0008
  218MOL   C10443938   2.579   0.994   5.372 -0.2453  0.2760 -0.4193
  218MOL   C10543939   2.635   0.952   5.507  0.2665 -0.5864  0.8006
  218MOL   H10643940   2.379   1.201   5.227  0.3397  1.2419  0.9882
  218MOL   H10743941   2.478   1.095   5.137 -1.7078  0.4917 -1.1610
  218MOL   H10843942   2.527   1.201   5.414 -2.0084 -0.4684 -0.4851
  218MOL   H10943943   2.583   0.916   5.297  0.9892  1.1078 -1.2351
  218MOL   H11043944   2.626   1.023   5.589 -0.3258  0.5292 -0.2140
  218MOL   H11143945   2.743   0.949   5.495  0.2278  0.6920  0.0559
  218MOL   C11243946   2.591   0.815   5.563 -0.0725  0.3000 -0.5050
  218MOL   C11343947   2.624   0.694   5.482 -0.1364 -0.5681  0.0026
  218MOL   C11443948   2.719   0.603   5.513 -1.4710  0.1732  0.3066
  218MOL   C11543949   2.727   0.478   5.436 -0.2353 -0.0141 -0.3759
  218MOL   H11643950   2.624   0.806   5.667  0.4670  1.9942 -0.5054
  218MOL   H11743951   2.482   0.816   5.566 -0.0844 -1.6647 -0.1353
  218MOL   H11843952   2.561   0.676   5.395 -1.0434  1.5518  0.1668
  218MOL   H11943953   2.790   0.621   5.593  0.0861 -0.4319 -0.8981
  218MOL   H12043954   2.656   0.476   5.353 -0.0801  1.4364 -0.5452
  218MOL   H12143955   2.694   0.409   5.514  4.3780 -0.8377  1.0117
  218MOL   C12243956   2.863   0.452   5.374  0.1941 -0.3962  0.3199
  218MOL   C12343957   2.890   0.514   5.237  0.5200  0.6352  0.3084
  218MOL   C12443958   2.895   0.445   5.125  0.2023 -0.3721  0.5407
  218MOL   C12543959   2.934   0.499   4.989 -0.2492 -0.0261 -0.1421
  218MOL   H12643960   2.941   0.484   5.443  0.9355  1.0811 -1.1735
  218MOL   H12743961   2.876   0.346   5.391  0.4505 -0.1888  1.4829
  218MOL   H12843962   2.905   0.620   5.242 -0.0032  0.7564 -0.5732
  218MOL   H12943963   2.885   0.337   5.127  0.2731 -0.3654  1.1613
  218MOL   H13043964   2.918   0.607   4.991 -0.9710 -0.0676 -1.9181
  218MOL   H13143965   2.874   0.456   4.909 -0.3295  1.7570 -1.0754
  218MOL   C13243966   3.073   0.461   4.950  0.1676  0.2421 -0.2948
  218MOL   C13343967   3.126   0.571   4.861  0.4619 -0.3279 -0.9738
  218MOL   C13443968   3.241   0.633   4.890  0.1280  1.4562  0.1546
  218MOL   C13543969   3.323   0.729   4.795 -0.9846  0.3164  0.0792
  218MOL   H13643970   3.131   0.455   5.041  2.5625 -2.4710 -1.9208
  218MOL   H13743971   3.087   0.363   4.906  1.1439 -0.1311  0.8412
  218MOL   H13843972   3.085   0.581   4.762 -0.6883 -2.8954 -0.8105
  218MOL   H13943973   3.287   0.623   4.987 -0.4714 -1.3334  0.1897
  218MOL   H14043974   3.335   0.823   4.849 -1.3042  0.8995 -0.8561
  218MOL   H14143975   3.270   0.747   4.701  0.7464 -1.7549 -1.3513
  218MOL   C14243976   3.470   0.685   4.771 -0.1617  0.1840  0.5891
  218MOL   C14343977   3.546   0.775   4.683 -0.5977  0.3511  0.1150
  218MOL   C14443978   3.618   0.731   4.576 -0.2808  0.1236 -0.3356
  218MOL   C14543979   3.697   0.828   4.490  0.4175 -0.2545  0.3275
  218MOL   H14643980   3.522   0.667   4.865 -0.2844  0.5450  0.7262
  218MOL   H14743981   3.479   0.589   4.721 -1.1543  1.7949 -2.8264
  218MOL   H14843982   3.543   0.880   4.708  1.7904  1.1395 -2.5023
  218MOL   H14943983   3.636   0.628   4.547  0.1063  0.1721 -0.2751
  218MOL   H15043984   3.797   0.798   4.458  1.1850  0.6991  1.7726
  218MOL   H15143985   3.704   0.917   4.553  1.7032 -0.1863  0.1074
  218MOL   C15243986   3.622   0.865   4.366 -0.0714  0.1963  0.9389
  218MOL   C15343987   3.469   0.874   4.387 -0.0945 -0.0037  0.1714
  218MOL   C15443988   3.412   0.980   4.440 -0.6215 -0.0795  0.5978
  218MOL   C15543989   3.264   0.999   4.444  0.2987  0.3495  0.0684
  218MOL   H15643990   3.662   0.958   4.326 -0.1095  0.1614  0.8199
  218MOL   H15743991   3.626   0.780   4.299  0.0918  1.1282 -0.2401
  218MOL   H15843992   3.413   0.791   4.346 -1.3944  1.4301 -1.0529
  218MOL   H15943993   3.470   1.069   4.460 -1.5740  0.8909 -0.8473
  218MOL   H16043994   3.240   0.995   4.550  1.3802 -0.1894  0.3023
  218MOL   H16143995   3.222   0.908   4.402  1.2773  0.9020 -2.1738
  218MOL   C16243996   3.214   1.137   4.385 -0.1485  0.0002 -0.4057
  218MOL   C16343997   3.203   1.137   4.231  0.1859 -0.5723  0.2643
  218MOL   C16443998   3.284   1.216   4.158  0.3474  0.5186 -0.0292
  218MOL   C16543999   3.273   1.235   4.009 -0.2731  0.4403  0.2656
  218MOL   H16644000   3.118   1.161   4.430 -0.6729 -1.2554 -0.8269
  218MOL   H16744001   3.278   1.219   4.418 -0.0146 -0.3244  0.1594
  218MOL   H16844002   3.136   1.073   4.175  2.4957 -1.5106 -1.5020
  218MOL   H16944003   3.348   1.287   4.207 -1.2049  2.1932 -0.3835
  218MOL   H17044004   3.236   1.335   3.986 -0.8259  0.7910  2.5618
  218MOL   H17144005   3.197   1.170   3.966  0.2848  1.0037 -1.6258
  218MOL   C17244006   3.415   1.219   3.941 -0.3150  0.2086 -0.1443
  218MOL   C17344007   3.475   1.083   3.965 -0.6276  0.0256  0.4659
  218MOL   C17444008   3.602   1.074   4.009 -0.3069  1.0334  0.6664
  218MOL   C17544009   3.676   0.943   4.024  0.3980 -0.4315 -0.5216
  218MOL   H17644010   3.408   1.253   3.838 -0.0404 -1.4616 -0.7270
  218MOL   H17744011   3.475   1.299   3.985 -1.6695  1.9808 -1.4421
  218MOL   H17844012   3.415   1.003   3.925  0.2282 -1.3050  1.8176
  218MOL   H17944013   3.657   1.165   4.029 -0.0288  0.4091  2.9253
  218MOL   H18044014   3.609   0.857   4.018 -0.6283  0.1574  1.8804
  218MOL   H18144015   3.726   0.941   4.121  1.4672 -2.8600 -1.0724
  218MOL   C18244016   3.781   0.941   3.915  0.2660  0.2418 -0.2060
  218MOL   C18344017   3.829   0.796   3.897  0.0267  0.2286  0.0286
  218MOL   C18444018   3.799   0.710   3.795  0.9189  0.0219  0.4134
  218MOL   C18544019   3.833   0.566   3.796 -0.3955  0.3359  0.2470
  218MOL   H18644020   3.745   0.985   3.822 -2.1263  3.3869  2.1296
  218MOL   H18744021   3.864   1.003   3.949  1.0523  0.6694 -2.7860
  218MOL   H18844022   3.891   0.749   3.971 -1.1142  0.7660  1.3596
  218MOL   H18944023   3.728   0.744   3.720  0.7329 -0.7861  0.2182
  218MOL   H19044024   3.763   0.522   3.867 -0.3838  1.4024  0.9268
  218MOL   H19144025   3.933   0.558   3.838 -0.7487  1.7501  1.3827
  218MOL   C19244026   3.829   0.502   3.656 -0.7742 -0.3702  0.3217
  218MOL   C19344027   3.960   0.526   3.574  0.2601  0.9417 -0.2461
  218MOL   C19444028   3.970   0.620   3.477 -0.2558  0.2782  0.9349
  218MOL   C19544029   4.087   0.656   3.391  0.3604 -0.1423  0.3990
  218MOL   H19644030   3.807   0.396   3.670 -1.0952 -0.4339 -0.6026
  218MOL   H19744031   3.749   0.551   3.600  2.1558  3.0222 -1.0934
  218MOL   H19844032   4.047   0.465   3.589  0.2987  1.1010  0.1725
  218MOL   H19944033   3.885   0.678   3.444 -0.0674  0.4052  0.6666
  218MOL   H20044034   4.061   0.695   3.293 -2.2259 -1.6882  0.4197
  218MOL   H20144035   4.153   0.572   3.373  0.1699 -0.6687  2.0852
  218MOL   H20244036   4.141   0.729   3.452 -0.5797  0.1917  0.8541
  219MOL     C144037   0.916   1.003   3.618 -0.5509  0.6479  0.1227
  219MOL     C244038   0.783   0.948   3.650 -0.9308  0.7493  0.7225
  219MOL     C344039   0.722   0.961   3.766  0.1082 -0.3876  0.2487
  219MOL     C444040   0.573   0.940   3.778 -0.0746 -0.0480  0.3542
  219MOL     H544041   0.979   0.942   3.554 -1.6664 -0.4387  0.0525
  219MOL     H644042   0.974   1.026   3.707  1.3169 -0.1554 -0.8629
  219MOL     H744043   0.729   0.911   3.564  0.3098  0.9521 -0.1628
  219MOL     H844044   0.769   1.020   3.843  3.4135  0.2976 -2.1940
  219MOL     H944045   0.536   1.016   3.847  0.8895 -0.0352  0.8631
  219MOL    H1044046   0.552   0.859   3.847  0.4334  0.0105  0.5829
  219MOL    H1144047   0.888   1.086   3.553 -2.1608 -0.2811 -0.3866
  219MOL    C1244048   0.495   0.943   3.649  0.5373 -0.2159  0.1073
  219MOL    C1344049   0.350   0.910   3.675 -0.2495  0.5933 -0.7144
  219MOL    C1444050   0.270   0.821   3.613 -0.3184  0.4138  0.6041
  219MOL    C1544051   0.127   0.799   3.647 -0.0738 -0.1825 -0.3820
  219MOL    H1644052   0.503   1.034   3.590  0.1385 -0.2937 -0.0655
  219MOL    H1744053   0.526   0.868   3.576  2.0290  0.0565  0.4518
  219MOL    H1844054   0.304   0.965   3.756  1.9648 -1.1042  1.7930
  219MOL    H1944055   0.305   0.760   3.531 -1.3738  1.9654 -1.0517
  219MOL    H2044056   0.096   0.865   3.728  0.1667 -0.2965 -0.1940
  219MOL    H2144057   0.105   0.700   3.688  1.7511 -0.3068  0.3247
  219MOL    C2244058   0.041   0.818   3.521 -0.7168 -0.0375 -0.7792
  219MOL    C2344059   7.871   0.790   3.558  0.1493 -0.7409 -0.9492
  219MOL    C2444060   7.772   0.868   3.511 -0.3880 -0.6335 -0.3245
  219MOL    C2544061   7.623   0.848   3.546  0.2928 -0.1016 -0.2356
  219MOL    H2644062   0.038   0.923   3.493 -0.4876  0.0406 -0.5129
  219MOL    H2744063   0.081   0.759   3.438  0.0508  0.9384 -1.1193
  219MOL    H2844064   7.848   0.702   3.615  1.2809 -1.8624 -2.1970
  219MOL    H2944065   7.802   0.950   3.447 -0.9854 -0.4671 -0.3936
  219MOL    H3044066   7.595   0.916   3.627  2.8895  0.8619 -0.1123
  219MOL    H3144067   7.599   0.758   3.602  0.2473  0.2755  0.3552
  219MOL    C3244068   7.526   0.856   3.429  1.0988  0.2786  0.0238
  219MOL    C3344069   7.384   0.875   3.468 -0.1899  0.0275  0.2444
  219MOL    C3444070   7.278   0.799   3.434 -0.0515  0.1346  0.6263
  219MOL    C3544071   7.134   0.824   3.478 -0.1848 -0.3318  0.3221
  219MOL    H3644072   7.562   0.941   3.372  1.1423 -0.0503 -0.4351
  219MOL    H3744073   7.542   0.774   3.359 -0.4165 -1.5807  1.7868
  219MOL    H3844074   7.386   0.956   3.540  1.9467 -1.0289  1.4405
  219MOL    H3944075   7.310   0.723   3.364  0.3937  0.6508  0.2628
  219MOL    H4044076   7.130   0.898   3.558  0.9073  2.7655 -2.4073
  219MOL    H4144077   7.106   0.721   3.503 -2.0729  0.0942  0.0415
  219MOL    C4244078   7.040   0.874   3.364  0.2269  0.4982 -0.1987
  219MOL    C4344079   7.056   0.801   3.237  0.1770 -0.1318  0.4980
  219MOL    C4444080   7.105   0.861   3.122  0.0683  0.0845 -0.7653
  219MOL    C4544081   7.115   0.781   2.991 -0.5083  0.1262 -0.3260
  219MOL    H4644082   6.933   0.873   3.382  0.3270  1.8659  0.5522
  219MOL    H4744083   7.063   0.979   3.346  0.0566  0.7460  0.9852
  219MOL    H4844084   7.026   0.697   3.232  1.4490 -0.6044  2.0613
  219MOL    H4944085   7.130   0.965   3.126  3.0566 -0.5184 -2.5879
  219MOL    H5044086   7.117   0.673   3.001 -1.5777  0.2409  1.2333
  219MOL    H5144087   7.210   0.808   2.946 -1.1634 -0.7836 -2.3330
  219MOL    C5244088   6.989   0.809   2.907  0.5611 -0.1962  0.7922
  219MOL    C5344089   7.011   0.749   2.767 -0.3487  0.0702  0.3714
  219MOL    C5444090   6.933   0.665   2.707  0.2539 -0.2766 -0.4194
  219MOL    C5544091   6.956   0.624   2.563  0.3668 -0.3930 -0.2822
  219MOL    H5644092   6.899   0.767   2.953  1.0425 -2.7782 -0.4972
  219MOL    H5744093   6.968   0.915   2.894 -1.9529 -0.6137  1.1754
  219MOL    H5844094   7.104   0.784   2.725  0.3454 -2.5272 -0.3393
  219MOL    H5944095   6.834   0.640   2.742 -0.2350 -0.4327 -1.8701
  219MOL    H6044096   6.981   0.518   2.562  0.0023 -0.4624 -1.4853
  219MOL    H6144097   7.047   0.670   2.526  0.0699 -0.5914 -1.2598
  219MOL    C6244098   6.829   0.659   2.486  0.2717  0.3079 -0.2098
  219MOL    C6344099   6.821   0.607   2.341 -0.0962  0.6920 -0.4182
  219MOL    C6444100   6.832   0.477   2.293 -0.0637  0.0446  0.3366
  219MOL    C6544101   6.795   0.443   2.145 -0.5068 -0.4220  0.3297
  219MOL    H6644102   6.741   0.604   2.522  1.2156 -2.2893 -1.7198
  219MOL    H6744103   6.790   0.760   2.499 -0.8013 -0.1096 -0.0755
  219MOL    H6844104   6.783   0.682   2.274  1.9334  1.7038 -0.4572
  219MOL    H6944105   6.855   0.389   2.351  2.7243  1.4906  1.5745
  219MOL    H7044106   6.773   0.532   2.087 -3.0784  0.2841  2.3471
  219MOL    H7144107   6.701   0.388   2.150 -1.0455  0.6316  2.0785
  219MOL    C7244108   6.909   0.363   2.079 -0.5395 -0.2323  0.0492
  219MOL    C7344109   7.038   0.441   2.072  0.1834 -0.6742 -0.2362
  219MOL    C7444110   7.099   0.477   1.953  0.4228 -0.3492 -0.7641
  219MOL    C7544111   7.222   0.569   1.927  0.1224  0.0722  0.4049
  219MOL    H7644112   6.938   0.268   2.124  0.3236 -0.1337 -0.2925
  219MOL    H7744113   6.866   0.336   1.982  0.9182 -2.6248  0.0108
  219MOL    H7844114   7.080   0.461   2.169  2.9998 -1.0564 -1.3273
  219MOL    H7944115   7.051   0.437   1.865  1.7455  0.3027 -1.8087
  219MOL    H8044116   7.297   0.520   1.865  1.1955  1.2588  0.7399
  219MOL    H8144117   7.259   0.604   2.024  0.9339 -1.1756  0.5468
  219MOL    C8244118   7.195   0.696   1.850  0.0971 -0.1573 -0.0512
  219MOL    C8344119   7.163   0.670   1.703  0.0242 -0.0334  0.0059
  219MOL    C8444120   7.240   0.722   1.607  0.0000 -0.0451 -0.0604
  219MOL    C8544121   7.213   0.715   1.454  0.0983  0.1201  0.2230
  219MOL    H8644122   7.117   0.754   1.899  0.3508  1.0658 -1.0773
  219MOL    H8744123   7.280   0.762   1.864 -1.1861  1.4731  0.1835
  219MOL    H8844124   7.074   0.613   1.681  1.7528 -2.0247 -2.1836
  219MOL    H8944125   7.329   0.775   1.636 -0.2967  0.3608  0.1180
  219MOL    H9044126   7.130   0.651   1.426  1.7914 -1.1565 -2.0626
  219MOL    H9144127   7.298   0.656   1.420 -1.9447 -2.9889  0.2872
  219MOL    C9244128   7.214   0.859   1.396  0.4793  0.0192  0.2482
  219MOL    C9344129   7.224   0.867   1.250 -0.4545 -0.2318 -0.1525
  219MOL    C9444130   7.186   0.776   1.159  1.4441  0.8007  0.6932
  219MOL    C9544131   7.203   0.785   1.010 -0.4170 -0.1542  0.0324
  219MOL    H9644132   7.131   0.920   1.432  0.6877  0.8021 -0.5804
  219MOL    H9744133   7.304   0.906   1.436  0.2178 -1.1496  2.2688
  219MOL    H9844134   7.282   0.949   1.211  0.8584 -0.8487  0.4483
  219MOL    H9944135   7.130   0.691   1.195  2.3154  0.5101  1.3752
  219MOL   H10044136   7.217   0.686   0.968  2.0003 -0.1771  0.8434
  219MOL   H10144137   7.301   0.830   0.996  0.0171 -0.8305  0.8633
  219MOL   C10244138   7.096   0.866   0.945  0.4923  0.1681  0.4668
  219MOL   C10344139   7.134   0.886   0.798 -0.3434  0.3515  0.2028
  219MOL   C10444140   7.069   0.846   0.688  0.1483  0.5245 -0.2914
  219MOL   C10544141   7.119   0.874   0.551  0.5647 -0.1876 -0.2418
  219MOL   H10644142   6.995   0.824   0.949  0.5206 -0.3043 -2.4155
  219MOL   H10744143   7.098   0.962   0.996 -0.0840 -0.2749  1.3345
  219MOL   H10844144   7.213   0.957   0.778 -0.1622  0.1281  0.1303
  219MOL   H10944145   6.981   0.787   0.709  0.4851  0.6711  1.5670
  219MOL   H11044146   7.157   0.784   0.502  0.6672 -0.2329 -0.0800
  219MOL   H11144147   7.197   0.950   0.557 -0.5119  0.8591  0.8087
  219MOL   C11244148   7.007   0.933   0.454 -0.0530  0.5945 -0.1048
  219MOL   C11344149   7.072   1.018   0.346 -0.7676  0.5611  0.3592
  219MOL   C11444150   7.079   0.981   0.218 -0.1684  0.8211  0.2166
  219MOL   C11544151   7.155   1.049   0.107  0.2559 -0.8436 -0.2011
  219MOL   H11644152   6.939   0.853   0.424  2.3563 -1.8144  0.7185
  219MOL   H11744153   6.950   0.999   0.520 -0.4450  1.4806 -1.3097
  219MOL   H11844154   7.099   1.116   0.381  0.2522  0.1187  0.8489
  219MOL   H11944155   7.046   0.883   0.188 -1.6694  1.5847 -0.6668
  219MOL   H12044156   7.238   0.978   0.095  0.1085 -1.4833  2.2480
  219MOL   H12144157   7.196   1.144   0.139 -1.4293 -1.0145  2.5245
  219MOL   C12244158   7.076   1.048   7.959  0.1710 -0.3140  0.2989
  219MOL   C12344159   7.141   1.126   7.840  0.5453  0.6151 -0.6917
  219MOL   C12444160   7.093   1.228   7.776  0.3470  0.0959  0.3114
  219MOL   C12544161   7.157   1.303   7.657  0.7498 -0.4515 -0.6856
  219MOL   H12644162   7.073   0.945   7.922 -0.0608 -0.2306  0.0864
  219MOL   H12744163   6.979   1.093   7.976  1.2950  1.5535  1.9463
  219MOL   H12844164   7.239   1.086   7.818  1.5177  0.3873  3.6457
  219MOL   H12944165   6.994   1.264   7.801  0.3397  0.8539 -0.7680
  219MOL   H13044166   7.075   1.336   7.594  0.5094 -0.2014 -0.2450
  219MOL   H13144167   7.222   1.241   7.596  0.0750 -1.0691 -0.7775
  219MOL   C13244168   7.232   1.429   7.693 -0.3687 -0.4018 -0.6678
  219MOL   C13344169   7.152   1.535   7.770  0.1399 -0.3805  0.0770
  219MOL   C13444170   7.103   1.651   7.717  0.1486 -0.4547 -0.0612
  219MOL   C13544171   7.033   1.761   7.795 -0.3181  0.1804 -0.4830
  219MOL   H13644172   7.321   1.402   7.750 -0.8417  1.2538  0.9163
  219MOL   H13744173   7.269   1.475   7.601  3.1845 -2.6722 -0.4389
  219MOL   H13844174   7.133   1.510   7.874  1.7127 -0.1439  0.4299
  219MOL   H13944175   7.105   1.670   7.611  0.6897  2.3571  0.4137
  219MOL   H14044176   7.021   1.747   7.902  0.6700 -1.5347 -0.5826
  219MOL   H14144177   6.930   1.761   7.758 -1.1667  1.1552  1.8582
  219MOL   C14244178   7.104   1.897   7.776 -0.8250 -0.8436  0.3197
  219MOL   C14344179   7.023   2.011   7.826  0.1640 -0.2414 -0.1966
  219MOL   C14444180   6.946   2.096   7.759 -0.8563  0.5818  0.4147
  219MOL   C14544181   6.871   2.218   7.804  0.5232 -0.2955 -0.0348
  219MOL   H14644182   7.205   1.894   7.818 -0.8622 -1.9781  0.3480
  219MOL   H14744183   7.111   1.907   7.668  0.1016 -1.0136  0.3552
  219MOL   H14844184   7.034   2.014   7.933 -0.2469 -0.0672 -0.1560
  219MOL   H14944185   6.954   2.090   7.651 -0.5022 -2.5418  0.5575
  219MOL   H15044186   6.845   2.211   7.909 -1.8289  1.3482 -0.4711
  219MOL   H15144187   6.779   2.227   7.746  0.0976 -0.2072  0.6523
  219MOL   C15244188   6.953   2.348   7.794  0.4382 -0.0982 -0.5209
  219MOL   C15344189   6.869   2.462   7.855  1.1131  0.8719  0.6183
  219MOL   C15444190   6.826   2.572   7.787 -0.4929 -0.3627 -0.2924
  219MOL   C15544191   6.751   2.693   7.838 -0.1173 -0.7665  0.0027
  219MOL   H15644192   7.043   2.350   7.856  0.7642  3.3772 -1.0036
  219MOL   H15744193   7.001   2.369   7.699  1.2992  1.6088  0.2640
  219MOL   H15844194   6.860   2.441   7.960 -0.6284  0.4758  0.4001
  219MOL   H15944195   6.855   2.578   7.683 -0.3493  0.3889 -0.2094
  219MOL   H16044196   6.805   2.787   7.826 -2.9845  0.7326 -1.4376
  219MOL   H16144197   6.737   2.680   7.946 -0.8562 -0.6226 -0.0733
  219MOL   C16244198   6.614   2.706   7.769  0.2859 -0.4388 -0.9064
  219MOL   C16344199   6.556   2.846   7.778  0.1389 -0.1875 -0.5719
  219MOL   C16444200   6.629   2.960   7.793  0.3272 -0.8659  0.1782
  219MOL   C16544201   6.564   3.096   7.815 -0.2121 -0.0323 -0.6614
  219MOL   H16644202   6.631   2.687   7.663  0.7632  0.1901 -0.9487
  219MOL   H16744203   6.537   2.636   7.802  1.7308 -1.6054  0.0673
  219MOL   H16844204   6.449   2.850   7.763  0.4017 -0.3048 -2.6766
  219MOL   H16944205   6.735   2.970   7.810 -0.2776  0.3279  3.5516
  219MOL   H17044206   6.613   3.153   7.894  1.7489 -0.9544 -1.1977
  219MOL   H17144207   6.459   3.086   7.843  0.6268  0.0557  2.7569
  219MOL   C17244208   6.579   3.174   7.686  0.4566  0.7230  0.1785
  219MOL   C17344209   6.509   3.306   7.678 -0.1170 -0.7075 -0.2964
  219MOL   C17444210   6.413   3.329   7.583 -0.9984  0.2503 -0.6809
  219MOL   C17544211   6.327   3.451   7.565 -0.0978  0.8654 -0.1050
  219MOL   H17644212   6.682   3.206   7.672 -0.1113  2.2500 -0.6965
  219MOL   H17744213   6.549   3.114   7.600 -0.6329 -1.0113  1.7243
  219MOL   H17844214   6.540   3.375   7.756  2.1263 -3.4439  1.3272
  219MOL   H17944215   6.402   3.260   7.501  3.3091  0.2472 -1.3824
  219MOL   H18044216   6.231   3.432   7.613  0.2170 -0.0067  0.1908
  219MOL   H18144217   6.307   3.465   7.458  1.2652 -0.0984 -0.5129
  219MOL   C18244218   6.386   3.576   7.624  0.8093 -0.3871 -0.0176
  219MOL   C18344219   6.515   3.618   7.554 -0.1685 -0.1411 -0.1216
  219MOL   C18444220   6.626   3.638   7.625 -0.0421 -0.1213  0.4695
  219MOL   C18544221   6.770   3.673   7.590  0.0771  0.0469  0.1221
  219MOL   H18644222   6.325   3.667   7.616  0.9173 -0.3627 -0.5626
  219MOL   H18744223   6.393   3.557   7.731 -0.6555 -1.1488 -0.0423
  219MOL   H18844224   6.532   3.628   7.447  2.3177  4.1849  0.5581
  219MOL   H18944225   6.620   3.627   7.732  3.7947 -0.3989  0.7129
  219MOL   H19044226   6.798   3.763   7.645 -1.3886  1.5039 -1.4516
  219MOL   H19144227   6.783   3.687   7.483  2.3785 -0.2697  0.3436
  219MOL   C19244228   6.861   3.564   7.640  0.0506  0.7195 -0.4688
  219MOL   C19344229   7.009   3.609   7.659  0.7656 -0.3449 -0.3793
  219MOL   C19444230   7.108   3.546   7.595  0.2008 -0.1507 -0.2249
  219MOL   C19544231   7.257   3.567   7.625 -0.3135 -0.0707  0.1791
  219MOL   H19644232   6.831   3.519   7.735  0.3333 -0.0876 -0.7532
  219MOL   H19744233   6.858   3.478   7.572  0.0755  0.7734 -0.5374
  219MOL   H19844234   7.038   3.684   7.731 -3.2300  0.3923  0.5598
  219MOL   H19944235   7.086   3.452   7.546  1.5909 -1.3628  1.4357
  219MOL   H20044236   7.272   3.667   7.665 -0.3160 -0.3703  0.9449
  219MOL   H20144237   7.319   3.551   7.537  0.1849 -0.6885  0.6353
  219MOL   H20244238   7.293   3.492   7.696 -0.7295  1.2815  1.8718
  220MOL     C144239   0.762   6.333   1.214 -0.2797 -0.5518  0.5700
  220MOL     C244240   0.778   6.392   1.353 -0.1554 -0.5210  0.5854
  220MOL     C344241   0.795   6.315   1.461  0.6549 -0.1941 -0.3302
  220MOL     C444242   0.824   6.368   1.600  0.4096  0.2776 -0.7482
  220MOL     H544243   0.727   6.230   1.213  0.0325 -0.6506 -1.1500
  220MOL     H644244   0.838   6.353   1.139  1.0932  0.1880  2.1148
  220MOL     H744245   0.778   6.499   1.368  2.6072 -0.4956  0.6297
  220MOL     H844246   0.794   6.208   1.451 -0.6449 -0.1826 -0.3753
  220MOL     H944247   0.747   6.333   1.669  0.9603 -1.0698 -0.8122
  220MOL    H1044248   0.819   6.477   1.606  3.5962  0.3947  1.4760
  220MOL    H1144249   0.674   6.377   1.169  1.3044  0.7531 -1.3512
  220MOL    C1244250   0.958   6.322   1.632  0.4554  0.1114  0.1436
  220MOL    C1344251   0.994   6.372   1.769 -0.3613 -0.3709  0.1653
  220MOL    C1444252   1.074   6.309   1.857 -0.0250 -0.5803  0.3060
  220MOL    C1544253   1.108   6.369   1.991  0.1660  0.2330 -0.2741
  220MOL    H1644254   0.976   6.217   1.613 -0.2489  0.2969 -1.6491
  220MOL    H1744255   1.026   6.369   1.560 -0.0984 -1.2144 -1.2760
  220MOL    H1844256   0.970   6.475   1.791  0.3384 -0.2614  0.4601
  220MOL    H1944257   1.098   6.204   1.851  1.9283 -0.1228 -0.0631
  220MOL    H2044258   1.113   6.477   2.001 -1.0007  0.2812 -0.0927
  220MOL    H2144259   1.201   6.328   2.030 -0.4806 -2.4601 -1.4079
  220MOL    C2244260   1.000   6.334   2.090 -0.1086 -0.0110 -0.7370
  220MOL    C2344261   1.035   6.357   2.243 -0.5698 -0.0203  0.4320
  220MOL    C2444262   0.986   6.276   2.339  0.1181  0.2185 -0.0732
  220MOL    C2544263   1.007   6.310   2.485 -0.5277 -0.5703  1.0264
  220MOL    H2644264   0.916   6.402   2.075  0.3761 -0.0580 -3.9463
  220MOL    H2744265   0.965   6.231   2.075  1.3425 -0.7933  0.9992
  220MOL    H2844266   1.101   6.438   2.268  1.0050 -1.5579  1.4070
  220MOL    H2944267   0.918   6.193   2.329  0.0123  0.2065  0.6713
  220MOL    H3044268   0.902   6.321   2.511 -0.3479  0.6387  1.2449
  220MOL    H3144269   1.045   6.412   2.485 -2.2983  0.1111  1.0402
  220MOL    C3244270   1.087   6.208   2.562  0.1059  0.0878 -0.2228
  220MOL    C3344271   1.032   6.058   2.570 -0.1338  0.3590 -0.0304
  220MOL    C3444272   0.944   6.025   2.668 -0.5117 -0.1389 -0.2123
  220MOL    C3544273   0.872   5.895   2.665  0.0818 -0.3195  0.7329
  220MOL    H3644274   1.187   6.214   2.519 -0.1371  1.8783 -0.5843
  220MOL    H3744275   1.106   6.253   2.659  2.0120 -4.0274  1.4205
  220MOL    H3844276   1.044   5.990   2.487  0.8251  0.0023  0.3889
  220MOL    H3944277   0.917   6.102   2.739 -0.1270  2.4731 -2.8137
  220MOL    H4044278   0.871   5.851   2.764  3.6229  1.1295  1.4795
  220MOL    H4144279   0.915   5.822   2.596  1.0845  0.1365  0.8617
  220MOL    C4244280   0.721   5.925   2.645 -0.8213 -0.2252  0.2004
  220MOL    C4344281   0.685   5.959   2.509  0.3531 -0.1350 -0.3748
  220MOL    C4444282   0.611   6.066   2.475  0.0105  0.4533 -0.2523
  220MOL    C4544283   0.555   6.095   2.338 -0.2179  0.1687  0.9232
  220MOL    H4644284   0.666   5.832   2.660  2.3858 -2.5783 -1.8662
  220MOL    H4744285   0.680   6.003   2.709  1.6610  1.1639  0.1840
  220MOL    H4844286   0.720   5.888   2.436 -1.3246 -2.2706  0.8310
  220MOL    H4944287   0.579   6.135   2.551  2.0827  1.7757 -0.5220
  220MOL    H5044288   0.451   6.064   2.331 -0.2251  0.4684 -0.4280
  220MOL    H5144289   0.610   6.029   2.271 -1.1359  1.0546 -0.7044
  220MOL    C5244290   0.568   6.244   2.295 -0.3213  0.4549 -0.0593
  220MOL    C5344291   0.492   6.263   2.167  0.5664 -0.7137  0.3161
  220MOL    C5444292   0.544   6.321   2.057  0.3713 -0.4391 -0.1632
  220MOL    C5544293   0.456   6.344   1.932 -0.0947 -0.1521  0.1838
  220MOL    H5644294   0.530   6.311   2.372 -0.8839 -0.3809  0.3897
  220MOL    H5744295   0.674   6.263   2.275 -0.5811 -1.2487 -3.4825
  220MOL    H5844296   0.394   6.220   2.151  1.0553 -2.3642  1.6538
  220MOL    H5944297   0.644   6.361   2.053  0.3660 -0.3845  0.2080
  220MOL    H6044298   0.355   6.354   1.973 -0.1352  0.4856 -0.0719
  220MOL    H6144299   0.466   6.253   1.873 -1.1241  1.2407 -2.1800
  220MOL    C6244300   0.491   6.469   1.853 -0.4395  0.5057 -0.0503
  220MOL    C6344301   0.402   6.486   1.735 -0.6184  0.1406  0.9547
  220MOL    C6444302   0.450   6.514   1.614 -0.0094  0.5631 -0.2550
  220MOL    C6544303   0.356   6.528   1.491  0.2729 -0.2666 -0.5500
  220MOL    H6644304   0.460   6.551   1.919 -2.8242 -0.6604  0.3529
  220MOL    H6744305   0.595   6.488   1.828 -0.9487 -0.0183 -2.6908
  220MOL    H6844306   0.296   6.472   1.751 -0.6267  0.0194  0.8065
  220MOL    H6944307   0.556   6.526   1.596  0.1403 -1.5622 -0.9216
  220MOL    H7044308   0.259   6.569   1.521  1.7277  4.3144 -1.7534
  220MOL    H7144309   0.321   6.431   1.457 -2.9118  0.1081  1.4387
  220MOL    C7244310   0.430   6.611   1.381  0.2426 -0.1128  0.5391
  220MOL    C7344311   0.349   6.644   1.254  0.7689 -0.7777  0.7823
  220MOL    C7444312   0.327   6.771   1.221 -0.0351  0.4749 -0.5335
  220MOL    C7544313   0.276   6.820   1.089 -0.2278  0.2119 -0.4456
  220MOL    H7644314   0.460   6.704   1.429  0.8103  0.2364 -0.4717
  220MOL    H7744315   0.520   6.555   1.354 -0.5102 -0.2059 -1.8114
  220MOL    H7844316   0.303   6.568   1.194 -0.3263  0.6007 -0.1735
  220MOL    H7944317   0.368   6.843   1.290 -1.4073  0.9716 -0.2084
  220MOL    H8044318   0.182   6.874   1.101 -0.6877  0.3994 -4.4455
  220MOL    H8144319   0.268   6.739   1.017 -0.5128  0.4271 -0.6537
  220MOL    C8244320   0.378   6.915   1.027  0.5263 -0.6558  0.0118
  220MOL    C8344321   0.315   6.996   0.913 -0.4272  0.6105 -0.6276
  220MOL    C8444322   0.318   6.958   0.787 -0.2689  0.0392 -0.3282
  220MOL    C8544323   0.265   7.048   0.673  0.3253  0.0999 -0.0062
  220MOL    H8644324   0.392   6.990   1.105 -2.7688 -0.1322  0.1680
  220MOL    H8744325   0.476   6.877   1.001  0.7419  0.4493 -0.8368
  220MOL    H8844326   0.258   7.084   0.938  0.0004  0.5387  0.6473
  220MOL    H8944327   0.371   6.872   0.749 -0.5364  0.1477 -0.9610
  220MOL    H9044328   0.223   7.143   0.704  2.3915  0.8610  0.5416
  220MOL    H9144329   0.185   6.998   0.618  0.9779  0.9783 -1.7876
  220MOL    C9244330   0.363   7.060   0.557  0.6076 -0.2005 -0.5379
  220MOL    C9344331   0.308   7.105   0.421  0.0996 -0.1037  0.4237
  220MOL    C9444332   0.185   7.163   0.396 -0.0964  0.2190 -0.5014
  220MOL    C9544333   0.150   7.227   0.260 -0.4975  0.2410  0.0160
  220MOL    H9644334   0.446   7.124   0.586  0.7192 -0.9084  0.7382
  220MOL    H9744335   0.417   6.967   0.539  1.7749  0.6096 -1.2976
  220MOL    H9844336   0.377   7.088   0.340 -2.8838  0.6622 -2.3760
  220MOL    H9944337   0.103   7.181   0.464  1.3293  1.6254  0.9022
  220MOL   H10044338   0.233   7.216   0.190 -2.4084  1.0471 -2.4487
  220MOL   H10144339   0.130   7.331   0.288 -1.0231  0.4262 -1.0421
  220MOL   C10244340   0.026   7.171   0.189  0.3212 -0.0166 -0.5191
  220MOL   C10344341   7.959   7.251   0.066  0.8356  0.9181 -0.8747
  220MOL   C10444342   0.062   7.253   7.936 -0.9365  0.0591 -0.1801
  220MOL   C10544343   0.035   7.328   7.807 -0.1580  0.2230  0.4473
  220MOL   H10644344   0.040   7.067   0.157 -1.8441 -0.1308 -1.1715
  220MOL   H10744345   7.916   7.163   0.255  0.6396  0.9633  0.0186
  220MOL   H10844346   7.857   7.286   0.065  0.3958 -0.3487 -2.1217
  220MOL   H10944347   0.156   7.199   7.938 -0.2505  1.2644  0.4523
  220MOL   H11044348   0.121   7.389   7.779  0.6898 -0.1480  2.1388
  220MOL   H11144349   7.932   7.401   7.819 -0.8503 -0.7733  2.0900
  220MOL   C11244350   0.007   7.216   7.700  0.0505  0.6828  0.1719
  220MOL   C11344351   0.132   7.156   7.637 -0.0404  0.8292 -0.4692
  220MOL   C11444352   0.170   7.028   7.672  0.6752  0.0990 -0.4310
  220MOL   C11544353   0.286   6.958   7.605  0.3632  0.5390 -0.0240
  220MOL   H11644354   7.913   7.146   7.743 -0.5707  1.5112  0.5087
  220MOL   H11744355   7.925   7.252   7.615  2.4879  0.3838 -1.7194
  220MOL   H11844356   0.195   7.213   7.570  0.1704  1.1435 -0.0064
  220MOL   H11944357   0.113   6.975   7.747 -0.4809 -0.9841 -2.0557
  220MOL   H12044358   0.370   6.965   7.673  1.7022 -0.1179 -1.5659
  220MOL   H12144359   0.315   7.016   7.517 -2.3234  1.3972 -0.3811
  220MOL   C12244360   0.262   6.810   7.558  0.0676  0.4257  0.2342
  220MOL   C12344361   0.392   6.751   7.495  0.1459 -0.1718 -0.5962
  220MOL   C12444362   0.427   6.623   7.506 -0.2788 -0.5282  0.6213
  220MOL   C12544363   0.564   6.566   7.461 -0.6016 -0.1169 -0.1351
  220MOL   H12644364   0.232   6.748   7.643 -1.5487 -0.6252 -1.0749
  220MOL   H12744365   0.183   6.793   7.486 -1.0813 -1.3861  1.8853
  220MOL   H12844366   0.459   6.807   7.432  1.9926  0.6597  2.0227
  220MOL   H12944367   0.364   6.559   7.565 -0.7645 -0.1704  0.4864
  220MOL   H13044368   0.627   6.554   7.549  0.8021 -0.8063 -1.2124
  220MOL   H13144369   0.612   6.636   7.393  1.1858 -2.4431 -1.3708
  220MOL   C13244370   0.557   6.434   7.388  0.0810  0.5898  0.4346
  220MOL   C13344371   0.691   6.394   7.350 -0.3836 -0.4839 -0.0267
  220MOL   C13444372   0.755   6.296   7.409 -0.4751 -0.6028  0.3876
  220MOL   C13544373   0.892   6.251   7.376 -0.6820  0.1453  0.0295
  220MOL   H13644374   0.509   6.363   7.456 -2.2939 -0.3114 -2.0857
  220MOL   H13744375   0.486   6.439   7.306  0.8424 -0.8360 -0.3398
  220MOL   H13844376   0.744   6.444   7.271 -1.1680 -0.1976 -0.3752
  220MOL   H13944377   0.708   6.242   7.490  0.2902  1.6901  2.4509
  220MOL   H14044378   0.953   6.285   7.460  0.9991 -3.6170  0.4406
  220MOL   H14144379   0.923   6.304   7.286 -2.9162  3.9811  1.3756
  220MOL   C14244380   0.901   6.101   7.339 -0.3198 -0.0461 -0.1098
  220MOL   C14344381   1.029   6.057   7.282 -0.4086  0.0053  0.0384
  220MOL   C14444382   1.118   5.984   7.342  0.4273  0.8291 -0.5305
  220MOL   C14544383   1.246   5.930   7.294  0.5040  0.4364 -0.0721
  220MOL   H14644384   0.860   6.035   7.415 -0.8958 -1.0365 -1.2510
  220MOL   H14744385   0.837   6.071   7.255  2.1983  0.9827 -2.4911
  220MOL   H14844386   1.044   6.087   7.179 -0.5262 -3.0961 -0.9447
  220MOL   H14944387   1.095   5.968   7.446  2.3072  0.1856 -0.1862
  220MOL   H15044388   1.322   5.929   7.372  0.4524  1.5276  0.0015
  220MOL   H15144389   1.283   5.986   7.208 -0.9652 -0.0306 -1.0372
  220MOL   C15244390   1.231   5.775   7.267  0.2578 -0.4373  0.6685
  220MOL   C15344391   1.365   5.700   7.255 -0.1068  0.1455 -0.9330
  220MOL   C15444392   1.416   5.656   7.147 -0.2627  0.9498  0.6928
  220MOL   C15544393   1.557   5.606   7.135  0.7578  0.0820 -0.2981
  220MOL   H15644394   1.185   5.739   7.359 -2.6357 -1.2178 -1.0212
  220MOL   H15744395   1.157   5.745   7.192  1.2650 -1.4090  0.0531
  220MOL   H15844396   1.431   5.695   7.340  0.9279  1.4189 -1.6461
  220MOL   H15944397   1.369   5.674   7.051  3.3341 -1.2466 -1.5975
  220MOL   H16044398   1.589   5.565   7.231  0.3695  0.2374 -0.1003
  220MOL   H16144399   1.622   5.692   7.120  1.2720 -0.3322 -0.4903
  220MOL   C16244400   1.581   5.505   7.026  0.5367  0.0466  0.2403
  220MOL   C16344401   1.731   5.503   6.983 -1.0419  0.1362 -0.2473
  220MOL   C16444402   1.804   5.391   6.983  0.2040 -0.3072 -0.6701
  220MOL   C16544403   1.948   5.387   6.938  0.0013  0.0894 -0.5842
  220MOL   H16644404   1.559   5.406   7.065  0.1225 -0.9575 -2.4294
  220MOL   H16744405   1.517   5.522   6.940 -2.4896 -1.8602  2.0276
  220MOL   H16844406   1.773   5.596   6.950  1.4440 -0.7342  0.3682
  220MOL   H16944407   1.760   5.296   7.009  0.1000 -0.6050 -1.9305
  220MOL   H17044408   1.982   5.488   6.917  0.8117 -0.0201  0.1696
  220MOL   H17144409   1.959   5.339   6.841  0.5831  0.8011 -0.8740
  220MOL   C17244410   2.033   5.312   7.035  0.6558 -0.6717  0.3658
  220MOL   C17344411   2.183   5.322   7.007 -0.1006  0.6722 -0.2397
  220MOL   C17444412   2.268   5.219   6.993  0.4555  0.7809  0.5235
  220MOL   C17544413   2.402   5.227   6.928 -0.3897 -0.2725  0.2058
  220MOL   H17644414   2.016   5.361   7.131 -1.1735  1.0810 -0.8209
  220MOL   H17744415   2.003   5.208   7.046 -0.5816 -0.4758 -1.0741
  220MOL   H17844416   2.225   5.420   6.987 -0.1441  0.1531 -3.0794
  220MOL   H17944417   2.220   5.122   7.003  0.7221  0.7159  1.1839
  220MOL   H18044418   2.481   5.175   6.981 -0.7784 -0.4604  0.6039
  220MOL   H18144419   2.432   5.332   6.919  1.5491 -1.0232 -3.0581
  220MOL   C18244420   2.392   5.177   6.781 -0.6598  0.1818  0.9098
  220MOL   C18344421   2.508   5.221   6.694 -0.2432 -0.1439  0.1724
  220MOL   C18444422   2.625   5.155   6.667  1.0021 -0.1163 -0.2185
  220MOL   C18544423   2.743   5.201   6.580  0.5107 -0.3231  0.1866
  220MOL   H18644424   2.400   5.068   6.787  2.4628  0.2269 -1.1053
  220MOL   H18744425   2.293   5.196   6.739 -0.8298 -1.3139  0.5721
  220MOL   H18844426   2.509   5.322   6.656 -0.6726  0.3583  1.4690
  220MOL   H18944427   2.615   5.050   6.692 -0.3442 -0.4842 -2.2124
  220MOL   H19044428   2.837   5.190   6.635 -0.2384 -0.6333  1.4149
  220MOL   H19144429   2.725   5.307   6.562  1.2867 -0.4591 -1.4562
  220MOL   C19244430   2.760   5.114   6.453  0.9012 -0.4892  0.5171
  220MOL   C19344431   2.858   5.167   6.349 -0.7059 -0.1901  0.1997
  220MOL   C19444432   2.972   5.103   6.325 -0.3051 -0.0504  0.4680
  220MOL   C19544433   3.073   5.156   6.224  0.7325 -0.5119 -0.0898
  220MOL   H19644434   2.792   5.014   6.484  1.5675 -0.3509  0.2802
  220MOL   H19744435   2.665   5.088   6.405  0.4845 -2.5147  2.3510
  220MOL   H19844436   2.841   5.254   6.288  1.0413  0.3224  0.3925
  220MOL   H19944437   2.997   5.018   6.387 -0.1943  0.2880  0.8839
  220MOL   H20044438   3.102   5.074   6.159 -0.7908 -0.3037 -1.0656
  220MOL   H20144439   3.158   5.203   6.274  0.6285  1.1864 -1.4707
  220MOL   H20244440   3.019   5.228   6.163  1.1351  1.1259  1.4355
  221MOL     C144441   0.637   2.954   1.641  0.6259  0.1870  0.5279
  221MOL     C244442   0.717   2.884   1.534  0.3755 -0.1211  0.0036
  221MOL     C344443   0.688   2.894   1.402  0.2144 -0.5425 -0.2640
  221MOL     C444444   0.763   2.819   1.297  0.2990  0.4389  0.3729
  221MOL     H544445   0.567   3.030   1.607 -1.4518 -1.7360  0.3604
  221MOL     H644446   0.700   2.999   1.718 -0.3964  2.1468  0.2543
  221MOL     H744447   0.793   2.815   1.566 -1.1198 -1.8887 -0.1785
  221MOL     H844448   0.607   2.950   1.359  0.7238  1.3856  1.1956
  221MOL     H944449   0.840   2.759   1.344  1.3860  0.2554 -1.5697
  221MOL    H1044450   0.812   2.895   1.236  0.9009 -0.3010 -0.0756
  221MOL    H1144451   0.574   2.874   1.681  1.2507 -0.3614  0.4217
  221MOL    C1244452   0.675   2.727   1.222 -0.1872  0.2549 -0.1618
  221MOL    C1344453   0.751   2.632   1.132 -0.5278 -0.1915 -0.9131
  221MOL    C1444454   0.737   2.499   1.122 -0.2986 -0.1931 -0.2107
  221MOL    C1544455   0.814   2.402   1.038  0.6974 -0.2657  0.0090
  221MOL    H1644456   0.618   2.664   1.290  1.5396 -1.0153  0.1573
  221MOL    H1744457   0.603   2.780   1.160 -0.5840 -0.0338  0.0486
  221MOL    H1844458   0.832   2.677   1.076 -1.5093  0.0235 -2.1579
  221MOL    H1944459   0.663   2.451   1.185 -1.4679  1.8973  0.0620
  221MOL    H2044460   0.892   2.452   0.980 -1.7246  1.8231 -1.5129
  221MOL    H2144461   0.748   2.345   0.973  1.4909 -1.0080 -0.1536
  221MOL    C2244462   0.887   2.309   1.137  0.3790 -0.9466  0.5180
  221MOL    C2344463   0.968   2.204   1.059 -0.1933 -0.3668 -0.1779
  221MOL    C2444464   1.103   2.197   1.049  0.4127  0.0737 -0.5188
  221MOL    C2544465   1.179   2.098   0.959 -0.1701 -0.2306  0.9779
  221MOL    H2644466   0.938   2.366   1.215 -2.6072  2.0070  0.4445
  221MOL    H2744467   0.813   2.251   1.192 -1.0343  0.2306 -0.1061
  221MOL    H2844468   0.912   2.126   1.010  1.2081 -1.3068 -0.3122
  221MOL    H2944469   1.165   2.272   1.097  0.1202  0.4189 -0.6813
  221MOL    H3044470   1.226   2.145   0.873  1.7702 -1.3487  1.4161
  221MOL    H3144471   1.101   2.026   0.935  1.4044 -2.3413  2.0849
  221MOL    C3244472   1.273   2.026   1.052  0.6019 -0.2319 -0.3516
  221MOL    C3344473   1.330   1.905   0.986 -0.0940  0.0914  0.6473
  221MOL    C3444474   1.460   1.881   0.969  0.5042  0.7296 -0.4245
  221MOL    C3544475   1.512   1.745   0.914 -0.1158  0.6906 -0.1787
  221MOL    H3644476   1.348   2.098   1.084 -1.4990  1.2288  1.3845
  221MOL    H3744477   1.228   1.995   1.146  0.3965 -2.9309 -1.2860
  221MOL    H3844478   1.253   1.835   0.956  0.9649 -0.9513  0.3055
  221MOL    H3944479   1.537   1.949   1.003  0.2756  1.2058 -0.8478
  221MOL    H4044480   1.424   1.681   0.908 -0.3905  0.7547  2.5312
  221MOL    H4144481   1.568   1.700   0.996  0.7352  1.0553 -0.5530
  221MOL    C4244482   1.599   1.755   0.784 -0.3539 -0.5624 -0.1176
  221MOL    C4344483   1.635   1.607   0.740  0.0275  0.1301  0.7464
  221MOL    C4444484   1.614   1.563   0.613  0.1737 -0.0731 -0.0012
  221MOL    C4544485   1.632   1.420   0.564 -0.1722  0.0664  0.6815
  221MOL    H4644486   1.544   1.803   0.704 -0.3764 -0.4068 -0.0092
  221MOL    H4744487   1.691   1.812   0.801  0.4194 -1.3466 -1.6224
  221MOL    H4844488   1.669   1.541   0.818 -0.2679  0.5104  1.2050
  221MOL    H4944489   1.572   1.636   0.545  0.6195  2.8232  2.7116
  221MOL    H5044490   1.709   1.415   0.487  0.2477  3.0281  0.8551
  221MOL    H5144491   1.541   1.402   0.508  0.6284  1.3685 -1.0657
  221MOL    C5244492   1.665   1.305   0.671 -0.0186 -0.0860  0.3893
  221MOL    C5344493   1.564   1.291   0.785 -0.5474 -0.2641 -0.4444
  221MOL    C5444494   1.598   1.224   0.897 -0.5134  0.1390  0.6645
  221MOL    C5544495   1.502   1.208   1.012 -0.1816  0.8114 -0.1625
  221MOL    H5644496   1.678   1.204   0.632 -1.5760 -1.1449  2.5451
  221MOL    H5744497   1.770   1.310   0.700  0.0018 -1.0838  0.4967
  221MOL    H5844498   1.468   1.341   0.789 -1.0704 -1.1471 -1.6660
  221MOL    H5944499   1.696   1.181   0.911 -0.7708 -1.6750 -2.5554
  221MOL    H6044500   1.476   1.103   1.024  3.0627  0.0892  1.1061
  221MOL    H6144501   1.408   1.257   0.990 -1.2027 -0.2271  1.7949
  221MOL    C6244502   1.566   1.249   1.147 -0.1861  0.6447  0.1759
  221MOL    C6344503   1.505   1.181   1.266 -0.2155 -0.0457  1.1802
  221MOL    C6444504   1.394   1.219   1.332 -0.7694  0.0944  0.0900
  221MOL    C6544505   1.329   1.160   1.456  0.3938 -0.2641  0.0334
  221MOL    H6644506   1.672   1.225   1.158 -0.6425 -1.1860  0.8100
  221MOL    H6744507   1.561   1.356   1.167  2.3605  0.7096  0.6196
  221MOL    H6844508   1.547   1.093   1.312 -2.5218 -1.0696  1.3990
  221MOL    H6944509   1.351   1.307   1.289 -1.4897 -0.2130  0.1736
  221MOL    H7044510   1.384   1.071   1.487  2.0916  0.5570 -0.5418
  221MOL    H7144511   1.227   1.131   1.428  0.1892 -0.1675  0.6614
  221MOL    C7244512   1.320   1.260   1.574  0.2989 -0.6546  0.9911
  221MOL    C7344513   1.200   1.248   1.673 -1.0729  0.3430 -0.8071
  221MOL    C7444514   1.097   1.331   1.666 -0.6703 -0.2205 -0.7285
  221MOL    C7544515   0.982   1.314   1.763 -0.4528 -0.1094  0.1601
  221MOL    H7644516   1.407   1.276   1.637 -0.8608  0.1683  2.4118
  221MOL    H7744517   1.314   1.362   1.535 -0.6176 -0.8032  0.7341
  221MOL    H7844518   1.198   1.178   1.755 -1.7929  1.1861 -0.0856
  221MOL    H7944519   1.086   1.386   1.574  0.1422  1.7339  0.3203
  221MOL    H8044520   0.916   1.393   1.729 -1.8451 -1.3716 -0.1164
  221MOL    H8144521   1.020   1.334   1.863 -0.2113  0.0870  0.0310
  221MOL    C8244522   0.918   1.173   1.724  0.2279 -0.6504 -0.3596
  221MOL    C8344523   0.790   1.136   1.793 -0.0179 -1.0638  1.0809
  221MOL    C8444524   0.766   1.021   1.859 -0.0754  0.0800 -0.7385
  221MOL    C8544525   0.636   0.981   1.928  0.4329 -0.1176  0.0402
  221MOL    H8644526   0.890   1.174   1.618 -0.6301 -1.9489 -0.1624
  221MOL    H8744527   0.984   1.087   1.739  0.0397 -0.6294  0.5675
  221MOL    H8844528   0.717   1.213   1.774 -0.6367 -1.7530  0.6382
  221MOL    H8944529   0.850   0.954   1.872 -0.8131 -0.9477 -1.1933
  221MOL    H9044530   0.624   0.875   1.904 -0.1173  0.5477 -2.9186
  221MOL    H9144531   0.562   1.051   1.891  1.6260  0.2836 -1.6588
  221MOL    C9244532   0.634   0.992   2.080 -0.7090  0.0251  0.1612
  221MOL    C9344533   0.731   0.893   2.138  0.2966 -0.2458 -0.9323
  221MOL    C9444534   0.819   0.927   2.236  0.2225 -0.0463 -0.0946
  221MOL    C9544535   0.923   0.831   2.302  0.5412  0.4168 -0.3781
  221MOL    H9644536   0.660   1.090   2.120 -3.4501  0.4035  1.1180
  221MOL    H9744537   0.542   0.963   2.130  0.5935  1.3636  3.4569
  221MOL    H9844538   0.735   0.790   2.104 -0.2427 -0.3968 -0.5337
  221MOL    H9944539   0.811   1.023   2.286 -2.9525 -0.0647 -0.5163
  221MOL   H10044540   0.898   0.796   2.402  0.6425 -1.5471 -1.0114
  221MOL   H10144541   1.012   0.892   2.320  0.8557 -0.0523 -0.3400
  221MOL   C10244542   0.963   0.704   2.216 -0.5037  0.0830 -0.1239
  221MOL   C10344543   1.050   0.607   2.288 -0.0865 -0.4421  0.0754
  221MOL   C10444544   1.169   0.555   2.249  0.0876 -0.2988  0.5742
  221MOL   C10544545   1.255   0.452   2.333  0.0546  0.5214 -0.1259
  221MOL   H10644546   0.876   0.651   2.176 -1.0627  0.4909  0.5338
  221MOL   H10744547   1.029   0.735   2.135  0.8623 -1.0599  0.5352
  221MOL   H10844548   1.016   0.577   2.386  5.1974  4.7440  3.8480
  221MOL   H10944549   1.207   0.580   2.151 -0.8856 -1.0347 -0.0052
  221MOL   H11044550   1.360   0.452   2.305  0.4135  0.7918  1.1552
  221MOL   H11144551   1.207   0.362   2.295  0.4510 -0.3806  1.4697
  221MOL   C11244552   1.250   0.458   2.482  0.0501 -0.3760  0.6333
  221MOL   C11344553   1.311   0.330   2.544 -0.5558 -0.2647  0.0834
  221MOL   C11444554   1.405   0.332   2.633  0.4039 -0.1692  0.2875
  221MOL   C11544555   1.468   0.215   2.712  1.4321  0.4150 -0.7609
  221MOL   H11644556   1.295   0.548   2.525 -0.7760  1.4943 -2.2471
  221MOL   H11744557   1.144   0.460   2.507  0.0493  1.6377  0.5527
  221MOL   H11844558   1.261   0.239   2.517 -4.0636  1.3123  0.9440
  221MOL   H11944559   1.452   0.426   2.657 -3.0670  1.2351  1.9514
  221MOL   H12044560   1.430   0.131   2.653  0.3381  0.8198 -0.6352
  221MOL   H12144561   1.424   0.212   2.811  0.5578  1.5857 -1.1073
  221MOL   C12244562   1.624   0.221   2.719 -0.1103 -0.2356 -0.7899
  221MOL   C12344563   1.705   0.157   2.607  0.4749  0.2703 -1.0739
  221MOL   C12444564   1.799   0.226   2.539 -0.6011 -0.0623 -0.2471
  221MOL   C12544565   1.879   0.179   2.420 -0.4166 -0.4114 -0.2259
  221MOL   H12644566   1.635   0.329   2.728 -1.3609  0.2157 -4.0530
  221MOL   H12744567   1.653   0.178   2.815 -0.8348 -0.7076 -0.7731
  221MOL   H12844568   1.678   0.058   2.573  1.9443  0.4138 -2.7130
  221MOL   H12944569   1.810   0.326   2.578 -1.5901 -0.3759  0.8673
  221MOL   H13044570   1.838   0.225   2.330  1.4233 -3.4229 -2.7109
  221MOL   H13144571   1.861   0.072   2.418  0.4613 -0.6044  1.3275
  221MOL   C13244572   2.030   0.203   2.414  0.8497 -0.7878  0.3369
  221MOL   C13344573   2.064   0.349   2.411  0.1919  0.2715  0.2391
  221MOL   C13444574   2.183   0.394   2.468 -0.2084 -0.2625 -0.0895
  221MOL   C13544575   2.229   0.531   2.435  0.2006  0.0179  0.1266
  221MOL   H13644576   2.078   0.141   2.490  0.1726  1.2563  2.5155
  221MOL   H13744577   2.071   0.174   2.318  1.0378  0.1539  0.1243
  221MOL   H13844578   1.994   0.412   2.358 -2.7178 -0.1669  3.4088
  221MOL   H13944579   2.246   0.332   2.531  0.0508 -0.2241 -0.3110
  221MOL   H14044580   2.199   0.592   2.520  2.4407  3.5170 -1.5125
  221MOL   H14144581   2.185   0.584   2.351 -0.4617  1.0278  1.0956
  221MOL   C14244582   2.384   0.531   2.412  0.2580 -0.0275  0.0280
  221MOL   C14344583   2.433   0.670   2.389 -0.2489 -0.5540 -0.1102
  221MOL   C14444584   2.506   0.701   2.278 -0.1655  0.1464 -0.8291
  221MOL   C14544585   2.561   0.841   2.242  0.2747  0.3500 -0.0961
  221MOL   H14644586   2.432   0.483   2.497  0.3342  0.0703  0.0407
  221MOL   H14744587   2.410   0.474   2.323 -2.5518 -0.0499 -0.8329
  221MOL   H14844588   2.406   0.756   2.450 -1.1782 -0.7329 -0.2619
  221MOL   H14944589   2.558   0.627   2.218 -0.4967 -1.6878  1.0838
  221MOL   H15044590   2.664   0.827   2.211  0.4601  1.1404  0.1549
  221MOL   H15144591   2.563   0.914   2.323 -4.0540  2.5178 -1.7771
  221MOL   C15244592   2.486   0.910   2.128 -0.4729  0.1718 -0.4394
  221MOL   C15344593   2.546   1.044   2.090  0.0460 -0.2310 -0.1362
  221MOL   C15444594   2.488   1.161   2.130  0.4719 -0.8536  0.4133
  221MOL   C15544595   2.541   1.303   2.103  0.1686  0.5733  0.3800
  221MOL   H15644596   2.470   0.852   2.037 -1.8583  0.2442 -0.2616
  221MOL   H15744597   2.384   0.923   2.166  0.4100  1.4363  1.5448
  221MOL   H15844598   2.631   1.048   2.023  1.1709  0.0073  1.2732
  221MOL   H15944599   2.405   1.149   2.197  1.0158 -1.1737  1.0388
  221MOL   H16044600   2.466   1.376   2.072 -1.1887 -1.0801 -0.3839
  221MOL   H16144601   2.605   1.306   2.015 -2.8419  2.0133 -1.8704
  221MOL   C16244602   2.617   1.365   2.222 -0.0618  0.0897  0.5282
  221MOL   C16344603   2.639   1.522   2.226  0.3008 -0.1274  0.4443
  221MOL   C16444604   2.757   1.586   2.221  0.2537 -0.4179  0.1875
  221MOL   C16544605   2.776   1.738   2.252  0.0538  0.1660  0.0990
  221MOL   H16644606   2.567   1.342   2.316 -0.4333 -0.9046  0.0950
  221MOL   H16744607   2.715   1.318   2.231  1.9485  4.5258  4.0045
  221MOL   H16844608   2.543   1.569   2.237  0.1336 -0.4685  0.4457
  221MOL   H16944609   2.849   1.528   2.215  0.3944 -0.2919  1.0269
  221MOL   H17044610   2.841   1.755   2.338  0.2523  0.9189 -0.1934
  221MOL   H17144611   2.677   1.781   2.264 -0.6362 -1.2819 -0.2922
  221MOL   C17244612   2.845   1.809   2.132  0.1654  0.8222  0.5101
  221MOL   C17344613   2.819   1.963   2.122 -0.2818 -0.1102  0.0204
  221MOL   C17444614   2.780   2.021   2.009 -0.3919  0.0168  0.2520
  221MOL   C17544615   2.772   2.176   1.999 -0.4531 -0.4769  0.4063
  221MOL   H17644616   2.952   1.796   2.142 -0.1997 -0.6746  2.8414
  221MOL   H17744617   2.811   1.761   2.041  2.6458 -1.1761  0.5953
  221MOL   H17844618   2.844   2.024   2.207  0.2491 -1.3761  0.7743
  221MOL   H17944619   2.762   1.965   1.918 -0.0043  3.2770 -1.9272
  221MOL   H18044620   2.805   2.223   2.092  1.0572  0.8254 -0.7648
  221MOL   H18144621   2.664   2.192   1.999 -0.7948 -2.0924 -3.5066
  221MOL   C18244622   2.844   2.252   1.888  0.8154 -0.4029 -0.4517
  221MOL   C18344623   2.990   2.222   1.882 -0.2440  0.2218  0.4696
  221MOL   C18444624   3.053   2.151   1.788 -0.3117 -0.1996 -0.0998
  221MOL   C18544625   3.199   2.110   1.791 -0.6815 -0.4370  0.2923
  221MOL   H18644626   2.806   2.222   1.791 -1.8777  0.7978  0.1912
  221MOL   H18744627   2.835   2.360   1.901  0.7837 -0.3465 -0.9523
  221MOL   H18844628   3.046   2.250   1.970 -0.5072 -0.7670  0.9618
  221MOL   H18944629   2.996   2.116   1.703  0.6417  1.0800 -1.2921
  221MOL   H19044630   3.211   2.003   1.809 -0.0298  0.1223  3.4773
  221MOL   H19144631   3.246   2.157   1.877 -0.9089 -1.7032  1.1232
  221MOL   C19244632   3.271   2.138   1.660 -0.4204  0.0908  0.3368
  221MOL   C19344633   3.414   2.092   1.661 -0.5459 -1.1271 -0.6259
  221MOL   C19444634   3.443   1.966   1.645  0.7346 -0.0496 -0.0843
  221MOL   C19544635   3.586   1.903   1.638 -0.1493 -0.4840 -0.6260
  221MOL   H19644636   3.225   2.089   1.575  0.3969  0.5287 -0.3665
  221MOL   H19744637   3.272   2.245   1.636  0.5458  0.0711  0.2749
  221MOL   H19844638   3.492   2.163   1.685  0.2212 -0.6639 -4.2361
  221MOL   H19944639   3.369   1.892   1.618  0.5502 -0.1150  0.5916
  221MOL   H20044640   3.661   1.981   1.651  1.2912 -1.3730 -3.2766
  221MOL   H20144641   3.615   1.866   1.540  1.1983  0.1829 -0.4827
  221MOL   H20244642   3.600   1.828   1.716  2.8578  0.3716 -0.3013
  222MOL     C144643   6.446   5.825   6.142  0.6272 -0.2484  0.0528
  222MOL     C244644   6.323   5.748   6.087  0.0996 -0.1018 -0.0358
  222MOL     C344645   6.281   5.747   5.956 -0.0638 -0.5050 -0.5473
  222MOL     C444646   6.162   5.672   5.901 -0.1441  0.4868  0.4020
  222MOL     H544647   6.499   5.848   6.050 -0.8913 -0.8037 -0.9887
  222MOL     H644648   6.523   5.775   6.201 -0.7327 -0.7365  1.4607
  222MOL     H744649   6.283   5.683   6.164 -0.1205  1.6493  1.3682
  222MOL     H844650   6.342   5.802   5.886 -1.2106  2.8588  0.9912
  222MOL     H944651   6.109   5.632   5.988  0.1141 -2.4784 -0.7361
  222MOL    H1044652   6.198   5.587   5.843 -0.4005  1.4226 -1.1666
  222MOL    H1144653   6.419   5.917   6.194  0.3915  0.0276 -0.5660
  222MOL    C1244654   6.054   5.757   5.843  0.0407  1.2684 -0.2395
  222MOL    C1344655   6.074   5.784   5.698 -0.4056  0.0058  0.0149
  222MOL    C1444656   5.979   5.798   5.610  0.8637 -0.3539  0.3417
  222MOL    C1544657   5.987   5.841   5.461 -0.2027  0.5860 -0.4095
  222MOL    H1644658   5.959   5.708   5.862  0.4133  1.1167  1.3895
  222MOL    H1744659   6.045   5.853   5.895  0.8083  0.8241  0.7506
  222MOL    H1844660   6.176   5.795   5.664  0.1941  0.8194  2.0304
  222MOL    H1944661   5.883   5.787   5.658  1.0479 -0.9763  0.5729
  222MOL    H2044662   5.909   5.917   5.451 -0.4331  0.4780  0.4760
  222MOL    H2144663   5.949   5.762   5.396  2.3580  0.4508 -1.7907
  222MOL    C2244664   6.127   5.887   5.411 -0.0932  0.4926 -0.0324
  222MOL    C2344665   6.116   5.907   5.264 -0.3466  0.5238 -0.2296
  222MOL    C2444666   6.133   5.802   5.179  1.0328  0.0318 -0.0953
  222MOL    C2544667   6.115   5.811   5.029 -0.1668  0.4248  0.1406
  222MOL    H2644668   6.166   5.979   5.455 -2.0622  1.6435 -0.6163
  222MOL    H2744669   6.195   5.804   5.431 -0.3974  0.1990 -0.2198
  222MOL    H2844670   6.088   6.004   5.228 -0.9176 -0.4794 -2.5592
  222MOL    H2944671   6.169   5.707   5.215  3.2886  0.3023 -1.5083
  222MOL    H3044672   6.061   5.895   4.987  0.0824  1.2649  1.4882
  222MOL    H3144673   6.052   5.727   4.999 -0.5732  1.1157 -0.9756
  222MOL    C3244674   6.243   5.784   4.946  0.2870 -0.1680  0.2402
  222MOL    C3344675   6.219   5.769   4.794  0.1439 -0.3896 -0.3365
  222MOL    C3444676   6.108   5.724   4.731  0.6258  0.2260  0.3523
  222MOL    C3544677   6.090   5.714   4.583  0.6367  0.1501  0.8719
  222MOL    H3644678   6.317   5.861   4.967  0.6079 -0.8141  1.5359
  222MOL    H3744679   6.280   5.690   4.987  0.1955  1.0129  3.1348
  222MOL    H3844680   6.297   5.804   4.728  0.5843  1.2384  1.0106
  222MOL    H3944681   6.029   5.693   4.797  1.0941 -0.5216  0.5620
  222MOL    H4044682   6.148   5.793   4.535  2.1405 -1.2782  0.3071
  222MOL    H4144683   5.987   5.735   4.555  0.8086 -0.5518 -0.2875
  222MOL    C4244684   6.150   5.580   4.524 -0.7355 -0.6085 -0.1463
  222MOL    C4344685   6.127   5.569   4.375  0.5042 -0.3668 -0.2087
  222MOL    C4444686   6.223   5.586   4.278  0.6678 -0.4139  0.1119
  222MOL    C4544687   6.206   5.583   4.122  0.0893  0.7349  0.2701
  222MOL    H4644688   6.255   5.578   4.553 -0.4123 -0.0315 -1.2551
  222MOL    H4744689   6.111   5.495   4.580  1.3718 -0.2709  1.9311
  222MOL    H4844690   6.027   5.548   4.340  0.9913 -0.6267 -1.4960
  222MOL    H4944691   6.322   5.594   4.319  1.1434 -1.5128 -0.8026
  222MOL    H5044692   6.254   5.676   4.090  0.3030  0.5529  0.0553
  222MOL    H5144693   6.105   5.587   4.081  0.2006 -0.5802 -0.1735
  222MOL    C5244694   6.281   5.471   4.044  0.4745 -0.2084  0.9389
  222MOL    C5344695   6.279   5.497   3.894 -0.3195  0.1973 -0.2229
  222MOL    C5444696   6.387   5.462   3.815 -0.2804  0.2904 -0.2900
  222MOL    C5544697   6.394   5.484   3.663  0.2268 -0.0671 -0.1200
  222MOL    H5644698   6.379   5.451   4.087  0.6887 -0.5632  0.2763
  222MOL    H5744699   6.223   5.379   4.052 -1.9014  1.1204 -0.3781
  222MOL    H5844700   6.188   5.542   3.859  0.0077 -0.0338 -1.3855
  222MOL    H5944701   6.465   5.402   3.858 -0.0739  1.4114  0.9312
  222MOL    H6044702   6.393   5.382   3.624 -0.0018  0.6617 -2.1073
  222MOL    H6144703   6.485   5.539   3.639  0.9346 -1.3874 -0.5512
  222MOL    C6244704   6.277   5.551   3.596 -0.3764  0.0293 -0.3117
  222MOL    C6344705   6.256   5.692   3.650  0.3679  0.0144 -0.3335
  222MOL    C6444706   6.346   5.761   3.718  0.0071  0.6028  0.6306
  222MOL    C6544707   6.324   5.898   3.774 -0.5792  0.2707 -0.3895
  222MOL    H6644708   6.301   5.561   3.490 -1.4725  0.1537 -0.5484
  222MOL    H6744709   6.182   5.503   3.617  0.6450 -0.9483  2.3261
  222MOL    H6844710   6.158   5.734   3.632  0.0064 -1.8944 -3.1199
  222MOL    H6944711   6.443   5.719   3.740  0.0569 -1.3897 -2.9169
  222MOL    H7044712   6.226   5.936   3.744 -0.6132 -2.3646 -3.8142
  222MOL    H7144713   6.398   5.968   3.734  0.8259 -0.5625  0.7082
  222MOL    C7244714   6.336   5.919   3.925 -0.4792 -0.2143  0.4887
  222MOL    C7344715   6.348   6.061   3.962  0.0734 -0.0475 -0.0047
  222MOL    C7444716   6.267   6.130   4.041  0.6997 -0.0362  0.2550
  222MOL    C7544717   6.269   6.275   4.083  0.9696 -0.0845 -0.3358
  222MOL    H7644718   6.256   5.872   3.982  0.6973  0.7299  3.0358
  222MOL    H7744719   6.436   5.879   3.946 -0.1709 -0.6608 -1.7042
  222MOL    H7844720   6.422   6.119   3.909  0.1690 -1.5673 -1.5648
  222MOL    H7944721   6.188   6.072   4.086  1.9915 -0.9343  1.4350
  222MOL    H8044722   6.318   6.343   4.014 -0.2358  0.6263 -0.5032
  222MOL    H8144723   6.313   6.297   4.181 -0.2718 -1.0623  0.4624
  222MOL    C8244724   6.129   6.324   4.093  0.1593 -0.4962  0.3271
  222MOL    C8344725   6.048   6.274   4.219 -0.3588  0.5919 -0.0164
  222MOL    C8444726   5.927   6.222   4.225 -0.5391 -0.3431  0.4894
  222MOL    C8544727   5.845   6.180   4.354  0.0608  0.2804 -0.0203
  222MOL    H8644728   6.126   6.433   4.098 -0.2798 -0.5009  0.2000
  222MOL    H8744729   6.085   6.291   3.998 -1.1816  1.1216  0.3514
  222MOL    H8844730   6.098   6.299   4.311 -0.6731 -0.3030  0.4035
  222MOL    H8944731   5.876   6.181   4.140  1.9783 -0.0475 -1.2323
  222MOL    H9044732   5.883   6.080   4.375  2.5918  1.3020  0.4581
  222MOL    H9144733   5.739   6.170   4.332 -0.3645  0.7253  1.7237
  222MOL    C9244734   5.864   6.271   4.480  0.1553 -0.3791  0.0720
  222MOL    C9344735   5.784   6.226   4.606  0.2985 -0.4983  0.4477
  222MOL    C9444736   5.681   6.293   4.663  0.1450 -0.8390 -0.4637
  222MOL    C9544737   5.591   6.252   4.776  0.0663 -0.0767 -0.2114
  222MOL    H9644738   5.971   6.263   4.501 -0.3384 -3.3509  1.9100
  222MOL    H9744739   5.852   6.373   4.444 -0.0700 -0.0847  0.9658
  222MOL    H9844740   5.823   6.132   4.643  0.1760 -0.0268  1.8009
  222MOL    H9944741   5.645   6.386   4.621  0.0212 -1.1704 -1.1071
  222MOL   H10044742   5.617   6.311   4.864  1.2266  1.1956 -1.3790
  222MOL   H10144743   5.606   6.145   4.787  2.6780  0.2336 -0.4567
  222MOL   C10244744   5.443   6.276   4.747  0.2388  0.0713 -0.1012
  222MOL   C10344745   5.392   6.239   4.613  0.2346  0.4106 -0.0214
  222MOL   C10444746   5.328   6.321   4.529 -0.6140  0.0898 -0.0243
  222MOL   C10544747   5.279   6.294   4.393 -0.4472 -0.3398  0.7222
  222MOL   H10644748   5.379   6.211   4.806 -1.1754 -0.3276 -2.0410
  222MOL   H10744749   5.423   6.382   4.767  0.1135  0.3534 -1.7026
  222MOL   H10844750   5.401   6.136   4.582 -1.2115  0.1775  0.2879
  222MOL   H10944751   5.325   6.422   4.566  1.1001  0.8788 -1.9312
  222MOL   H11044752   5.293   6.186   4.390 -1.1265 -0.4914  2.4629
  222MOL   H11144753   5.356   6.342   4.333  0.1302  0.0608  1.7691
  222MOL   C11244754   5.140   6.349   4.347 -0.5956 -0.3227 -0.1398
  222MOL   C11344755   5.121   6.354   4.199  0.1520  0.0028  0.5411
  222MOL   C11444756   5.022   6.297   4.133  0.7809 -0.2483  0.2823
  222MOL   C11544757   5.007   6.296   3.980 -0.0908  0.6200  0.6737
  222MOL   H11644758   5.071   6.277   4.391  0.5217 -1.9990 -1.0793
  222MOL   H11744759   5.109   6.443   4.394  3.0348  0.6715  0.4528
  222MOL   H11844760   5.202   6.397   4.142  0.1330 -1.7189 -0.8544
  222MOL   H11944761   4.960   6.234   4.195  0.0468 -0.6453 -0.8562
  222MOL   H12044762   5.019   6.194   3.945  1.2924  1.2250 -0.6272
  222MOL   H12144763   5.088   6.352   3.934 -0.0426 -0.5226 -0.6451
  222MOL   C12244764   4.870   6.362   3.927  0.3641 -0.7153 -0.5273
  222MOL   C12344765   4.854   6.324   3.780  0.6146  0.1669  0.0393
  222MOL   C12444766   4.897   6.395   3.667  0.5570 -0.1815  0.1281
  222MOL   C12544767   4.892   6.337   3.524 -0.1479  0.3795 -0.3374
  222MOL   H12644768   4.783   6.322   3.978  0.2969  1.5093  1.2022
  222MOL   H12744769   4.870   6.470   3.945  0.3568 -0.7095 -0.5596
  222MOL   H12844770   4.815   6.226   3.759  1.1342 -0.2553  1.0612
  222MOL   H12944771   4.928   6.498   3.675 -0.0148 -0.0273  0.3350
  222MOL   H13044772   4.836   6.395   3.451  0.5914  1.3820 -0.1166
  222MOL   H13144773   4.832   6.247   3.539  0.0781  0.2951  0.0758
  222MOL   C13244774   5.038   6.324   3.467 -0.1564 -0.6226 -0.1790
  222MOL   C13344775   5.036   6.257   3.335  0.1133  0.3465  0.3061
  222MOL   C13444776   5.059   6.130   3.310  0.2437 -0.0173  0.1035
  222MOL   C13544777   5.051   6.072   3.173 -0.2896  0.2332 -0.5078
  222MOL   H13644778   5.096   6.416   3.464  1.5768 -1.6565  0.9812
  222MOL   H13744779   5.099   6.271   3.540  1.1584 -0.9560 -1.5011
  222MOL   H13844780   5.011   6.324   3.254  0.3515  1.6830  1.3128
  222MOL   H13944781   5.086   6.061   3.389 -0.3880 -0.1130  0.2358
  222MOL   H14044782   5.061   6.150   3.098  1.1797  0.5139 -0.0400
  222MOL   H14144783   4.964   6.007   3.168  0.3167 -0.7485  1.2314
  222MOL   C14244784   5.178   5.978   3.147  1.2133 -0.6447 -0.3834
  222MOL   C14344785   5.178   5.901   3.023  0.1556 -0.4765  0.4404
  222MOL   C14444786   5.078   5.906   2.930 -0.0901  0.4507 -0.3930
  222MOL   C14544787   5.084   5.821   2.802 -0.0994  0.0574 -0.0189
  222MOL   H14644788   5.276   6.024   3.156 -0.2025  2.3298  0.4403
  222MOL   H14744789   5.178   5.898   3.221  0.5539 -0.0046  0.3141
  222MOL   H14844790   5.261   5.834   3.004  0.3819 -0.3608  0.9973
  222MOL   H14944791   4.994   5.972   2.947 -0.2941 -0.2890  1.5866
  222MOL   H15044792   5.003   5.749   2.791  0.4786 -0.5757 -0.1367
  222MOL   H15144793   5.179   5.770   2.814 -0.7566 -0.7521  1.9219
  222MOL   C15244794   5.087   5.897   2.669  0.4824 -0.4339 -0.0178
  222MOL   C15344795   5.131   5.813   2.550 -0.3312  0.1262 -0.6720
  222MOL   C15444796   5.227   5.842   2.456 -0.0349 -0.5393 -0.1823
  222MOL   C15544797   5.253   5.753   2.338  0.3787 -0.4209  0.1217
  222MOL   H15644798   4.984   5.926   2.650  0.7872  1.4947  1.1288
  222MOL   H15744799   5.142   5.990   2.684 -1.7246  0.5552  2.4535
  222MOL   H15844800   5.062   5.730   2.540 -1.0291  0.5618  0.4270
  222MOL   H15944801   5.291   5.928   2.470  0.3815 -0.6497 -1.3512
  222MOL   H16044802   5.238   5.800   2.241  0.6617 -2.3197 -0.8705
  222MOL   H16144803   5.196   5.660   2.344  1.9600 -1.3890  0.5653
  222MOL   C16244804   5.403   5.702   2.346  0.6312 -0.1936 -0.5539
  222MOL   C16344805   5.427   5.587   2.247 -0.0867 -0.2261  0.6596
  222MOL   C16444806   5.545   5.562   2.188 -0.4561 -0.2391  0.0865
  222MOL   C16544807   5.582   5.447   2.096 -0.3988  0.4418  0.6311
  222MOL   H16644808   5.478   5.778   2.323 -0.4327  1.2375  0.6044
  222MOL   H16744809   5.414   5.657   2.445 -1.1426  0.0399 -0.2342
  222MOL   H16844810   5.339   5.526   2.230  0.7268 -1.8000  1.9341
  222MOL   H16944811   5.625   5.631   2.210 -1.5107  0.7285  0.9224
  222MOL   H17044812   5.655   5.379   2.141 -0.8412 -1.4647 -1.4227
  222MOL   H17144813   5.641   5.481   2.011 -0.0591 -0.9287  0.3067
  222MOL   C17244814   5.461   5.369   2.052 -0.6884 -0.5346  0.3673
  222MOL   C17344815   5.403   5.432   1.931 -0.7823 -0.4968 -0.1854
  222MOL   C17444816   5.291   5.503   1.920  1.3752  0.9044  0.3531
  222MOL   C17544817   5.233   5.563   1.789 -0.1807  0.4394  0.1768
  222MOL   H17644818   5.490   5.267   2.024 -2.1276 -0.4010 -1.7668
  222MOL   H17744819   5.386   5.349   2.128  0.2015  0.8431  1.6164
  222MOL   H17844820   5.465   5.421   1.843  2.3034 -0.8786  1.9275
  222MOL   H17944821   5.240   5.527   2.012 -1.9487  0.2073 -1.2493
  222MOL   H18044822   5.154   5.494   1.760 -0.3338  0.1907  1.1471
  222MOL   H18144823   5.312   5.562   1.714 -0.6475  0.5759 -0.3209
  222MOL   C18244824   5.186   5.703   1.811  0.0677 -0.8794  0.6603
  222MOL   C18344825   5.297   5.808   1.829  0.9105  0.7797  0.4507
  222MOL   C18444826   5.322   5.886   1.934 -0.0170  0.6333 -0.0540
  222MOL   C18544827   5.442   5.986   1.934 -0.1318 -0.3505 -0.5098
  222MOL   H18644828   5.123   5.748   1.735  1.3116 -1.0521 -0.4874
  222MOL   H18744829   5.125   5.702   1.902 -0.2288 -1.5294  0.4582
  222MOL   H18844830   5.357   5.826   1.741 -2.3472  0.2607 -1.9637
  222MOL   H18944831   5.263   5.880   2.024 -0.3665 -6.1791 -0.4404
  222MOL   H19044832   5.394   6.081   1.955 -3.0264 -1.9847  0.6452
  222MOL   H19144833   5.491   5.974   1.838  2.9027  1.5225  0.7557
  222MOL   C19244834   5.546   5.960   2.045  0.0496  0.0517  0.0510
  222MOL   C19344835   5.640   5.844   2.013  0.5413  0.5620 -0.1381
  222MOL   C19444836   5.773   5.849   2.027  0.4618 -0.3526  0.0865
  222MOL   C19544837   5.869   5.733   1.992  0.2413  0.2323 -0.0935
  222MOL   H19644838   5.599   6.051   2.073  0.3140 -0.4862  1.3496
  222MOL   H19744839   5.491   5.930   2.134  0.1633 -0.4627 -0.0498
  222MOL   H19844840   5.596   5.750   1.984 -1.8269  1.0074  1.9125
  222MOL   H19944841   5.818   5.934   2.077 -3.6134  0.4730  2.6339
  222MOL   H20044842   5.836   5.667   1.912  2.3430  0.4300 -1.1598
  222MOL   H20144843   5.886   5.669   2.079 -0.3619  0.1653 -0.0231
  222MOL   H20244844   5.968   5.760   1.956  0.0677 -1.1583 -1.6559
  223MOL     C144845   0.340   6.050   7.533 -0.4972  0.0281 -0.3998
  223MOL     C244846   0.245   6.134   7.453 -0.0964  0.9467  0.0583
  223MOL     C344847   0.268   6.169   7.323 -0.2545  0.5263 -0.1274
  223MOL     C444848   0.178   6.266   7.250 -0.5529 -0.7230 -0.2074
  223MOL     H544849   0.432   6.020   7.483 -0.6298 -0.9076 -0.0897
  223MOL     H644850   0.290   5.960   7.570  0.6382 -1.6230 -2.7482
  223MOL     H744851   0.155   6.170   7.502 -0.3137  2.8651 -1.6789
  223MOL     H844852   0.359   6.146   7.270 -1.5704 -0.1876 -2.1457
  223MOL     H944853   0.207   6.369   7.270 -0.0417 -0.5717 -1.6857
  223MOL    H1044854   0.075   6.255   7.285 -0.7999 -3.1529 -1.5450
  223MOL    H1144855   0.364   6.117   7.615 -1.7317 -0.3703  0.3083
  223MOL    C1244856   0.164   6.230   7.100  0.4335 -0.2095  0.0447
  223MOL    C1344857   0.094   6.345   7.028 -0.1884  0.4564 -0.0415
  223MOL    C1444858   0.162   6.435   6.956  0.1919  0.2259 -0.4945
  223MOL    C1544859   0.106   6.555   6.888 -0.6451  0.4916  0.0340
  223MOL    H1644860   0.262   6.218   7.055  0.1052  0.6798 -0.9127
  223MOL    H1744861   0.112   6.135   7.090  0.4196 -0.1990  0.0229
  223MOL    H1844862   7.963   6.338   7.035 -0.3454  1.6223 -0.9794
  223MOL    H1944863   0.268   6.418   6.945  0.1496 -0.0972 -0.4114
  223MOL    H2044864   0.174   6.633   6.920  1.1170 -1.0924  0.2300
  223MOL    H2144865   0.008   6.580   6.928 -0.1849  0.5893  1.1043
  223MOL    C2244866   0.107   6.561   6.737 -0.2189  1.0695 -0.4409
  223MOL    C2344867   0.080   6.705   6.701 -0.4567 -0.3214  0.7601
  223MOL    C2444868   0.168   6.806   6.700 -0.1901 -0.2850 -0.3055
  223MOL    C2544869   0.135   6.959   6.673 -0.5182  0.5775 -0.5267
  223MOL    H2644870   0.207   6.544   6.698  0.2591  1.6604  0.5258
  223MOL    H2744871   0.039   6.488   6.693 -1.8688  1.3758  1.4741
  223MOL    H2844872   7.956   6.742   6.704 -0.0855  0.6728  1.1964
  223MOL    H2944873   0.273   6.791   6.723 -0.1210 -1.1945 -1.1631
  223MOL    H3044874   0.137   6.999   6.774 -0.1466 -1.0637  0.1279
  223MOL    H3144875   0.030   6.969   6.644 -1.5415  1.9587  3.3752
  223MOL    C3244876   0.244   7.036   6.587  0.5087 -0.1669  0.2552
  223MOL    C3344877   0.238   7.186   6.623 -0.1883 -0.1635 -0.3593
  223MOL    C3444878   0.242   7.283   6.528  0.4039 -0.1467 -0.0499
  223MOL    C3544879   0.243   7.433   6.559  0.2203 -0.6421 -0.4033
  223MOL    H3644880   0.345   7.010   6.616  0.7337 -0.5508 -0.8336
  223MOL    H3744881   0.233   7.020   6.480  0.1284 -0.1108  0.2837
  223MOL    H3844882   0.238   7.223   6.725  0.0109 -0.6711 -0.1746
  223MOL    H3944883   0.238   7.237   6.430  1.0957 -0.6292  0.1417
  223MOL    H4044884   0.303   7.443   6.649 -2.4743  2.3111  1.1671
  223MOL    H4144885   0.144   7.473   6.581  0.8177 -0.0306  1.2423
  223MOL    C4244886   0.306   7.500   6.442 -0.3412  0.3044 -0.6248
  223MOL    C4344887   0.345   7.643   6.481  0.4199 -0.5393 -0.2677
  223MOL    C4444888   0.313   7.753   6.414  0.0138  0.3338 -0.5684
  223MOL    C4544889   0.326   7.890   6.473 -0.1743  0.4489 -0.3149
  223MOL    H4644890   0.397   7.441   6.426 -2.0498 -2.8845  0.8532
  223MOL    H4744891   0.245   7.504   6.352  1.2617 -2.2571 -1.8932
  223MOL    H4844892   0.382   7.659   6.581 -2.0122  2.1080  0.2780
  223MOL    H4944893   0.272   7.741   6.314  1.1735 -0.8536 -0.9151
  223MOL    H5044894   0.318   7.877   6.581 -0.2022 -1.9405 -0.5747
  223MOL    H5144895   0.235   7.945   6.451 -0.5390  0.6271  1.5828
  223MOL    C5244896   0.457   7.962   6.434  0.9170 -0.3739  0.1121
  223MOL    C5344897   0.472   0.139   6.454 -0.2879  0.1903 -0.1538
  223MOL    C5444898   0.596   0.195   6.483  0.2011  0.7269  0.2537
  223MOL    C5544899   0.619   0.336   6.526 -0.2607  0.3074 -0.3898
  223MOL    H5644900   0.552   7.921   6.468  0.7938 -1.3873 -0.7431
  223MOL    H5744901   0.458   7.946   6.327 -1.0254 -0.0526  0.0158
  223MOL    H5844902   0.386   0.203   6.464 -0.0839  0.2573  1.3126
  223MOL    H5944903   0.686   0.137   6.495  1.2982  2.2438 -0.4137
  223MOL    H6044904   0.697   0.388   6.470  0.3882 -0.4746 -0.2382
  223MOL    H6144905   0.662   0.344   6.626  0.8300 -0.5288 -0.7689
  223MOL    C6244906   0.494   0.427   6.522 -0.5997 -0.1425 -0.3501
  223MOL    C6344907   0.424   0.451   6.390  0.3983  0.4503  0.4075
  223MOL    C6444908   0.482   0.438   6.266 -0.0044  0.3914  0.1416
  223MOL    C6544909   0.408   0.450   6.134  0.2279 -0.4198 -0.8085
  223MOL    H6644910   0.426   0.382   6.595 -1.6493 -1.5457 -2.1451
  223MOL    H6744911   0.534   0.523   6.553  1.5722 -1.2675  0.4314
  223MOL    H6844912   0.317   0.469   6.395  0.3409 -0.2863  1.9684
  223MOL    H6944913   0.586   0.408   6.266 -0.3764 -0.9413  0.3337
  223MOL    H7044914   0.480   0.505   6.074 -0.4643  1.7027  0.2446
  223MOL    H7144915   0.332   0.528   6.133  0.7652  0.1527  1.0137
  223MOL    C7244916   0.364   0.307   6.080  0.4843 -0.5693 -0.1045
  223MOL    C7344917   0.314   0.328   5.943 -0.3344  0.1017 -0.3569
  223MOL    C7444918   0.205   0.278   5.888 -0.3585  0.0853  0.0103
  223MOL    C7544919   0.151   0.314   5.749 -0.0173  0.2311 -0.3433
  223MOL    H7644920   0.448   0.238   6.079  0.2190 -0.8945 -0.8697
  223MOL    H7744921   0.291   0.255   6.142  2.0527 -1.5211  0.9635
  223MOL    H7844922   0.380   0.395   5.891  2.1831 -1.0501  1.2140
  223MOL    H7944923   0.149   0.215   5.957  0.5959 -0.9898 -0.1863
  223MOL    H8044924   0.123   0.225   5.693  0.5703  0.3515 -0.8191
  223MOL    H8144925   0.227   0.368   5.693  0.1622 -1.3625 -1.6723
  223MOL    C8244926   0.027   0.399   5.764 -0.2893  0.4647 -0.4991
  223MOL    C8344927   7.957   0.471   5.641  0.4576 -0.4052  0.2704
  223MOL    C8444928   7.829   0.486   5.598 -0.4439  0.3427 -0.6358
  223MOL    C8544929   7.793   0.568   5.472 -0.2273 -0.4054 -0.9115
  223MOL    H8644930   7.926   0.328   5.790 -0.2376  0.6895  0.2706
  223MOL    H8744931   0.041   0.477   5.839 -1.1395  1.3157 -1.2051
  223MOL    H8844932   0.061   0.510   5.580  0.5958  0.0604  0.7470
  223MOL    H8944933   7.749   0.436   5.651 -0.5819 -0.3850 -1.5113
  223MOL    H9044934   7.888   0.605   5.433  1.6644 -1.7946  2.2292
  223MOL    H9144935   7.746   0.655   5.520  1.8269  0.3341 -0.1856
  223MOL    C9244936   7.719   0.495   5.364 -0.1256 -0.1184 -0.0322
  223MOL    C9344937   7.648   0.582   5.266  0.3072  0.2568  0.6673
  223MOL    C9444938   7.684   0.604   5.138 -0.8964  0.3562 -0.3094
  223MOL    C9544939   7.618   0.702   5.036  0.2229 -0.2802  0.4040
  223MOL    H9644940   7.777   0.413   5.323  0.6957  0.9287 -1.0151
  223MOL    H9744941   7.634   0.445   5.410 -1.1425  0.7555 -0.8994
  223MOL    H9844942   7.569   0.644   5.307 -0.6404 -0.6569  0.2304
  223MOL    H9944943   7.763   0.548   5.091 -2.8846 -1.0138 -2.1450
  223MOL   H10044944   7.628   0.652   4.939 -2.1205  1.5927 -0.8749
  223MOL   H10144945   7.673   0.795   5.021  2.1631 -0.9552  3.0722
  223MOL   C10244946   7.460   0.725   5.056  0.3079  0.0599 -0.2200
  223MOL   C10344947   7.421   0.780   4.923 -0.0397 -0.1651  0.9906
  223MOL   C10444948   7.355   0.893   4.893 -0.0992 -0.0475  0.6307
  223MOL   C10544949   7.323   0.927   4.743  0.3829  0.5639 -0.3576
  223MOL   H10644950   7.399   0.638   5.077 -0.8660 -0.2849 -4.5373
  223MOL   H10744951   7.432   0.797   5.133  0.6755  0.6582 -0.6403
  223MOL   H10844952   7.440   0.700   4.852  0.1841  1.6674 -1.0574
  223MOL   H10944953   7.333   0.971   4.965  2.1886  0.7097  0.5676
  223MOL   H11044954   7.217   0.903   4.750  0.6180 -0.0627  1.1536
  223MOL   H11144955   7.369   0.871   4.662 -1.2276  0.8779 -1.5174
  223MOL   C11244956   7.355   1.072   4.711  0.2294 -0.7199 -0.0386
  223MOL   C11344957   7.289   1.118   4.584  0.4558  1.0395  0.1428
  223MOL   C11444958   7.363   1.178   4.487  0.8511 -0.5222  0.1719
  223MOL   C11544959   7.287   1.232   4.358  0.5455  0.2279 -0.1371
  223MOL   H11644960   7.313   1.141   4.783  0.6237 -0.8722  0.3363
  223MOL   H11744961   7.459   1.102   4.719  0.0419 -0.4280  1.3885
  223MOL   H11844962   7.183   1.102   4.572  0.0910  3.0061  0.5099
  223MOL   H11944963   7.468   1.204   4.497  0.7727 -0.6566  1.4127
  223MOL   H12044964   7.182   1.206   4.366  0.4746  0.3666 -0.6168
  223MOL   H12144965   7.333   1.170   4.280 -0.7009 -1.1275  0.1778
  223MOL   C12244966   7.314   1.383   4.320  0.4479  0.6496  0.5435
  223MOL   C12344967   7.261   1.413   4.178 -0.2274 -0.2471 -0.0140
  223MOL   C12444968   7.325   1.489   4.086  0.0966 -0.3724  0.7164
  223MOL   C12544969   7.268   1.538   3.952  0.0492 -0.1039 -0.0954
  223MOL   H12644970   7.257   1.446   4.389 -1.8769 -0.9202  0.1101
  223MOL   H12744971   7.418   1.415   4.322  0.9249 -0.8732  0.2225
  223MOL   H12844972   7.163   1.370   4.164  0.6129 -2.4775  0.7174
  223MOL   H12944973   7.422   1.532   4.105  0.0289 -0.1306  0.5204
  223MOL   H13044974   7.161   1.556   3.962 -0.2462 -0.0993 -2.7617
  223MOL   H13144975   7.277   1.452   3.885  0.0799  0.8581 -1.3606
  223MOL   C13244976   7.326   1.658   3.882 -0.4232  0.0814  0.2401
  223MOL   C13344977   7.462   1.638   3.817  0.7133  0.0422 -0.3618
  223MOL   C13444978   7.488   1.675   3.691  0.2159 -0.3421  0.9911
  223MOL   C13544979   7.614   1.659   3.614  0.0882 -0.1910 -0.0240
  223MOL   H13644980   7.253   1.701   3.812  1.2347  0.5178 -1.2606
  223MOL   H13744981   7.345   1.737   3.955 -1.2436  0.9479 -0.4629
  223MOL   H13844982   7.534   1.587   3.880 -1.0261 -0.5540  1.2027
  223MOL   H13944983   7.403   1.722   3.643  1.1716 -1.3556 -1.8036
  223MOL   H14044984   7.603   1.616   3.514 -0.2674  0.0034 -0.0699
  223MOL   H14144985   7.684   1.582   3.648 -0.3155 -0.1513  0.9046
  223MOL   C14244986   7.672   1.793   3.574  0.0171  0.3219  0.7117
  223MOL   C14344987   7.814   1.793   3.541  0.3923  0.3829 -0.5786
  223MOL   C14444988   7.865   1.834   3.423 -0.5713 -0.2562 -0.1016
  223MOL   C14544989   0.031   1.834   3.383  0.4729  0.2166  0.2453
  223MOL   H14644990   7.624   1.826   3.482  1.9876  0.7475 -0.1848
  223MOL   H14744991   7.669   1.871   3.650  0.6351  0.7902  0.2578
  223MOL   H14844992   7.881   1.763   3.620 -0.2659 -1.4703 -0.7040
  223MOL   H14944993   7.802   1.866   3.341 -0.0891 -0.5204 -0.5771
  223MOL   H15044994   0.096   1.806   3.466  2.0664  2.7166 -0.1039
  223MOL   H15144995   0.065   1.928   3.339  1.8886  0.1268  1.1086
  223MOL   C15244996   0.049   1.727   3.276  0.2173  0.0816  0.6272
  223MOL   C15344997   0.159   1.743   3.173  0.9693 -0.4765 -0.3134
  223MOL   C15444998   0.131   1.716   3.050 -0.1617 -0.1221  0.9265
  223MOL   C15544999   0.255   1.713   2.960  0.0130  0.3062 -0.0481
  223MOL   H15645000   0.070   1.628   3.315  3.6397 -0.1054 -1.4728
  223MOL   H15745001   7.928   1.728   3.227  0.2010 -1.1059  0.6300
  223MOL   H15845002   0.255   1.771   3.214  0.3342  2.4749 -0.6958
  223MOL   H15945003   0.033   1.686   3.014  0.1287  0.5984 -0.5272
  223MOL   H16045004   0.347   1.738   3.012  0.1579 -0.6247  0.1478
  223MOL   H16145005   0.242   1.781   2.876  2.8701 -0.1684 -0.9270
  223MOL   C16245006   0.271   1.567   2.913 -0.1367 -0.5357  0.5838
  223MOL   C16345007   0.384   1.545   2.822 -0.1264 -0.3327 -0.3561
  223MOL   C16445008   0.376   1.561   2.691 -0.2472 -0.4336  0.5635
  223MOL   C16545009   0.497   1.564   2.601 -0.3610 -0.4019 -0.3249
  223MOL   H16645010   0.288   1.505   3.001  0.1561  1.2071  1.7731
  223MOL   H16745011   0.181   1.541   2.856 -0.6582  0.5917  0.8897
  223MOL   H16845012   0.484   1.542   2.863  0.3306  1.1168 -1.3325
  223MOL   H16945013   0.285   1.575   2.634  0.1998  0.4405  0.0587
  223MOL   H17045014   0.512   1.465   2.557 -0.7728 -0.6613  0.1183
  223MOL   H17145015   0.590   1.586   2.654  0.6499 -2.4411 -1.1693
  223MOL   C17245016   0.485   1.660   2.481  0.1122  0.1464 -0.2602
  223MOL   C17345017   0.611   1.664   2.407  0.0744  0.0674  0.7272
  223MOL   C17445018   0.687   1.773   2.379 -0.2356  0.9295 -0.3151
  223MOL   C17545019   0.812   1.758   2.293  0.0406  0.1063  0.4906
  223MOL   H17645020   0.402   1.623   2.421 -0.9530  0.2730  1.1328
  223MOL   H17745021   0.464   1.761   2.516 -1.1625 -1.1360  2.8363
  223MOL   H17845022   0.637   1.564   2.375  0.5551 -0.2226  1.9848
  223MOL   H17945023   0.645   1.868   2.405  0.3318  0.7316  1.4000
  223MOL   H18045024   0.815   1.829   2.212 -0.4599 -1.8029 -1.2470
  223MOL   H18145025   0.798   1.672   2.227 -0.1003  0.5810 -0.0914
  223MOL   C18245026   0.934   1.737   2.381  0.1059 -0.7187 -0.1831
  223MOL   C18345027   1.068   1.717   2.309  0.0025 -0.6927 -0.5309
  223MOL   C18445028   1.167   1.644   2.359 -0.1424 -0.0889 -0.2198
  223MOL   C18545029   1.303   1.642   2.304  0.3872 -0.0882  0.3664
  223MOL   H18645030   0.944   1.807   2.463 -0.1613 -1.9991  0.9532
  223MOL   H18745031   0.907   1.641   2.424 -1.5712 -0.3146 -0.3026
  223MOL   H18845032   1.082   1.785   2.227  2.2667 -1.8777 -1.1825
  223MOL   H18945033   1.154   1.587   2.450 -0.8053  1.8656  0.9363
  223MOL   H19045034   1.315   1.725   2.234 -1.3965  0.8834  1.1595
  223MOL   H19145035   1.316   1.541   2.265 -0.6661 -0.1398  0.1357
  223MOL   C19245036   1.410   1.651   2.405 -0.8968 -0.1189 -0.0736
  223MOL   C19345037   1.549   1.657   2.336  1.1813  0.2771 -0.0895
  223MOL   C19445038   1.647   1.741   2.370  0.3011  0.5418 -0.0963
  223MOL   C19545039   1.780   1.754   2.300 -0.1834  0.0662  0.6340
  223MOL   H19645040   1.408   1.744   2.462 -0.6883 -0.8763  1.2039
  223MOL   H19745041   1.403   1.567   2.475 -2.6234  0.7442  0.8395
  223MOL   H19845042   1.570   1.583   2.260  2.5351 -0.5827  1.0970
  223MOL   H19945043   1.621   1.811   2.448 -2.1724  0.2060 -0.5578
  223MOL   H20045044   1.858   1.775   2.372 -0.2273  0.7031  0.4998
  223MOL   H20145045   1.779   1.848   2.244 -2.2018 -0.3549 -0.0784
  223MOL   H20245046   1.803   1.670   2.234 -0.2628  0.2771  0.3334
  224MOL     C145047   5.963   6.996   4.595 -0.5869  0.9170 -0.7267
  224MOL     C245048   5.993   6.849   4.605  1.1640  0.3691 -1.2792
  224MOL     C345049   6.102   6.786   4.579 -0.4021 -0.2609 -0.2403
  224MOL     C445050   6.112   6.628   4.587 -0.0469 -0.1550  0.0763
  224MOL     H545051   5.987   7.034   4.695 -1.8539  1.9510 -0.8058
  224MOL     H645052   5.860   7.010   4.563 -1.7256 -0.7190  2.0070
  224MOL     H745053   5.905   6.800   4.645 -0.4509  1.5962 -3.2377
  224MOL     H845054   6.187   6.843   4.544  0.9129 -0.8328  1.9792
  224MOL     H945055   6.021   6.581   4.627  1.0454 -0.3917  2.3725
  224MOL    H1045056   6.194   6.593   4.649  0.2541 -0.3816 -0.4518
  224MOL    H1145057   6.015   7.067   4.530  1.0630  0.1438 -0.3005
  224MOL    C1245058   6.138   6.574   4.443 -0.3562  0.1580 -0.2684
  224MOL    C1345059   6.274   6.598   4.388  0.6948  0.3078 -1.0139
  224MOL    C1445060   6.294   6.670   4.272 -0.6080 -0.2521  0.5279
  224MOL    C1545061   6.426   6.696   4.198  0.0415  1.0734  0.0875
  224MOL    H1645062   6.109   6.470   4.436 -0.1175  0.0620  0.1609
  224MOL    H1745063   6.071   6.626   4.375  2.3258  2.2277 -1.4635
  224MOL    H1845064   6.361   6.557   4.436  0.6726  1.1127 -0.2511
  224MOL    H1945065   6.210   6.721   4.226 -1.4102 -2.0371 -0.0472
  224MOL    H2045066   6.521   6.670   4.244 -0.6675  1.3953  1.7900
  224MOL    H2145067   6.421   6.804   4.186 -3.9406  0.9568 -0.0795
  224MOL    C2245068   6.408   6.636   4.058  0.5523  0.0920  0.2148
  224MOL    C2345069   6.495   6.708   3.959 -0.3249  0.5009 -0.0439
  224MOL    C2445070   6.569   6.644   3.865  0.0483  0.8979 -0.5307
  224MOL    C2545071   6.665   6.702   3.765  0.2464 -0.1949 -0.5135
  224MOL    H2645072   6.427   6.529   4.057 -1.3418 -0.2988  2.3794
  224MOL    H2745073   6.304   6.645   4.026  0.3117  2.5911  1.6044
  224MOL    H2845074   6.512   6.814   3.971  1.6613  0.1750  0.1751
  224MOL    H2945075   6.557   6.538   3.852  3.8799  0.4845 -1.3361
  224MOL    H3045076   6.687   6.798   3.812 -1.8556 -0.3732  0.8971
  224MOL    H3145077   6.607   6.716   3.673  1.2122  0.2676 -1.0628
  224MOL    C3245078   6.796   6.622   3.748 -0.1505 -0.4865  0.5812
  224MOL    C3345079   6.893   6.696   3.663 -1.1390 -0.1971 -0.2756
  224MOL    C3445080   6.945   6.641   3.550 -0.3498  0.2376  0.3042
  224MOL    C3545081   7.034   6.724   3.466 -0.9963 -0.3396  0.5091
  224MOL    H3645082   6.844   6.606   3.845 -2.0184  0.6915  1.7341
  224MOL    H3745083   6.791   6.525   3.699 -0.0992  1.0819 -2.6437
  224MOL    H3845084   6.908   6.800   3.686  0.2476 -0.6021  0.6873
  224MOL    H3945085   6.932   6.537   3.526 -1.0875  0.5926 -0.8856
  224MOL    H4045086   7.134   6.683   3.449  0.3703  2.2710  1.9097
  224MOL    H4145087   7.058   6.821   3.509  0.2922  0.2354 -1.4179
  224MOL    C4245088   6.975   6.747   3.327  0.1146  0.0312  0.0573
  224MOL    C4345089   7.058   6.851   3.251 -0.0545 -0.0519 -0.4536
  224MOL    C4445090   7.013   6.945   3.166  0.0799  0.0661 -0.1088
  224MOL    C4545091   7.110   7.052   3.111 -0.0449 -0.5135  0.0492
  224MOL    H4645092   6.971   6.656   3.266 -0.1940  0.0384  0.0642
  224MOL    H4745093   6.871   6.781   3.334  0.1585  0.0194  0.7998
  224MOL    H4845094   7.163   6.830   3.259  0.4469  2.6820  0.5777
  224MOL    H4945095   6.908   6.963   3.149  0.1112  1.5350  1.2259
  224MOL    H5045096   7.214   7.029   3.134 -0.1554 -0.2990  0.7605
  224MOL    H5145097   7.078   7.147   3.152 -0.7113 -0.6310 -0.1777
  224MOL    C5245098   7.108   7.053   2.952 -0.0065  0.3396 -0.1040
  224MOL    C5345099   7.214   7.138   2.893  0.7151  0.3506  0.6554
  224MOL    C5445100   7.338   7.098   2.857  0.0847  0.4644 -0.8469
  224MOL    C5545101   7.451   7.200   2.821 -0.0658 -0.3652 -0.2477
  224MOL    H5645102   7.125   6.954   2.910  0.3879  0.3075  0.1257
  224MOL    H5745103   7.015   7.094   2.915  0.3259  0.7086 -0.5406
  224MOL    H5845104   7.194   7.242   2.909 -0.5251  0.2267 -0.0861
  224MOL    H5945105   7.360   6.993   2.846  0.2338  0.4738 -0.6415
  224MOL    H6045106   7.399   7.296   2.819  1.4807  0.4776 -1.9669
  224MOL    H6145107   7.487   7.183   2.719 -0.9672 -0.7425 -0.5023
  224MOL    C6245108   7.569   7.203   2.906  0.3832  0.7904 -0.6512
  224MOL    C6345109   7.692   7.264   2.836 -0.5343  0.2886 -0.2010
  224MOL    C6445110   7.790   7.340   2.889 -0.3691  0.2251 -0.0262
  224MOL    C6545111   7.897   7.411   2.815 -0.9152  0.6046  0.0866
  224MOL    H6645112   7.563   7.255   3.001  2.4129 -1.4184  0.7303
  224MOL    H6745113   7.610   7.104   2.926  2.1808  1.5116 -0.6519
  224MOL    H6845114   7.684   7.264   2.729 -0.1776 -0.3633 -0.2350
  224MOL    H6945115   7.789   7.354   2.996  2.4611 -0.1540  0.0850
  224MOL    H7045116   7.888   7.391   2.708  2.5436  2.0066 -0.5538
  224MOL    H7145117   0.022   7.381   2.842 -1.1380 -2.0646 -1.8549
  224MOL    C7245118   7.896   7.566   2.829  0.0910 -0.2077  0.1092
  224MOL    C7345119   0.025   7.620   2.734  1.0347  0.1138 -0.3813
  224MOL    C7445120   0.150   7.649   2.775 -0.6910  0.5142  0.1039
  224MOL    C7545121   0.265   7.698   2.687  0.7665  0.0524  0.0932
  224MOL    H7645122   7.804   7.611   2.794  1.6037  0.2847 -3.4891
  224MOL    H7745123   7.926   7.587   2.932 -1.0886 -1.0861  0.6487
  224MOL    H7845124   7.969   7.637   2.633  1.6552 -2.5507 -1.0876
  224MOL    H7945125   0.178   7.629   2.877  1.3883 -0.3566 -0.6135
  224MOL    H8045126   0.220   7.709   2.589 -0.7466 -0.9961  0.6571
  224MOL    H8145127   0.342   7.620   2.696 -0.0932 -0.8895 -0.6048
  224MOL    C8245128   0.323   7.830   2.730  0.9726  0.6045 -0.0036
  224MOL    C8345129   0.451   7.851   2.645  0.4225  0.1473 -0.2050
  224MOL    C8445130   0.570   7.858   2.705  0.6648 -0.2726  0.1059
  224MOL    C8545131   0.696   7.892   2.631  0.7341  0.4247 -0.1799
  224MOL    H8645132   0.256   7.916   2.721 -0.9924 -0.8675  0.3015
  224MOL    H8745133   0.345   7.830   2.837  1.4430 -0.0514 -0.0976
  224MOL    H8845134   0.439   7.866   2.538  0.6056  0.6414 -0.1585
  224MOL    H8945135   0.578   7.838   2.811 -0.1907  1.2326  0.4591
  224MOL    H9045136   0.746   0.007   2.664  1.1446 -0.8153  2.8295
  224MOL    H9145137   0.670   7.921   2.530 -0.3883 -1.9907 -0.6098
  224MOL    C9245138   0.789   7.777   2.634 -1.3241 -0.2751  0.2645
  224MOL    C9345139   0.894   7.791   2.523 -0.0759 -0.5566  0.3981
  224MOL    C9445140   1.023   7.820   2.542 -0.0383  0.0416 -0.0883
  224MOL    C9545141   1.126   7.817   2.436 -0.2910 -0.7175  0.0949
  224MOL    H9645142   0.836   7.762   2.731 -2.1100 -0.0241  0.6826
  224MOL    H9745143   0.730   7.693   2.596  2.3855 -2.1337 -1.6965
  224MOL    H9845144   0.856   7.767   2.424 -0.9380 -0.7337  0.7680
  224MOL    H9945145   1.072   7.834   2.638  1.7002 -2.5883 -0.5353
  224MOL   H10045146   1.084   7.799   2.337  0.2461  0.2405 -0.3083
  224MOL   H10145147   1.194   7.732   2.446 -0.2390 -0.4793  1.8690
  224MOL   C10245148   1.210   7.940   2.426 -0.7246 -0.1984 -0.0522
  224MOL   C10345149   1.327   7.930   2.324  0.7137 -0.0609  0.1675
  224MOL   C10445150   1.361   0.048   2.240  0.1230  0.2478 -0.1725
  224MOL   C10545151   1.475   0.034   2.140 -0.0418 -0.7280  0.4138
  224MOL   H10645152   1.157   0.056   2.404  2.4478  1.0168 -3.1009
  224MOL   H10745153   1.251   7.957   2.525 -0.0791  1.1336 -0.5366
  224MOL   H10845154   1.380   7.836   2.314 -1.6184 -1.4493  0.4669
  224MOL   H10945155   1.315   0.145   2.251 -0.9486 -0.3833  1.0749
  224MOL   H11045156   1.447   0.084   2.047 -0.7133 -2.2575 -0.2184
  224MOL   H11145157   1.497   7.909   2.109  1.9126 -0.7916  1.9152
  224MOL   C11245158   1.607   0.099   2.184  0.3329 -0.2805 -0.2908
  224MOL   C11345159   1.597   0.245   2.225 -0.1007 -0.6923  0.3096
  224MOL   C11445160   1.666   0.339   2.157 -0.2069 -0.3654  0.4354
  224MOL   C11545161   1.680   0.483   2.192  0.7824  0.9802  0.3396
  224MOL   H11645162   1.652   0.043   2.266  1.0676  1.1791  0.3241
  224MOL   H11745163   1.681   0.097   2.104  0.9851  0.2308  0.2996
  224MOL   H11845164   1.532   0.267   2.308 -0.1747  0.0731  0.0537
  224MOL   H11945165   1.724   0.305   2.073  0.9845  1.2198  0.5978
  224MOL   H12045166   1.762   0.495   2.262 -1.1774  1.0314  2.6955
  224MOL   H12145167   1.588   0.508   2.246  0.4410  0.7452 -0.1246
  224MOL   C12245168   1.687   0.572   2.071 -0.1461  0.0492  0.2223
  224MOL   C12345169   1.706   0.723   2.096 -0.2006  0.0048  0.4302
  224MOL   C12445170   1.687   0.812   1.995  0.4453  0.1345 -0.2928
  224MOL   C12545171   1.697   0.958   2.002  0.2128  0.0436 -0.2656
  224MOL   H12645172   1.772   0.549   2.007 -1.3123  0.2166 -1.4219
  224MOL   H12745173   1.602   0.557   2.005  0.5745 -0.2297 -0.6600
  224MOL   H12845174   1.728   0.767   2.192 -3.1187 -0.9385  1.5916
  224MOL   H12945175   1.658   0.779   1.896  0.4111  1.3638 -0.7051
  224MOL   H13045176   1.748   0.973   2.097 -1.1192  2.1714  0.1457
  224MOL   H13145177   1.600   1.003   2.023  0.2422  0.3396 -0.7541
  224MOL   C13245178   1.773   1.027   1.883 -0.2936  0.2594  0.9222
  224MOL   C13345179   1.920   0.991   1.882 -0.6125  0.1601 -0.5065
  224MOL   C13445180   1.983   0.906   1.803  0.4949 -0.1187 -0.9221
  224MOL   C13545181   2.131   0.879   1.799  0.1551 -0.1588  0.2863
  224MOL   H13645182   1.719   1.003   1.792 -0.1170 -1.7884  1.3482
  224MOL   H13745183   1.768   1.136   1.875  0.3051  0.3861  2.1219
  224MOL   H13845184   1.971   1.052   1.955 -2.8502  0.1308  1.1290
  224MOL   H13945185   1.920   0.860   1.728 -0.3497 -0.2720 -0.1255
  224MOL   H14045186   2.153   0.784   1.752 -0.7061 -0.2261  0.0048
  224MOL   H14145187   2.166   0.883   1.902  1.2845  1.4484 -0.1394
  224MOL   C14245188   2.215   0.995   1.726 -0.5746  0.6331  0.1838
  224MOL   C14345189   2.366   0.997   1.763  0.5349  0.0485 -0.0866
  224MOL   C14445190   2.463   0.947   1.686  0.4913 -0.1592 -0.0989
  224MOL   C14545191   2.613   0.930   1.720  0.0232  0.2239 -0.6988
  224MOL   H14645192   2.209   0.988   1.618  1.1303  1.0707  0.0497
  224MOL   H14745193   2.183   1.096   1.752  1.5586  1.2955  0.3572
  224MOL   H14845194   2.372   1.029   1.866 -5.2002  0.0325  0.4414
  224MOL   H14945195   2.424   0.901   1.597  2.2082  2.2904 -2.1789
  224MOL   H15045196   2.638   0.826   1.740 -0.6460  0.3482  0.8530
  224MOL   H15145197   2.623   0.994   1.808  2.2732 -0.6315 -0.2913
  224MOL   C15245198   2.713   0.991   1.611  0.0913 -0.1182 -0.5668
  224MOL   C15345199   2.859   0.953   1.626  0.4750 -0.5951  1.0013
  224MOL   C15445200   2.952   0.980   1.529  0.7757  0.1133 -0.4009
  224MOL   C15545201   3.099   0.963   1.546 -0.9240 -0.3237 -0.5212
  224MOL   H15645202   2.684   0.972   1.508  2.1485  1.9460 -1.5768
  224MOL   H15745203   2.715   1.100   1.613  1.2675 -0.0555 -3.0057
  224MOL   H15845204   2.891   0.928   1.726  0.0571  0.4200  1.4018
  224MOL   H15945205   2.927   1.028   1.436 -0.7585  1.3547  0.6119
  224MOL   H16045206   3.115   0.905   1.637 -1.9723 -2.1349 -1.4780
  224MOL   H16145207   3.144   1.061   1.563 -1.8601  0.4675 -2.4487
  224MOL   C16245208   3.164   0.884   1.434 -0.4522  1.1664 -0.2741
  224MOL   C16345209   3.315   0.878   1.452 -0.7974 -0.6035 -0.6352
  224MOL   C16445210   3.372   0.760   1.423 -0.9335  0.2670 -0.4341
  224MOL   C16545211   3.515   0.721   1.447 -0.2079  0.3922 -0.7812
  224MOL   H16645212   3.121   0.784   1.440 -1.1746  1.4378 -0.9078
  224MOL   H16745213   3.138   0.923   1.336 -0.4750  0.2016 -0.6549
  224MOL   H16845214   3.360   0.964   1.499 -0.6368 -0.9019 -0.2328
  224MOL   H16945215   3.313   0.677   1.385 -0.3672 -0.3954  0.1119
  224MOL   H17045216   3.512   0.627   1.502 -2.9923  1.6418  1.3490
  224MOL   H17145217   3.549   0.800   1.514 -0.9412 -0.3854  0.5259
  224MOL   C17245218   3.599   0.708   1.317 -0.2884 -0.4265 -0.4719
  224MOL   C17345219   3.542   0.594   1.235  0.6431  0.0578 -0.2096
  224MOL   C17445220   3.491   0.606   1.106 -0.1374 -0.0838  0.2369
  224MOL   C17545221   3.438   0.488   1.026  0.2285  0.4314  0.3858
  224MOL   H17645222   3.596   0.801   1.259 -1.8513  1.0007  1.7949
  224MOL   H17745223   3.704   0.693   1.341 -0.0532  1.5942 -0.1265
  224MOL   H17845224   3.540   0.497   1.283 -1.9248  1.0167  1.6714
  224MOL   H17945225   3.503   0.705   1.064 -0.5743 -0.1646 -0.0756
  224MOL   H18045226   3.340   0.512   0.985  1.0231 -1.2405 -2.6204
  224MOL   H18145227   3.417   0.405   1.094  1.6204 -0.0070  0.2999
  224MOL   C18245228   3.534   0.449   0.907  0.5381  0.5555  0.6224
  224MOL   C18345229   3.680   0.445   0.949  0.1692 -0.1917 -0.2509
  224MOL   C18445230   3.775   0.513   0.882 -1.0088  0.0886 -0.0427
  224MOL   C18545231   3.920   0.496   0.927 -0.3258 -0.5252  0.0080
  224MOL   H18645232   3.520   0.348   0.868  1.9055  0.4075  0.4880
  224MOL   H18745233   3.515   0.515   0.822  1.0788 -0.8514 -0.6059
  224MOL   H18845234   3.706   0.390   1.038 -2.1881  0.7111  1.0496
  224MOL   H18945235   3.744   0.568   0.795  3.5275  3.4514  0.3034
  224MOL   H19045236   3.966   0.440   0.846  2.0366  0.6847  0.4678
  224MOL   H19145237   3.928   0.443   1.022 -1.8194  2.0163  1.6230
  224MOL   C19245238   3.996   0.629   0.944  0.3093  0.4549 -0.6891
  224MOL   C19345239   4.140   0.600   0.987  0.4088 -0.6045 -0.0440
  224MOL   C19445240   4.247   0.643   0.925 -0.0213  0.4149 -1.0656
  224MOL   C19545241   4.388   0.615   0.980 -0.2274 -0.5304  0.4614
  224MOL   H19645242   3.999   0.676   0.846  1.7472  0.1554 -0.7932
  224MOL   H19745243   3.945   0.684   1.023 -0.1851 -0.2690 -0.4923
  224MOL   H19845244   4.151   0.535   1.073 -0.5426 -1.1273 -0.3084
  224MOL   H19945245   4.239   0.706   0.838 -1.5499  1.3959 -0.2281
  224MOL   H20045246   4.446   0.704   1.005  3.9442 -2.5578 -1.5068
  224MOL   H20145247   4.450   0.568   0.904 -0.5537 -1.9253  1.0390
  224MOL   H20245248   4.382   0.547   1.065  3.0519 -1.5921 -0.0929
  225MOL     C145249   4.849   2.055   6.655 -0.1559 -0.7760  0.5893
  225MOL     C245250   4.792   2.000   6.784  0.1654  0.0441  0.0967
  225MOL     C345251   4.673   1.939   6.789  0.5160  0.0590 -1.5101
  225MOL     C445252   4.604   1.897   6.913 -0.9893  0.1211  0.7290
  225MOL     H545253   4.762   2.083   6.596  0.6339  0.9704  0.2019
  225MOL     H645254   4.908   1.982   6.599 -1.0421 -0.7984 -0.3269
  225MOL     H745255   4.846   2.018   6.876 -3.6108  0.0843  2.4189
  225MOL     H845256   4.624   1.920   6.695  0.1459  0.0670 -1.3179
  225MOL     H945257   4.656   1.913   7.008 -1.3180 -1.8196  1.2506
  225MOL    H1045258   4.612   1.789   6.905  1.4507  0.3115  0.0146
  225MOL    H1145259   4.905   2.147   6.673  0.4975 -0.7445 -1.4209
  225MOL    C1245260   4.466   1.949   6.905  0.3384 -0.4040  0.3666
  225MOL    C1345261   4.385   1.932   7.039 -0.2363  0.7782  0.6912
  225MOL    C1445262   4.269   1.869   7.067 -0.8867  0.3255  0.9990
  225MOL    C1545263   4.190   1.894   7.195 -0.5048 -0.0300 -0.5670
  225MOL    H1645264   4.462   2.057   6.891 -4.0207 -0.0606  3.3643
  225MOL    H1745265   4.408   1.898   6.828 -0.1986  1.5232 -0.5425
  225MOL    H1845266   4.420   2.007   7.109  2.5807  0.7166 -0.5985
  225MOL    H1945267   4.232   1.798   6.995 -0.5556 -0.2301  1.3692
  225MOL    H2045268   4.094   1.935   7.164  0.0752  0.1293 -2.1653
  225MOL    H2145269   4.236   1.966   7.263 -1.2778  1.0080 -1.1427
  225MOL    C2245270   4.176   1.760   7.267 -0.2914 -0.1070 -0.0054
  225MOL    C2345271   4.104   1.763   7.396  0.1806  0.5640  0.0296
  225MOL    C2445272   4.162   1.735   7.517  1.1809 -0.3557  0.6605
  225MOL    C2545273   4.095   1.739   7.646  0.1474 -0.4088  0.3792
  225MOL    H2645274   4.123   1.692   7.201  0.9795 -0.3595 -0.7845
  225MOL    H2745275   4.270   1.708   7.284 -0.5138 -0.2389  0.8477
  225MOL    H2845276   4.002   1.797   7.391 -0.1652  0.1242  2.9587
  225MOL    H2945277   4.263   1.696   7.518  1.2343 -0.2106  0.9727
  225MOL    H3045278   4.008   1.805   7.649  1.5099  1.4420 -0.4315
  225MOL    H3145279   4.165   1.779   7.719 -0.0992  0.1625  0.3046
  225MOL    C3245280   4.055   1.598   7.698  1.0981  0.0689  0.2484
  225MOL    C3345281   3.931   1.538   7.626 -0.0275 -0.5222  0.3758
  225MOL    C3445282   3.815   1.522   7.690 -0.9339  0.4120  0.3595
  225MOL    C3545283   3.693   1.453   7.641 -0.3967  0.2398  0.3656
  225MOL    H3645284   4.139   1.530   7.685 -0.5528 -1.4605 -2.8281
  225MOL    H3745285   4.042   1.603   7.806  0.8644  2.1652  0.1404
  225MOL    H3845286   3.949   1.514   7.522 -1.8387 -1.3824  0.2226
  225MOL    H3945287   3.800   1.555   7.792 -0.3977 -0.1752  0.6317
  225MOL    H4045288   3.613   1.527   7.650  0.7242  1.5284  0.0025
  225MOL    H4145289   3.675   1.373   7.713  1.3757 -0.2569  0.2759
  225MOL    C4245290   3.699   1.384   7.502 -0.4045 -0.4687 -0.0064
  225MOL    C4345291   3.575   1.297   7.482  0.2636 -1.4648  0.0127
  225MOL    C4445292   3.562   1.167   7.510 -0.5990 -0.6101  0.6996
  225MOL    C4545293   3.433   1.091   7.496  0.0500  0.7049  0.0417
  225MOL    H4645294   3.714   1.455   7.421 -1.4734  0.2626  0.4255
  225MOL    H4745295   3.786   1.320   7.514  0.4734  0.8845  1.0208
  225MOL    H4845296   3.487   1.355   7.461  1.1966  0.3620  0.9639
  225MOL    H4945297   3.649   1.117   7.552 -0.1262 -0.2349  0.1814
  225MOL    H5045298   3.423   1.023   7.411 -0.3981  2.1647 -1.1046
  225MOL    H5145299   3.354   1.163   7.474  1.8429  3.0046  0.9344
  225MOL    C5245300   3.406   1.003   7.627  0.1320 -0.7701  0.5584
  225MOL    C5345301   3.250   0.968   7.633 -0.1868  0.1480 -0.1613
  225MOL    C5445302   3.173   0.978   7.739  0.2025  0.0003 -0.0477
  225MOL    C5545303   3.028   0.928   7.749 -0.1257  0.1107 -0.3015
  225MOL    H5645304   3.458   0.909   7.612 -2.3126 -1.8431 -1.6808
  225MOL    H5745305   3.454   1.038   7.718  1.7150 -1.8710  0.1546
  225MOL    H5845306   3.202   0.934   7.542  0.1748  0.6466 -0.5419
  225MOL    H5945307   3.202   1.019   7.835  1.1153  2.1939 -1.2248
  225MOL    H6045308   3.014   0.870   7.658  2.4205  0.5212 -0.9910
  225MOL    H6145309   2.959   1.012   7.745  0.4762  0.5678 -1.3973
  225MOL    C6245310   3.003   0.837   7.870 -0.5866  0.1923  0.1617
  225MOL    C6345311   2.857   0.785   7.874 -0.0839 -0.2085 -0.0124
  225MOL    C6445312   2.831   0.660   7.917 -0.0565 -0.0650  0.5639
  225MOL    C6545313   2.702   0.588   7.939  0.1992 -0.0525  1.0263
  225MOL    H6645314   3.080   0.759   7.870  0.0840  0.8507  0.7794
  225MOL    H6745315   3.014   0.894   7.962 -0.9201 -2.3394  1.8338
  225MOL    H6845316   2.777   0.851   7.843  0.1741  0.5225  0.8529
  225MOL    H6945317   2.920   0.605   7.944  0.8306  0.3724 -1.3881
  225MOL    H7045318   2.717   0.556   0.065  0.7090 -0.0017  0.9710
  225MOL    H7145319   2.705   0.492   7.888  0.5739 -0.0651  1.0667
  225MOL    C7245320   2.573   0.674   7.915 -0.6724 -0.6953  0.4080
  225MOL    C7345321   2.447   0.597   7.929  0.4042  0.6364  0.8178
  225MOL    C7445322   2.347   0.574   7.836  0.1678 -0.6533  0.6587
  225MOL    C7545323   2.229   0.479   7.854 -0.7016 -0.2811 -0.4667
  225MOL    H7645324   2.577   0.761   0.004 -1.2597 -0.0660 -0.3734
  225MOL    H7745325   2.570   0.720   7.817 -1.5507  0.0929  0.7989
  225MOL    H7845326   2.434   0.541   0.043 -0.4037 -1.6961 -0.6936
  225MOL    H7945327   2.357   0.618   7.738  0.0846 -0.5938  0.6783
  225MOL    H8045328   2.137   0.532   7.881 -0.0282  1.9364 -2.4241
  225MOL    H8145329   2.233   0.418   7.944 -0.2079 -0.4905 -0.6299
  225MOL    C8245330   2.224   0.385   7.739 -0.1036  0.3042  0.5676
  225MOL    C8345331   2.105   0.288   7.744 -0.3759  0.4631  0.3697
  225MOL    C8445332   1.987   0.326   7.693  0.2319  0.0310  0.3019
  225MOL    C8545333   1.862   0.241   7.672 -0.4172  0.2709  0.0175
  225MOL    H8645334   2.218   0.440   7.645 -1.6127  0.5029  0.7625
  225MOL    H8745335   2.309   0.317   7.734  0.0054  0.3980  1.1775
  225MOL    H8845336   2.120   0.193   7.793  1.0765 -0.3976 -1.6877
  225MOL    H8945337   1.984   0.418   7.637  1.5392  0.3241  0.6819
  225MOL    H9045338   1.870   0.132   7.671  0.5529  0.3530 -1.0167
  225MOL    H9145339   1.812   0.266   7.579 -3.2581  0.2482  1.4616
  225MOL    C9245340   1.771   0.280   7.786 -0.5399  0.4114 -0.2050
  225MOL    C9345341   1.627   0.230   7.762 -0.1049  0.7992  0.4712
  225MOL    C9445342   1.570   0.135   7.839 -0.0946  0.3759 -0.1453
  225MOL    C9545343   1.428   0.085   7.805  0.0589 -1.2375 -0.7908
  225MOL    H9645344   1.806   0.228   7.876 -0.9747  0.0833 -0.2223
  225MOL    H9745345   1.763   0.387   7.802  0.4658  0.7539 -1.8449
  225MOL    H9845346   1.585   0.277   7.674  1.5687  0.2854 -0.6118
  225MOL    H9945347   1.627   0.085   7.916  1.7683  0.2496 -1.5738
  225MOL   H10045348   1.427   7.969   7.748  1.1013 -1.6688 -0.1202
  225MOL   H10145349   1.373   0.142   7.730  1.4103 -0.9305 -1.5717
  225MOL   C10245350   1.334   0.066   7.935 -0.5182 -0.2554  0.3446
  225MOL   C10345351   1.413   7.972   0.067  0.2159  0.1020 -0.4101
  225MOL   C10445352   1.402   0.032   0.196  0.0729 -0.0214 -0.4722
  225MOL   C10545353   1.476   7.933   0.311 -0.0442 -0.0230 -0.4919
  225MOL   H10645354   1.313   0.163   0.003 -2.2322 -1.2498  1.7676
  225MOL   H10745355   1.241   0.011   7.919  0.8014 -1.7800 -2.3257
  225MOL   H10845356   1.466   7.884   0.035  0.8742  1.1060 -2.1270
  225MOL   H10945357   1.345   0.121   0.218 -2.6196 -2.3968  2.4595
  225MOL   H11045358   1.491   7.833   0.270 -2.3553 -0.2793 -0.8093
  225MOL   H11145359   1.418   7.916   0.401  0.8290 -1.3505 -0.1703
  225MOL   C11245360   1.605   0.036   0.357 -0.3890 -0.3900 -0.0964
  225MOL   C11345361   1.688   7.951   0.473  0.2937 -0.7342 -0.3593
  225MOL   C11445362   1.747   0.041   0.576  0.1171 -0.2763 -0.0410
  225MOL   C11545363   1.838   7.957   0.677  0.9653  0.1028  0.2241
  225MOL   H11645364   1.678   0.042   0.277 -0.7458 -0.4883 -0.4293
  225MOL   H11745365   1.580   0.139   0.382 -0.1264 -0.5845  1.0214
  225MOL   H11845366   1.694   7.844   0.466 -0.1981 -0.9172  1.8650
  225MOL   H11945367   1.735   0.148   0.585 -1.5973 -0.3602 -1.0978
  225MOL   H12045368   1.819   7.851   0.693 -0.1879  0.1093 -1.0999
  225MOL   H12145369   1.811   0.025   0.773  0.7098 -0.9372  0.6434
  225MOL   C12245370   1.981   0.012   0.632 -0.1554  0.3440 -0.1366
  225MOL   C12345371   2.028   7.895   0.517  0.1417  0.2605 -0.1167
  225MOL   C12445372   2.142   7.823   0.517  0.1368  0.1535  0.4421
  225MOL   C12545373   2.190   7.725   0.413  0.2397  0.3666  0.0454
  225MOL   H12645374   1.989   0.114   0.593 -1.0485  0.6848  0.5623
  225MOL   H12745375   2.055   0.013   0.712 -0.2331  3.0166 -0.0444
  225MOL   H12845376   1.958   7.883   0.436 -1.6663 -0.3327  1.5072
  225MOL   H12945377   2.202   7.839   0.606  0.1809 -1.6702  0.7538
  225MOL   H13045378   2.134   7.745   0.322 -1.1480  2.6610  1.3479
  225MOL   H13145379   2.157   7.633   0.461  0.9451 -0.0536 -0.2625
  225MOL   C13245380   2.336   7.741   0.393 -0.4128  0.4085  0.5553
  225MOL   C13345381   2.392   7.615   0.326 -0.4856  0.1554 -0.4204
  225MOL   C13445382   2.462   7.620   0.210 -0.3620  0.3011  0.0702
  225MOL   C13545383   2.535   7.500   0.153  0.0467  0.8415  0.0884
  225MOL   H13645384   2.352   7.833   0.338  0.7438  1.1019  2.0296
  225MOL   H13745385   2.384   7.750   0.491 -2.5084 -0.0832  1.6666
  225MOL   H13845386   2.386   7.521   0.379 -0.0285 -0.0016 -0.6420
  225MOL   H13945387   2.471   7.714   0.157  1.8006  0.8546  1.3562
  225MOL   H14045388   2.492   7.409   0.196  0.5399  0.5945  0.0701
  225MOL   H14145389   2.639   7.510   0.184  0.4963  4.1835 -2.2019
  225MOL   C14245390   2.536   7.494   7.973 -0.1395 -0.6248  0.2548
  225MOL   C14345391   2.397   7.541   7.915 -0.5823  0.0062  0.3950
  225MOL   C14445392   2.385   7.632   7.818 -0.3306 -0.2280 -0.3730
  225MOL   C14545393   2.253   7.668   7.743 -0.5306  0.4801  0.4183
  225MOL   H14645394   2.626   7.543   7.936  0.9176 -1.7946  1.2570
  225MOL   H14745395   2.550   7.390   7.946  1.8200 -0.3801  0.2909
  225MOL   H14845396   2.314   7.481   7.951 -0.3304 -0.9337 -0.5744
  225MOL   H14945397   2.472   7.681   7.777  1.8482 -1.2789  2.7917
  225MOL   H15045398   2.166   7.604   7.758  0.2793 -0.2986  1.8429
  225MOL   H15145399   2.268   7.645   7.637 -1.6885  0.2559  0.2910
  225MOL   C15245400   2.217   7.812   7.756 -0.6212  0.2561 -0.5104
  225MOL   C15345401   2.109   7.854   7.660  0.2132 -0.5598  0.5853
  225MOL   C15445402   2.124   7.897   7.532 -0.5010 -0.0148 -0.2535
  225MOL   C15545403   2.009   7.933   7.445  0.4670  0.9755 -0.4387
  225MOL   H15645404   2.186   7.834   7.858  0.5164 -0.8913  0.0974
  225MOL   H15745405   2.303   7.875   7.731 -0.4804  0.2429 -0.0622
  225MOL   H15845406   2.008   7.845   7.697  0.6099  1.2093  2.1820
  225MOL   H15945407   2.219   7.913   7.484 -0.1216 -0.7372  0.2504
  225MOL   H16045408   2.007   0.065   7.441 -0.5240  0.9377 -1.2627
  225MOL   H16145409   1.919   7.906   7.500 -0.4866  0.9721 -1.9746
  225MOL   C16245410   2.015   7.890   7.297  0.2065  0.3035 -0.0542
  225MOL   C16345411   2.122   7.967   7.219  0.2175  0.0898  0.1768
  225MOL   C16445412   2.233   7.912   7.188  0.9527 -0.2773  0.6918
  225MOL   C16545413   2.341   0.005   7.108 -0.1221  0.1185  0.5213
  225MOL   H16645414   2.018   7.783   7.279 -0.1218  0.2819  0.0156
  225MOL   H16745415   1.922   7.921   7.249 -0.2741 -0.7669  0.1799
  225MOL   H16845416   2.123   0.098   7.216 -0.4341  0.0956  0.1959
  225MOL   H16945417   2.247   7.805   7.195 -2.8624 -0.7677  1.7728
  225MOL   H17045418   2.401   0.061   7.179  0.9593 -1.3090  0.7430
  225MOL   H17145419   2.291   0.070   7.036 -0.2629 -0.5625  0.0030
  225MOL   C17245420   2.436   7.886   7.038  0.2520 -0.4561  1.1397
  225MOL   C17345421   2.549   7.962   6.964 -0.6253 -0.2573  0.1030
  225MOL   C17445422   2.594   7.925   6.844 -0.9569  0.0489 -0.4240
  225MOL   C17545423   2.706   0.024   6.771  0.3786  0.7549  0.3109
  225MOL   H17645424   2.482   7.814   7.107 -0.2423 -0.0656  1.8864
  225MOL   H17745425   2.374   7.827   6.971  2.1341  0.3121 -1.3358
  225MOL   H17845426   2.594   0.063   7.024 -1.9546  0.4823  0.1544
  225MOL   H17945427   2.555   7.839   6.791 -0.5438 -0.7287  0.5196
  225MOL   H18045428   2.720   0.123   6.814  2.5873  0.6363 -0.0789
  225MOL   H18145429   2.663   0.057   6.677 -1.1211 -4.5488 -1.0567
  225MOL   C18245430   2.835   7.920   6.750  0.0710 -0.5309 -0.5028
  225MOL   C18345431   2.842   7.837   6.626 -0.5861  1.3561 -0.4621
  225MOL   C18445432   2.808   7.863   6.501  0.1320  0.2871  0.4450
  225MOL   C18545433   2.832   7.766   6.388 -0.3542  0.1566  0.4223
  225MOL   H18645434   2.930   7.973   6.753  2.5540 -4.8329 -0.3229
  225MOL   H18745435   2.860   7.853   6.832  1.0427  1.2586  0.7137
  225MOL   H18845436   2.891   7.745   6.653  0.0826  2.0404  0.7055
  225MOL   H18945437   2.756   7.957   6.485 -0.0810  0.1012  0.0241
  225MOL   H19045438   2.917   7.808   6.334 -1.1771  2.1618  0.6696
  225MOL   H19145439   2.747   7.755   6.321 -1.8760  1.6760  2.0297
  225MOL   C19245440   2.874   7.620   6.431 -0.3426 -0.8700 -0.7286
  225MOL   C19345441   2.923   7.556   6.300 -0.0958 -0.2597 -0.1948
  225MOL   C19445442   3.043   7.502   6.277  0.0600  0.5626  1.0957
  225MOL   C19545443   3.084   7.413   6.162 -0.1863 -0.1687  0.1775
  225MOL   H19645444   2.958   7.616   6.500 -1.8665 -0.1329  1.2034
  225MOL   H19745445   2.792   7.561   6.471 -0.2908 -1.0657 -0.9103
  225MOL   H19845446   2.853   7.560   6.218 -0.1692 -2.0974 -0.2355
  225MOL   H19945447   3.118   7.494   6.354  1.1600  0.4172  0.0208
  225MOL   H20045448   3.192   7.426   6.152 -0.4109  2.3683  0.6194
  225MOL   H20145449   3.029   7.427   6.069 -0.4393 -0.5048  0.2767
  225MOL   H20245450   3.062   7.315   6.203 -0.1195 -0.6584 -0.9604
  226MOL     C145451   7.836   1.063   7.153  0.2302 -0.1799  0.1304
  226MOL     C245452   0.009   1.036   7.113 -0.3475  0.0912  0.1534
  226MOL     C345453   0.048   0.970   7.003  0.1345  0.0531  0.9944
  226MOL     C445454   0.190   0.928   6.972  0.7200 -0.5734  0.5572
  226MOL     H545455   7.828   1.168   7.181 -0.0744  0.1957 -1.2904
  226MOL     H645456   7.815   0.990   7.231 -1.0715 -0.7226 -0.7041
  226MOL     H745457   0.081   1.098   7.164 -0.3286  2.7066 -2.9049
  226MOL     H845458   7.950   0.912   6.952 -0.6334  1.1702  0.8431
  226MOL     H945459   0.190   0.823   6.943  1.0908  0.1820 -2.3875
  226MOL    H1045460   0.247   0.952   7.061  0.7988  0.6792  0.1806
  226MOL    H1145461   7.777   1.053   7.061 -2.1353 -0.4104  1.6159
  226MOL    C1245462   0.264   1.004   6.852 -0.5789  0.4556 -0.2497
  226MOL    C1345463   0.401   0.939   6.827 -0.3321 -0.5400  0.0682
  226MOL    C1445464   0.446   0.875   6.718 -0.4303  0.1579  0.1808
  226MOL    C1545465   0.577   0.804   6.713  0.0454  0.4008  0.1524
  226MOL    H1645466   0.206   0.990   6.761 -0.5723 -0.2399 -0.1553
  226MOL    H1745467   0.269   1.110   6.875 -2.1768  0.4640  0.1139
  226MOL    H1845468   0.457   0.944   6.919  3.2998  1.1119 -2.1232
  226MOL    H1945469   0.389   0.859   6.628  0.5304  1.0876 -0.6012
  226MOL    H2045470   0.566   0.696   6.698  2.6500 -0.2176  2.3077
  226MOL    H2145471   0.628   0.821   6.808 -0.0319  0.5341  0.1690
  226MOL    C2245472   0.663   0.851   6.598 -0.3144 -0.2057 -0.7393
  226MOL    C2345473   0.604   0.818   6.465  0.0139  0.5396 -0.7045
  226MOL    C2445474   0.670   0.773   6.359  0.1297  1.1294  0.6522
  226MOL    C2545475   0.597   0.760   6.230  0.0970  0.9559 -0.5397
  226MOL    H2645476   0.684   0.957   6.607  1.4885 -0.4004 -2.2007
  226MOL    H2745477   0.763   0.806   6.600  0.9056  2.2852 -2.5180
  226MOL    H2845478   0.500   0.829   6.439 -0.1462  0.2030 -0.2230
  226MOL    H2945479   0.778   0.772   6.362  0.1262  1.3860  0.9453
  226MOL    H3045480   0.488   0.761   6.230  0.0568 -1.0639 -1.5679
  226MOL    H3145481   0.628   0.661   6.196 -0.9047 -0.0001  1.2713
  226MOL    C3245482   0.642   0.868   6.135  0.3755  0.4963 -0.1567
  226MOL    C3345483   0.628   1.010   6.180  0.4315  0.5034  0.1537
  226MOL    C3445484   0.725   1.082   6.231  0.3578 -0.0800  0.7315
  226MOL    C3545485   0.711   1.220   6.296  0.2478  0.8447  0.0995
  226MOL    H3645486   0.746   0.844   6.113 -0.2330 -1.4422 -0.9828
  226MOL    H3745487   0.590   0.845   6.042 -0.1979  1.3202 -0.0454
  226MOL    H3845488   0.526   1.046   6.179  0.4939  0.6649 -0.3383
  226MOL    H3945489   0.823   1.037   6.232 -1.2581 -3.8844 -0.5876
  226MOL    H4045490   0.683   1.207   6.401  0.0716 -1.1169 -0.1698
  226MOL    H4145491   0.624   1.272   6.255  0.8610  0.6221 -1.4983
  226MOL    C4245492   0.840   1.303   6.292  0.0669  0.1641 -0.7047
  226MOL    C4345493   0.811   1.451   6.275 -0.4384 -0.5287 -0.0290
  226MOL    C4445494   0.826   1.541   6.376 -0.2354  0.3631 -0.0801
  226MOL    C4545495   0.803   1.689   6.361 -0.6614  0.2847  0.3616
  226MOL    H4645496   0.895   1.286   6.385 -0.8153  0.1017 -0.1904
  226MOL    H4745497   0.894   1.270   6.203 -0.1278 -1.4181 -0.2551
  226MOL    H4845498   0.771   1.480   6.179 -0.4631  2.1373  0.7568
  226MOL    H4945499   0.850   1.519   6.479  0.1796 -0.1037 -0.2740
  226MOL    H5045500   0.701   1.704   6.325 -0.1146 -0.6441 -1.6808
  226MOL    H5145501   0.854   1.729   6.273 -1.4701  0.4062 -0.0647
  226MOL    C5245502   0.825   1.766   6.490  0.0156  0.1278  0.2119
  226MOL    C5345503   0.798   1.914   6.483  0.2136 -0.2841 -0.5559
  226MOL    C5445504   0.743   1.974   6.373 -0.1359 -0.1159  0.5460
  226MOL    C5545505   0.734   2.122   6.376 -0.1180 -0.4392 -0.7466
  226MOL    H5645506   0.754   1.727   6.562  0.9692 -1.3765  0.3538
  226MOL    H5745507   0.926   1.752   6.528  0.3788 -0.3258 -0.9027
  226MOL    H5845508   0.815   1.972   6.572  0.7440  0.7534 -1.3086
  226MOL    H5945509   0.713   1.909   6.293  1.7004 -0.5790  0.2263
  226MOL    H6045510   0.806   2.161   6.448 -0.5095 -0.0144 -0.5759
  226MOL    H6145511   0.637   2.146   6.420  0.3493  0.1835 -0.0368
  226MOL    C6245512   0.754   2.178   6.237 -0.6561  0.2184 -0.6441
  226MOL    C6345513   0.732   2.330   6.243  0.4163 -0.4059  0.4725
  226MOL    C6445514   0.613   2.390   6.255  0.3639 -0.3498 -0.0329
  226MOL    C6545515   0.589   2.540   6.273  0.3092  0.5875  0.0949
  226MOL    H6645516   0.850   2.155   6.190 -0.7236 -0.6088 -0.3886
  226MOL    H6745517   0.689   2.135   6.161 -1.5774  0.1326  0.1807
  226MOL    H6845518   0.819   2.395   6.237 -1.0221  1.6090  1.0905
  226MOL    H6945519   0.526   2.326   6.252  0.1932 -0.0659 -2.1728
  226MOL    H7045520   0.537   2.590   6.191  1.0723  1.7807  0.3255
  226MOL    H7145521   0.681   2.597   6.286  0.4130  0.1915  1.2014
  226MOL    C7245522   0.515   2.588   6.409  0.2140  0.6705 -0.2668
  226MOL    C7345523   0.501   2.738   6.429 -0.2018 -0.0593 -0.4459
  226MOL    C7445524   0.386   2.806   6.418 -0.4045 -0.6430  1.0488
  226MOL    C7545525   0.366   2.953   6.455 -0.0461  0.5170  0.3135
  226MOL    H7645526   0.419   2.539   6.393 -0.8050  1.6618  2.4772
  226MOL    H7745527   0.555   2.532   6.493  2.0762  1.4777 -0.5967
  226MOL    H7845528   0.584   2.783   6.481  0.1843 -1.0986 -0.1538
  226MOL    H7945529   0.297   2.758   6.380 -1.8386  1.5002  1.5688
  226MOL    H8045530   0.453   3.005   6.495  0.4313  0.0560 -0.1285
  226MOL    H8145531   0.291   2.950   6.534 -1.0614 -0.9809 -0.6864
  226MOL    C8245532   0.318   3.037   6.339  0.7537 -0.4299 -0.2530
  226MOL    C8345533   0.301   3.183   6.376  0.6150 -0.0997  0.2719
  226MOL    C8445534   0.179   3.237   6.384  0.1535 -0.4194 -0.3131
  226MOL    C8545535   0.154   3.380   6.419  0.3054 -0.1125  0.4366
  226MOL    H8645536   0.394   3.027   6.262 -0.4733 -1.5915 -1.3381
  226MOL    H8745537   0.231   2.999   6.285  0.4699  1.2700 -1.0033
  226MOL    H8845538   0.386   3.248   6.393  0.9381 -0.2567 -0.6878
  226MOL    H8945539   0.086   3.184   6.370 -0.6667  1.2784 -1.5157
  226MOL    H9045540   0.095   3.430   6.343  0.6252 -0.8278 -0.2897
  226MOL    H9145541   0.246   3.439   6.419  0.8442 -0.9299 -1.6390
  226MOL    C9245542   0.076   3.404   6.544 -0.5183  0.1330 -0.3331
  226MOL    C9345543   0.032   3.550   6.556 -0.0127 -0.7733 -0.4416
  226MOL    C9445544   7.901   3.582   6.627 -0.0039 -0.4080 -0.3315
  226MOL    C9545545   7.837   3.715   6.647 -0.1115 -0.6676 -0.0374
  226MOL    H9645546   7.963   3.343   6.560 -0.3780  0.2758  1.1007
  226MOL    H9745547   0.137   3.376   6.630  0.0945 -0.5518 -0.9890
  226MOL    H9845548   0.095   3.620   6.504 -0.3044  0.4969  0.8687
  226MOL    H9945549   7.853   3.496   6.673  0.0621  0.6710  1.8351
  226MOL   H10045550   7.799   3.722   6.748  0.1037 -2.2091  0.1667
  226MOL   H10145551   7.748   3.714   6.585 -1.3849  4.8666  1.4233
  226MOL   C10245552   7.919   3.836   6.616 -0.4165 -0.4335  0.1387
  226MOL   C10345553   7.871   3.967   6.676 -0.2366  1.5137  0.1210
  226MOL   C10445554   7.897   4.011   6.801 -0.1559  0.7214  0.4003
  226MOL   C10545555   7.857   4.144   6.855  1.1989 -0.2779 -0.1003
  226MOL   H10645556   0.034   3.831   6.674  0.1816 -0.2442 -0.7941
  226MOL   H10745557   7.917   3.825   6.508 -0.0085 -0.2907  0.1166
  226MOL   H10845558   7.831   4.038   6.606  0.9708  0.6984 -1.4293
  226MOL   H10945559   7.941   3.942   6.872 -0.6173 -0.3782 -0.3645
  226MOL   H11045560   7.779   4.161   6.780  1.2829  0.3321 -0.0524
  226MOL   H11145561   7.939   4.215   6.854  2.3646 -1.5249  2.7386
  226MOL   C11245562   7.781   4.127   6.985  0.4897  0.0077  0.0407
  226MOL   C11345563   7.795   4.258   7.064 -0.3210  0.8009  0.7420
  226MOL   C11445564   7.844   4.264   7.184 -0.3961 -0.5174  0.2946
  226MOL   C11545565   7.832   4.387   7.262  0.3386 -0.3967  0.7572
  226MOL   H11645566   7.676   4.098   6.987  0.7073 -0.7514  1.3894
  226MOL   H11745567   7.836   4.047   7.036  1.1302  0.6617  0.3858
  226MOL   H11845568   7.750   4.349   7.026  0.6870  1.2127  0.5159
  226MOL   H11945569   7.875   4.184   7.250 -0.1773  0.7791  1.8005
  226MOL   H12045570   7.809   4.473   7.199 -1.0332 -1.7013 -0.5836
  226MOL   H12145571   7.934   4.405   7.295 -0.3163  1.6501  1.7509
  226MOL   C12245572   7.729   4.380   7.369  0.4489 -0.4393 -0.8201
  226MOL   C12345573   7.588   4.377   7.313  0.2943 -0.3246  0.4324
  226MOL   C12445574   7.495   4.304   7.374  0.2805  0.6863  0.2550
  226MOL   C12545575   7.353   4.298   7.326  0.4691 -0.3380  0.1839
  226MOL   H12645576   7.734   4.293   7.435 -0.0604 -1.0745 -1.6168
  226MOL   H12745577   7.739   4.467   7.435  1.0997 -2.0906  1.3443
  226MOL   H12845578   7.557   4.441   7.231  1.1896  0.8137  0.9517
  226MOL   H12945579   7.524   4.241   7.456  0.3434  0.7490  0.2806
  226MOL   H13045580   7.325   4.195   7.306  0.4278 -0.0681 -1.2047
  226MOL   H13145581   7.346   4.359   7.236 -0.4038  0.6999  0.9410
  226MOL   C13245582   7.262   4.359   7.433 -0.1242 -0.2863 -0.3673
  226MOL   C13345583   7.283   4.301   7.575  0.8361  0.0697 -0.4169
  226MOL   C13445584   7.321   4.373   7.682 -0.3595 -0.3755 -0.4773
  226MOL   C13545585   7.339   4.303   7.816 -0.1068  0.4326 -0.1135
  226MOL   H13645586   7.275   4.467   7.442  1.4284 -0.6651  2.5103
  226MOL   H13745587   7.156   4.347   7.408  0.0096  0.4073 -1.3107
  226MOL   H13845588   7.266   4.194   7.580 -1.7572  0.4029 -1.5710
  226MOL   H13945589   7.346   4.478   7.681  0.7356 -0.6330 -1.0493
  226MOL   H14045590   7.441   4.266   7.827 -0.0781  0.4603 -0.2766
  226MOL   H14145591   7.263   4.226   7.807  1.1710 -0.8756  0.1324
  226MOL   C14245592   7.300   4.392   7.936  0.1109  0.0161 -0.6816
  226MOL   C14345593   7.372   4.331   0.089  0.1204 -0.2979  0.3295
  226MOL   C14445594   7.463   4.405   0.157  0.0649 -0.0596 -0.2271
  226MOL   C14545595   7.522   4.344   0.281  1.0909 -0.2209 -0.4023
  226MOL   H14645596   7.333   4.492   7.909  0.1820 -0.1575 -1.2538
  226MOL   H14745597   7.192   4.386   7.950  0.1401  2.3064  0.7387
  226MOL   H14845598   7.340   4.233   0.123 -0.8272 -0.6164 -1.4265
  226MOL   H14945599   7.479   4.505   0.122  0.1506  0.7117  1.9197
  226MOL   H15045600   7.627   4.365   0.263  0.7167 -0.4219 -2.9426
  226MOL   H15145601   7.517   4.235   0.277 -0.5928 -0.1898  0.3136
  226MOL   C15245602   7.478   4.397   0.419 -0.8901  0.4742 -0.7139
  226MOL   C15345603   7.541   4.306   0.516  1.1540  0.3131 -0.4178
  226MOL   C15445604   7.642   4.329   0.601  0.1072  0.9151 -0.0123
  226MOL   C15545605   7.680   4.229   0.708  0.9049  0.9411 -0.5774
  226MOL   H15645606   7.498   4.504   0.432 -0.2465  0.5214 -2.0214
  226MOL   H15745607   7.372   4.375   0.428 -1.1044  1.3398 -0.9892
  226MOL   H15845608   7.498   4.208   0.530  0.8156  0.0714 -2.9103
  226MOL   H15945609   7.676   4.431   0.598 -3.2605  2.0649 -2.6176
  226MOL   H16045610   7.636   4.133   0.684 -0.1662  0.8743  1.4937
  226MOL   H16145611   7.642   4.272   0.801  1.7654  0.8672 -0.1822
  226MOL   C16245612   7.833   4.213   0.725 -0.2194 -0.1426  0.2239
  226MOL   C16345613   7.872   4.099   0.828 -0.0144  0.2678 -0.5505
  226MOL   C16445614   7.933   4.118   0.947  0.4262 -0.4621  0.5429
  226MOL   C16545615   7.956   4.014   1.053  0.1830  0.5876  0.5836
  226MOL   H16645616   7.871   4.178   0.629  2.2292 -0.6380  1.3314
  226MOL   H16745617   7.890   4.303   0.744 -0.8644  0.4043 -0.3816
  226MOL   H16845618   7.824   4.002   0.825  0.5764 -0.0117 -1.2984
  226MOL   H16945619   0.001   4.212   0.974  2.2923 -0.9050 -0.9594
  226MOL   H17045620   7.924   3.913   1.025 -3.3417  0.8093  3.5556
  226MOL   H17145621   7.915   4.045   1.149 -1.9561 -1.2734  0.3169
  226MOL   C17245622   0.128   4.001   1.073  0.3805  0.0010 -0.2395
  226MOL   C17345623   0.161   3.901   1.176 -0.2064  0.0311 -0.3184
  226MOL   C17445624   0.224   3.938   1.286  0.2966 -0.1339  0.5846
  226MOL   C17545625   0.254   3.856   1.404 -0.2598 -0.0196  0.2520
  226MOL   H17645626   0.169   3.967   0.978 -0.5608 -0.6678 -0.4043
  226MOL   H17745627   0.172   4.100   1.084  0.6561 -0.1664  0.1830
  226MOL   H17845628   0.126   3.799   1.163  0.3873 -0.5558  2.3681
  226MOL   H17945629   0.257   4.041   1.287  0.6749 -0.2244 -1.0735
  226MOL   H18045630   0.362   3.846   1.417 -0.3173 -2.0083 -0.6788
  226MOL   H18145631   0.233   3.754   1.373  0.6661  0.0429 -0.6132
  226MOL   C18245632   0.178   3.906   1.528  0.1040 -0.0300  0.0637
  226MOL   C18345633   0.225   4.047   1.570  0.5318  0.7357 -0.3549
  226MOL   C18445634   0.296   4.077   1.682  0.5151 -0.1190 -0.5412
  226MOL   C18545635   0.346   4.216   1.719 -0.2931 -0.1301  0.8366
  226MOL   H18645636   0.069   3.899   1.533  0.1494 -1.4218 -0.5694
  226MOL   H18745637   0.209   3.848   1.615 -1.8720  0.2377  0.9906
  226MOL   H18845638   0.214   4.117   1.489  1.2567 -1.1982 -2.1681
  226MOL   H18945639   0.315   3.996   1.751  2.2544 -0.6922 -1.6610
  226MOL   H19045640   0.305   4.291   1.653 -0.5511 -0.0453  1.0923
  226MOL   H19145641   0.455   4.206   1.717 -0.4655 -2.3149  1.2080
  226MOL   C19245642   0.326   4.247   1.871  0.4106 -0.3887  1.0567
  226MOL   C19345643   0.405   4.374   1.912 -0.0468 -0.2720  0.0167
  226MOL   C19445644   0.503   4.383   2.008  0.6631 -0.1978 -0.4941
  226MOL   C19545645   0.568   4.510   2.045  0.3355  0.0157  0.2611
  226MOL   H19645646   0.218   4.259   1.880  0.3722  0.1856 -0.0911
  226MOL   H19745647   0.354   4.165   1.936 -0.9588 -1.2125  0.6239
  226MOL   H19845648   0.382   4.469   1.865  0.7007 -0.0302  0.1417
  226MOL   H19945649   0.530   4.291   2.056 -1.0252 -0.3129  0.2697
  226MOL   H20045650   0.518   4.596   1.999  1.4525  0.1506 -0.7247
  226MOL   H20145651   0.668   4.517   2.003 -0.6983  1.8040 -2.0709
  226MOL   H20245652   0.569   4.516   2.154  0.4598  1.5154  0.1866
  227MOL     C145653   7.018   0.598   5.024 -0.5006  0.2987 -0.5148
  227MOL     C245654   7.112   0.632   5.136  0.4905 -0.2965 -0.6663
  227MOL     C345655   7.115   0.566   5.250 -0.1526 -0.2379 -0.0818
  227MOL     C445656   7.202   0.610   5.362  0.1115 -0.1806  0.2250
  227MOL     H545657   6.952   0.515   5.049  0.8843 -1.6754 -3.1874
  227MOL     H645658   7.068   0.580   4.929  0.2050  1.6935 -0.4231
  227MOL     H745659   7.169   0.721   5.115 -1.5734  1.2484  0.1213
  227MOL     H845660   7.052   0.480   5.265 -0.7105  0.1460 -0.1945
  227MOL     H945661   7.137   0.637   5.446 -1.5595 -0.7575 -0.8605
  227MOL    H1045662   7.254   0.696   5.320  0.5798 -1.3706 -1.6399
  227MOL    H1145663   6.952   0.685   5.014 -1.9640 -0.5622  1.3475
  227MOL    C1245664   7.307   0.505   5.404 -0.2965  0.3400  0.0790
  227MOL    C1345665   7.386   0.542   5.531  0.1135  0.0955 -0.5448
  227MOL    C1445666   7.390   0.660   5.592  0.0063 -0.6587 -0.2239
  227MOL    C1545667   7.479   0.706   5.706 -0.1146 -0.0300  0.1954
  227MOL    H1645668   7.263   0.407   5.421  1.1813 -0.1912  0.9557
  227MOL    H1745669   7.387   0.505   5.330  0.5164 -1.3514  0.9279
  227MOL    H1845670   7.458   0.468   5.564  0.4170 -0.0278 -1.4857
  227MOL    H1945671   7.311   0.725   5.558  0.4093 -0.5684 -1.0146
  227MOL    H2045672   7.492   0.813   5.691 -0.3939  0.3772  2.6260
  227MOL    H2145673   7.580   0.665   5.706  0.1748  0.6733  0.7456
  227MOL    C2245674   7.424   0.679   5.845  0.2929 -0.1333  0.0947
  227MOL    C2345675   7.529   0.688   5.952  0.2031  0.4174 -0.6050
  227MOL    C2445676   7.534   0.774   6.055 -0.1734  0.0105 -0.0416
  227MOL    C2545677   7.648   0.792   6.152 -0.0629  0.9311 -0.5901
  227MOL    H2645678   7.341   0.747   5.866  2.0153  2.4605 -1.3328
  227MOL    H2745679   7.380   0.579   5.850 -2.0042  0.7847 -0.8351
  227MOL    H2845680   7.619   0.629   5.945  0.6972  1.1278 -0.3648
  227MOL    H2945681   7.452   0.840   6.079 -0.5117 -0.6917  0.7865
  227MOL    H3045682   7.667   0.899   6.154  3.1194  0.4575 -2.9485
  227MOL    H3145683   7.744   0.747   6.126 -0.2826  0.3621 -0.4398
  227MOL    C3245684   7.596   0.742   6.297  0.3375 -0.3124 -0.1395
  227MOL    C3345685   7.708   0.764   6.401 -0.1538  0.2367 -0.5615
  227MOL    C3445686   7.693   0.816   6.524 -0.3204  0.2164  0.1036
  227MOL    C3545687   7.820   0.836   6.611 -0.4155 -0.4084  0.3486
  227MOL    H3645688   7.511   0.798   6.336  0.3571 -0.4221  0.0568
  227MOL    H3745689   7.555   0.641   6.293  0.9158 -0.6431  2.0909
  227MOL    H3845690   7.808   0.737   6.371  0.2009  1.1606 -0.2213
  227MOL    H3945691   7.599   0.847   6.567  0.4455 -1.7947  3.4306
  227MOL    H4045692   7.903   0.846   6.541 -0.8164  3.8651  0.3103
  227MOL    H4145693   7.850   0.752   6.672  0.6682 -1.2630 -1.3250
  227MOL    C4245694   7.815   0.967   6.689  0.3843  0.1108 -0.5001
  227MOL    C4345695   7.706   0.973   6.791 -0.7818  0.0768  0.2883
  227MOL    C4445696   7.620   1.077   6.810 -0.6396  0.4293 -0.0409
  227MOL    C4545697   7.498   1.075   6.898 -0.2663 -0.5156 -0.8537
  227MOL    H4645698   7.916   0.978   6.729 -0.2038  0.5131  0.8945
  227MOL    H4745699   7.805   1.056   6.628 -1.1370 -0.4454 -1.0670
  227MOL    H4845700   7.688   0.883   6.848 -1.2790  0.0376  0.0697
  227MOL    H4945701   7.624   1.162   6.743  0.4055  0.8402  0.5286
  227MOL    H5045702   7.507   1.166   6.957  0.0217 -1.0041 -0.1208
  227MOL    H5145703   7.496   0.993   6.970  0.5931  0.5551  0.4097
  227MOL    C5245704   7.374   1.108   6.812  0.0260  0.1615  0.4374
  227MOL    C5345705   7.252   1.151   6.887 -0.1169  0.0369  0.1054
  227MOL    C5445706   7.186   1.266   6.879 -0.8111  0.0778  0.5347
  227MOL    C5545707   7.063   1.306   6.960  0.4948 -0.0478  0.1292
  227MOL    H5645708   7.396   1.188   6.741  0.7640 -1.1094 -0.7960
  227MOL    H5745709   7.360   1.032   6.736  0.4237 -1.5441  2.0477
  227MOL    H5845710   7.215   1.079   6.958 -0.1577  0.4169  0.4693
  227MOL    H5945711   7.230   1.346   6.822  0.6544 -0.2352  1.2096
  227MOL    H6045712   7.002   1.216   6.968 -2.9940  1.9808 -2.4254
  227MOL    H6145713   7.000   1.365   6.894 -1.3785 -0.5865  1.3700
  227MOL    C6245714   7.083   1.354   7.104  0.3359 -0.4080 -0.4196
  227MOL    C6345715   6.948   1.397   7.159 -0.2313 -0.2886 -0.4043
  227MOL    C6445716   6.899   1.346   7.274  0.1197  0.2166 -0.6011
  227MOL    C6545717   6.765   1.387   7.331 -0.0399  0.5574  0.2755
  227MOL    H6645718   7.120   1.274   7.168  0.3674  0.4158  0.6078
  227MOL    H6745719   7.164   1.427   7.094  0.1309 -0.0036  0.7726
  227MOL    H6845720   6.904   1.476   7.101  0.2512  0.0024 -0.3783
  227MOL    H6945721   6.957   1.271   7.326 -0.3279  0.4719  0.2767
  227MOL    H7045722   6.718   1.291   7.355  1.9786 -0.2870  0.9215
  227MOL    H7145723   6.706   1.428   7.250  0.7070  2.8138  0.8539
  227MOL    C7245724   6.780   1.470   7.461 -0.5559 -1.0513  0.7557
  227MOL    C7345725   6.843   1.609   7.437  0.8074 -0.0400  0.3272
  227MOL    C7445726   6.778   1.724   7.454 -0.4853  0.1478 -0.2289
  227MOL    C7545727   6.850   1.859   7.456  0.1060  0.5600 -0.1375
  227MOL    H7645728   6.688   1.489   7.516 -0.3091  3.4105 -0.1954
  227MOL    H7745729   6.850   1.425   7.532 -1.6951 -1.9059  1.3602
  227MOL    H7845730   6.946   1.622   7.406  0.9435 -0.4864  0.5713
  227MOL    H7945731   6.675   1.721   7.485  0.6498 -2.8790  3.7845
  227MOL    H8045732   6.954   1.836   7.481 -0.3621 -0.8153  0.5815
  227MOL    H8145733   6.818   1.931   7.532 -2.5842 -0.0001 -0.7018
  227MOL    C8245734   6.859   1.932   7.324 -0.4073  0.4851 -0.7743
  227MOL    C8345735   6.724   1.965   7.266  0.2206 -0.1847  0.0663
  227MOL    C8445736   6.663   1.904   7.165 -0.4525 -0.3141  0.2303
  227MOL    C8545737   6.516   1.925   7.126 -1.0066  1.1492 -0.5487
  227MOL    H8645738   6.918   2.024   7.326 -0.6125  0.6101 -0.3050
  227MOL    H8745739   6.907   1.862   7.255 -1.0406 -0.5766 -0.1451
  227MOL    H8845740   6.672   2.050   7.307 -0.9940 -0.2763 -1.2287
  227MOL    H8945741   6.710   1.820   7.116  1.8108  0.7455  0.5113
  227MOL    H9045742   6.476   2.014   7.176 -1.7853 -0.7731  2.3624
  227MOL    H9145743   6.450   1.843   7.155 -0.7975  1.3927  0.6290
  227MOL    C9245744   6.507   1.936   6.971 -0.4383 -1.2080 -0.7601
  227MOL    C9345745   6.576   1.824   6.896  0.4444  1.0522 -0.1996
  227MOL    C9445746   6.588   1.691   6.918  0.2696 -0.2271 -0.1536
  227MOL    C9545747   6.673   1.599   6.837  0.4860  0.4974  0.5102
  227MOL    H9645748   6.404   1.956   6.942 -0.3336  0.2756 -0.1598
  227MOL    H9745749   6.563   2.029   6.957 -2.2477 -0.2291 -1.6244
  227MOL    H9845750   6.629   1.859   6.809 -0.9306 -0.2087 -1.5749
  227MOL    H9945751   6.539   1.643   7.001  0.5073  1.5347  1.0335
  227MOL   H10045752   6.735   1.530   6.895 -1.3269 -1.2255  0.4713
  227MOL   H10145753   6.749   1.660   6.787  0.1236  1.4401  1.1093
  227MOL   C10245754   6.582   1.526   6.731 -0.2663 -0.1424 -0.4006
  227MOL   C10345755   6.593   1.595   6.595 -0.0451 -0.0093  0.9322
  227MOL   C10445756   6.485   1.623   6.524 -0.0031 -0.4751 -0.4242
  227MOL   C10545757   6.485   1.695   6.397 -0.2088 -0.3801  0.2557
  227MOL   H10645758   6.615   1.423   6.716 -2.9985 -1.2972  1.1330
  227MOL   H10745759   6.480   1.524   6.770 -0.3028  2.5056 -0.2379
  227MOL   H10845760   6.694   1.611   6.559 -0.2395 -1.7859 -0.4648
  227MOL   H10945761   6.390   1.593   6.566 -0.4789  1.2247 -0.2460
  227MOL   H11045762   6.585   1.694   6.354  0.3147  0.4148  1.4354
  227MOL   H11145763   6.463   1.801   6.412  1.2383 -0.0514  0.0695
  227MOL   C11245764   6.400   1.633   6.290  0.3623 -0.6908 -0.3933
  227MOL   C11345765   6.372   1.721   6.171 -0.2936  0.1130  0.7483
  227MOL   C11445766   6.394   1.671   6.051  0.1423 -0.2662 -0.0847
  227MOL   C11545767   6.358   1.744   5.928  0.5976 -0.0112  0.3193
  227MOL   H11645768   6.435   1.536   6.257  1.8252 -1.1905  2.4808
  227MOL   H11745769   6.300   1.605   6.324  0.8043 -2.2998 -0.3918
  227MOL   H11845770   6.347   1.821   6.200  2.0189  0.9804 -0.0801
  227MOL   H11945771   6.412   1.565   6.038 -0.1427 -0.3116 -0.1138
  227MOL   H12045772   6.345   1.851   5.944 -0.6028 -0.1116  0.0646
  227MOL   H12145773   6.262   1.705   5.893  1.3124  0.1930 -1.9423
  227MOL   C12245774   6.454   1.714   5.809 -0.6076  0.1281  0.2718
  227MOL   C12345775   6.472   1.571   5.764 -0.2344  0.4089 -0.0135
  227MOL   C12445776   6.568   1.492   5.818  0.4723  0.1005 -0.9399
  227MOL   C12545777   6.591   1.354   5.782  0.7515 -0.3611  0.4235
  227MOL   H12645778   6.417   1.766   5.721 -2.0829 -0.7849  0.3415
  227MOL   H12745779   6.549   1.759   5.837 -0.0594 -1.3155  0.7805
  227MOL   H12845780   6.398   1.531   5.696  0.1069 -0.6743  0.2358
  227MOL   H12945781   6.650   1.530   5.877  0.8102 -2.7608  0.5250
  227MOL   H13045782   6.518   1.309   5.714  2.6368 -1.0977 -1.1761
  227MOL   H13145783   6.587   1.300   5.876 -2.1548 -0.4104  0.3188
  227MOL   C13245784   6.732   1.348   5.728 -0.1780 -0.3611  0.1439
  227MOL   C13345785   6.743   1.241   5.623  0.7595 -0.0570 -0.0612
  227MOL   C13445786   6.811   1.128   5.636  0.4647 -0.0422 -1.0041
  227MOL   C13545787   6.827   1.020   5.535  0.3294 -0.0063  0.4106
  227MOL   H13645788   6.764   1.441   5.680 -0.7689 -0.8403 -1.2005
  227MOL   H13745789   6.810   1.347   5.804  0.8648 -0.7461 -0.9147
  227MOL   H13845790   6.682   1.268   5.538  0.9847  1.3767  0.2214
  227MOL   H13945791   6.861   1.121   5.732 -1.0203  0.8084 -0.1598
  227MOL   H14045792   6.933   1.015   5.510  0.2462  1.4531 -0.2886
  227MOL   H14145793   6.769   1.025   5.443 -1.5508 -1.4047  1.4694
  227MOL   C14245794   6.785   0.886   5.600  0.0659 -0.2798  0.2959
  227MOL   C14345795   6.896   0.811   5.668 -0.8867  0.0535  0.6462
  227MOL   C14445796   6.903   0.677   5.670 -1.3875  0.0368 -0.1250
  227MOL   C14545797   7.019   0.597   5.728 -0.2085  0.4256 -0.3721
  227MOL   H14645798   6.722   0.907   5.686  0.4796 -1.0136  0.7791
  227MOL   H14745799   6.725   0.820   5.537  1.3612 -2.0687  0.9118
  227MOL   H14845800   6.969   0.866   5.726  1.0261 -0.5780 -1.0890
  227MOL   H14945801   6.843   0.614   5.606 -1.4351 -0.8835  0.8053
  227MOL   H15045802   7.111   0.653   5.745 -0.5171  0.9938 -0.5660
  227MOL   H15145803   7.047   0.508   5.671 -0.6698 -0.5975  0.9648
  227MOL   C15245804   6.970   0.537   5.867  0.0495 -0.6192  0.8174
  227MOL   C15345805   7.006   0.621   5.985 -0.2591  0.1729  0.0385
  227MOL   C15445806   7.093   0.587   6.080  1.0425  0.3785  0.0916
  227MOL   C15545807   7.127   0.667   6.203  0.3502 -0.4014 -0.1195
  227MOL   H15645808   6.862   0.523   5.873 -0.0380 -0.6218 -0.6545
  227MOL   H15745809   7.023   0.442   5.880  0.3274 -0.9481 -2.3415
  227MOL   H15845810   6.953   0.715   5.988  2.8913  2.0943 -2.1328
  227MOL   H15945811   7.163   0.505   6.076  0.1731 -0.3734  0.2830
  227MOL   H16045812   7.076   0.763   6.202 -0.1863 -0.6880 -0.7533
  227MOL   H16145813   7.235   0.683   6.206  0.2641  0.1130  0.2219
  227MOL   C16245814   7.088   0.596   6.341  0.3370  0.3000  0.3035
  227MOL   C16345815   7.097   0.668   6.469 -0.2790 -0.2485  0.6381
  227MOL   C16445816   7.188   0.645   6.566 -0.7111  0.6093 -0.0832
  227MOL   C16545817   7.211   0.731   6.691  0.2524 -0.0833  0.0601
  227MOL   H16645818   6.981   0.573   6.337  0.6986 -1.4207 -0.0236
  227MOL   H16745819   7.124   0.493   6.343 -1.6107 -0.3860  1.2599
  227MOL   H16845820   7.031   0.754   6.466  0.6782  0.5055  0.6155
  227MOL   H16945821   7.258   0.564   6.557 -1.4314  0.0640 -0.7695
  227MOL   H17045822   7.136   0.810   6.698  1.0508  0.6442  0.6281
  227MOL   H17145823   7.307   0.782   6.675 -0.8317  1.3808 -1.9454
  227MOL   C17245824   7.215   0.652   6.822  0.2884  0.2090  0.2680
  227MOL   C17345825   7.271   0.738   6.935  0.0449  0.4363 -0.5307
  227MOL   C17445826   7.356   0.671   7.026 -0.3188  0.2966  0.0005
  227MOL   C17545827   7.424   0.733   7.147 -0.1634 -0.3105 -0.0134
  227MOL   H17645828   7.122   0.605   6.854  0.5802 -0.8417 -0.3805
  227MOL   H17745829   7.284   0.569   6.808 -1.3632 -0.6032 -3.5117
  227MOL   H17845830   7.244   0.842   6.942 -0.7124  0.2770 -0.9695
  227MOL   H17945831   7.353   0.563   7.021 -0.8279  0.4057 -4.0932
  227MOL   H18045832   7.374   0.688   7.232 -0.0371 -2.1437 -0.8851
  227MOL   H18145833   7.411   0.841   7.158  3.1008 -0.0111  1.3960
  227MOL   C18245834   7.574   0.727   7.136 -0.0530  0.3452 -0.2787
  227MOL   C18345835   7.627   0.792   7.264  0.1534  0.5145 -0.2320
  227MOL   C18445836   7.641   0.726   7.377 -0.6288  0.3062  0.6816
  227MOL   C18545837   7.687   0.784   7.504  0.2279 -0.0512  0.3749
  227MOL   H18645838   7.610   0.624   7.129 -0.3722  0.2516 -0.5669
  227MOL   H18745839   7.607   0.773   7.043 -1.0683  1.5143 -0.0750
  227MOL   H18845840   7.648   0.898   7.259 -0.9405  0.6184 -4.2608
  227MOL   H18945841   7.612   0.622   7.380  0.6068 -0.0296  0.9753
  227MOL   H19045842   7.612   0.758   7.578 -0.4308  0.2413 -0.1892
  227MOL   H19145843   7.686   0.892   7.496  2.9871  0.1533  2.1474
  227MOL   C19245844   7.832   0.741   7.546 -0.1265  0.1194  0.4272
  227MOL   C19345845   7.945   0.800   7.459 -0.0316  0.4740  0.2496
  227MOL   C19445846   0.056   0.896   7.499 -0.0436 -0.2874  0.2914
  227MOL   C19545847   0.167   0.952   7.409 -0.5341 -0.5657  0.9458
  227MOL   H19645848   7.846   0.756   7.653 -0.9810 -0.6107  0.6433
  227MOL   H19745849   7.846   0.633   7.532 -2.4595 -0.0870 -0.5605
  227MOL   H19845850   7.946   0.756   7.361 -0.9858 -0.8885  0.8340
  227MOL   H19945851   0.051   0.931   7.601 -1.4451 -1.0563  0.4941
  227MOL   H20045852   0.160   1.061   7.398 -0.5356 -0.6836 -0.3817
  227MOL   H20145853   0.140   0.907   7.313 -2.6448 -1.4937  1.9482
  227MOL   H20245854   0.264   0.906   7.430  0.3854  0.2950 -1.2661
  228MOL     C145855   4.732   3.405   2.137 -0.7804 -0.0721  0.3355
  228MOL     C245856   4.769   3.485   2.021 -0.2338 -0.0650  0.2066
  228MOL     C345857   4.693   3.508   1.913 -0.3599 -0.1443 -0.6091
  228MOL     C445858   4.743   3.584   1.794  0.0498  0.8477 -0.2321
  228MOL     H545859   4.754   3.465   2.225  0.9010  1.2453 -0.9417
  228MOL     H645860   4.781   3.308   2.128 -2.1601 -0.6013 -2.1410
  228MOL     H745861   4.864   3.536   2.018 -0.4853  0.4404  0.6242
  228MOL     H845862   4.594   3.465   1.912 -0.9553  1.1681 -0.2031
  228MOL     H945863   4.752   3.511   1.713 -1.0944 -0.2810  0.6338
  228MOL    H1045864   4.843   3.625   1.807 -0.1590  2.6465 -3.7080
  228MOL    H1145865   4.625   3.391   2.119 -0.6848 -0.8343  0.3268
  228MOL    C1245866   4.646   3.687   1.760 -0.1139 -0.4479 -0.6704
  228MOL    C1345867   4.642   3.799   1.854 -0.0969 -0.6970  0.1035
  228MOL    C1445868   4.696   3.916   1.836  0.3109 -0.5072 -0.4513
  228MOL    C1545869   4.678   4.025   1.936 -0.0717  0.2688  0.5380
  228MOL    H1645870   4.683   3.728   1.666 -0.6396  2.2853  0.2731
  228MOL    H1745871   4.548   3.645   1.735 -0.8956  0.2823  1.1042
  228MOL    H1845872   4.580   3.773   1.939 -1.0451  0.4491 -0.2274
  228MOL    H1945873   4.746   3.933   1.741 -1.6341  2.7479 -0.9457
  228MOL    H2045874   4.780   4.053   1.961  0.5613 -1.0410 -0.5330
  228MOL    H2145875   4.637   3.983   2.028  0.7701  1.6762  1.5884
  228MOL    C2245876   4.590   4.139   1.892  0.1772  0.7886 -0.0456
  228MOL    C2345877   4.574   4.248   2.001  0.4948  0.5963 -0.2203
  228MOL    C2445878   4.454   4.264   2.069  0.7986  0.7958  0.1648
  228MOL    C2545879   4.461   4.336   2.199  0.1325  0.0492  0.1391
  228MOL    H2645880   4.618   4.186   1.798  0.4586  2.2828  0.7770
  228MOL    H2745881   4.489   4.103   1.872  0.2190  1.2029 -1.0006
  228MOL    H2845882   4.664   4.292   2.042 -0.5537  1.7263  0.9166
  228MOL    H2945883   4.369   4.206   2.037  2.0451 -0.9203 -0.0923
  228MOL    H3045884   4.533   4.417   2.190  0.5704 -0.4890 -1.3211
  228MOL    H3145885   4.510   4.266   2.266  0.4798 -0.3204 -0.5001
  228MOL    C3245886   4.327   4.391   2.241  0.2174  0.4225  0.2154
  228MOL    C3345887   4.271   4.480   2.130  0.3890  0.7404 -0.2553
  228MOL    C3445888   4.248   4.613   2.145 -1.0220 -0.0160  0.4033
  228MOL    C3545889   4.219   4.716   2.031  0.4518 -0.2945 -0.5084
  228MOL    H3645890   4.257   4.307   2.249  0.7039  0.0537  0.6989
  228MOL    H3745891   4.337   4.445   2.335 -2.6337  0.5695  0.4682
  228MOL    H3845892   4.239   4.437   2.036 -0.9109  3.0179 -0.8880
  228MOL    H3945893   4.272   4.649   2.244  0.8157 -0.5076  0.1495
  228MOL    H4045894   4.148   4.665   1.966 -1.0126  1.4072 -0.2840
  228MOL    H4145895   4.310   4.734   1.974  0.0146 -1.5039 -1.6198
  228MOL    C4245896   4.151   4.838   2.076 -0.1712  0.4083  0.1588
  228MOL    C4345897   4.111   4.931   1.966  0.1289  0.3158  0.0590
  228MOL    C4445898   3.983   4.970   1.954  0.6564 -1.0600  0.0590
  228MOL    C4545899   3.931   5.063   1.840  0.0333  0.0145  0.2264
  228MOL    H4645900   4.075   4.809   2.149  2.4581 -1.9294  2.0507
  228MOL    H4745901   4.229   4.886   2.135  0.5489 -1.0165  0.4058
  228MOL    H4845902   4.182   4.969   1.894 -0.5315  0.4923 -0.4989
  228MOL    H4945903   3.909   4.933   2.023  0.6774 -1.6526 -0.2306
  228MOL    H5045904   3.844   5.008   1.804  1.2393 -2.2015  0.6183
  228MOL    H5145905   3.999   5.075   1.756 -1.2377  2.5986 -0.4861
  228MOL    C5245906   3.879   5.199   1.894 -0.2374  0.4367  0.7541
  228MOL    C5345907   3.989   5.284   1.936  0.7553  0.4628  0.9040
  228MOL    C5445908   4.000   5.413   1.913 -0.0865 -0.3081  0.8968
  228MOL    C5545909   4.121   5.498   1.956 -1.1655 -0.1368  0.1061
  228MOL    H5645910   3.801   5.243   1.832 -0.9263 -0.4343  1.0050
  228MOL    H5745911   3.813   5.178   1.978 -1.6034  0.7141 -0.2349
  228MOL    H5845912   4.066   5.238   1.996 -0.5023  0.0790  2.2506
  228MOL    H5945913   3.924   5.463   1.854 -2.0273 -2.3460  1.6174
  228MOL    H6045914   4.180   5.448   2.034  1.8944  4.9589  1.2755
  228MOL    H6145915   4.082   5.585   2.008  1.7329  0.8966  0.6655
  228MOL    C6245916   4.214   5.537   1.844 -0.2452 -0.0248  0.0316
  228MOL    C6345917   4.343   5.605   1.887  0.2119 -0.3298  0.4838
  228MOL    C6445918   4.346   5.698   1.987  0.6318 -0.1458 -0.6713
  228MOL    C6545919   4.484   5.749   2.038  1.1306  0.2534 -0.1610
  228MOL    H6645920   4.236   5.443   1.793 -2.4547  0.4296 -1.8582
  228MOL    H6745921   4.155   5.584   1.766 -0.0933 -1.3698 -0.9132
  228MOL    H6845922   4.437   5.564   1.851 -0.8400 -0.5086 -2.1177
  228MOL    H6945923   4.256   5.746   2.022  0.8751 -0.0851 -0.1192
  228MOL    H7045924   4.562   5.687   1.996  0.3001  1.0590 -3.0272
  228MOL    H7145925   4.495   5.725   2.143 -0.3896 -1.3487 -0.3416
  228MOL    C7245926   4.505   5.899   2.007  0.2053  0.5637  0.8081
  228MOL    C7345927   4.553   5.911   1.855 -0.1675  0.6014 -0.4464
  228MOL    C7445928   4.672   5.956   1.818  0.4649  0.0298  0.5375
  228MOL    C7545929   4.713   5.959   1.675  0.2325  0.1112  0.1449
  228MOL    H7645930   4.414   5.956   2.025  0.0897 -0.3709  3.2631
  228MOL    H7745931   4.591   5.939   2.059  2.6103 -1.3007 -1.5800
  228MOL    H7845932   4.477   5.868   1.791 -2.7990  0.4346  2.6872
  228MOL    H7945933   4.740   5.987   1.896  1.8117  1.5068 -1.1826
  228MOL    H8045934   4.779   6.041   1.647 -2.7479  2.6789  0.2909
  228MOL    H8145935   4.623   5.974   1.615  0.1962  1.2248  0.4497
  228MOL    C8245936   4.786   5.828   1.642  0.6811 -0.1418 -0.3988
  228MOL    C8345937   4.830   5.842   1.496  0.1830  0.0389 -0.9973
  228MOL    C8445938   4.960   5.850   1.456 -0.2956  0.3794 -0.5939
  228MOL    C8545939   5.000   5.880   1.313 -0.4031 -0.0125  0.5835
  228MOL    H8645940   4.877   5.823   1.702 -0.5811  0.8084  1.6549
  228MOL    H8745941   4.726   5.739   1.660  0.4902  0.0759  0.0288
  228MOL    H8845942   4.752   5.844   1.421 -1.5958 -0.4252  0.7812
  228MOL    H8945943   5.037   5.847   1.530  0.3316 -0.6276 -1.2792
  228MOL    H9045944   5.064   5.967   1.300  0.0005 -0.7645 -2.8963
  228MOL    H9145945   4.910   5.914   1.260 -0.0939  3.2466  2.0107
  228MOL    C9245946   5.074   5.764   1.240  0.4494  0.3529  0.3893
  228MOL    C9345947   5.110   5.814   1.101 -0.1482  0.4085 -0.1103
  228MOL    C9445948   5.079   5.753   0.990 -0.0183 -0.1960  0.0576
  228MOL    C9545949   5.106   5.814   0.856  0.2898  0.1753  0.0774
  228MOL    H9645950   5.159   5.736   1.301 -0.5892 -0.4666  1.4797
  228MOL    H9745951   5.004   5.681   1.240  1.6200 -0.6891  2.8596
  228MOL    H9845952   5.171   5.903   1.103  1.3468 -0.5667 -1.4815
  228MOL    H9945953   5.025   5.660   0.998 -0.2260 -0.1305 -0.6051
  228MOL   H10045954   5.198   5.771   0.817 -1.0261 -0.4475 -2.4217
  228MOL   H10145955   5.130   5.919   0.875 -0.0856 -0.0633  2.0566
  228MOL   C10245956   4.997   5.803   0.753 -0.0143 -0.1361 -0.0645
  228MOL   C10345957   5.030   5.867   0.620 -0.0752  0.6641 -0.9707
  228MOL   C10445958   5.143   5.939   0.591  1.0201 -0.1995 -0.2903
  228MOL   C10545959   5.171   6.008   0.460 -0.5888  0.0219 -0.3941
  228MOL   H10645960   4.977   5.700   0.725 -1.2542  0.0410  0.1232
  228MOL   H10745961   4.906   5.849   0.792 -0.3423  0.0429 -1.0245
  228MOL   H10845962   4.947   5.866   0.550  1.9647  2.8747 -3.5497
  228MOL   H10945963   5.216   5.959   0.668 -0.8373  0.8600  1.2392
  228MOL   H11045964   5.082   6.054   0.417  0.4949  0.6795 -1.9911
  228MOL   H11145965   5.196   5.934   0.384 -1.5239 -1.6814  0.9026
  228MOL   C11245966   5.279   6.115   0.475  0.2414  0.7273 -0.5507
  228MOL   C11345967   5.320   6.176   0.347 -1.2584  0.1988  0.2548
  228MOL   C11445968   5.449   6.171   0.302 -0.2111  0.0972 -0.2345
  228MOL   C11545969   5.512   6.238   0.181 -0.4708  0.2123  0.2534
  228MOL   H11645970   5.242   6.188   0.547 -1.4387  0.6533 -1.3170
  228MOL   H11745971   5.364   6.085   0.535 -0.9439 -0.9167  0.3469
  228MOL   H11845972   5.240   6.230   0.298 -2.0622  0.9325  2.3204
  228MOL   H11945973   5.525   6.114   0.353 -0.0282 -0.1060 -0.7243
  228MOL   H12045974   5.575   6.325   0.200 -1.5748  1.6275 -2.1841
  228MOL   H12145975   5.435   6.281   0.116  0.5128  1.0607 -0.3739
  228MOL   C12245976   5.598   6.139   0.093  0.4183  0.1535  0.6379
  228MOL   C12345977   5.686   6.217   7.969 -0.0935  0.0692  0.5802
  228MOL   C12445978   5.807   6.174   7.919  0.1889 -0.2651 -0.3190
  228MOL   C12545979   5.884   6.255   7.820 -0.0195  0.0657  0.0798
  228MOL   H12645980   5.666   6.090   0.162  0.4663 -0.4788  0.1416
  228MOL   H12745981   5.545   6.058   0.043 -0.2254  0.9228  0.0534
  228MOL   H12845982   5.653   6.316   7.942  0.0867  0.1323  0.5849
  228MOL   H12945983   5.849   6.077   7.941  0.6704 -0.2787 -1.3060
  228MOL   H13045984   5.981   6.206   7.813  0.3338  0.8330 -0.5307
  228MOL   H13145985   5.905   6.356   7.855 -0.7086 -0.0362  0.8128
  228MOL   C13245986   5.804   6.254   7.692  0.6146  0.0408  0.7476
  228MOL   C13345987   5.873   6.310   7.567 -0.3726  0.3209  0.5922
  228MOL   C13445988   5.872   6.267   7.439 -0.3035 -0.4555 -0.5368
  228MOL   C13545989   5.957   6.327   7.329 -0.1746  0.0358  0.5178
  228MOL   H13645990   5.770   6.154   7.666 -0.8234  0.9484 -0.9748
  228MOL   H13745991   5.719   6.319   7.712 -0.1718 -1.1679  1.4004
  228MOL   H13845992   5.928   6.399   7.591  0.2833 -0.2950  1.4052
  228MOL   H13945993   5.825   6.173   7.415  0.5931 -1.3903  1.2600
  228MOL   H14045994   5.919   6.429   7.334  0.6028  0.2452  2.5412
  228MOL   H14145995   5.927   6.275   7.238 -2.6057  1.2731  0.5688
  228MOL   C14245996   6.104   6.330   7.364 -0.2502  0.8367 -0.4377
  228MOL   C14345997   6.165   6.438   7.291  0.5630  0.4223  0.3462
  228MOL   C14445998   6.240   6.535   7.334 -0.4582  0.2547  0.6761
  228MOL   C14545999   6.298   6.641   7.243  0.0564  0.4220  0.3961
  228MOL   H14646000   6.118   6.355   7.470  1.4039 -0.9734 -0.2082
  228MOL   H14746001   6.156   6.235   7.351  0.8251  1.2065  1.0239
  228MOL   H14846002   6.146   6.441   7.184 -1.7914  1.5614  0.7686
  228MOL   H14946003   6.270   6.555   7.436 -1.0519 -1.1064  1.1268
  228MOL   H15046004   6.249   6.738   7.255  2.3306  1.7370 -0.6483
  228MOL   H15146005   6.273   6.614   7.141 -0.8420 -1.3962  1.0843
  228MOL   C15246006   6.444   6.661   7.275 -0.2026 -0.3267  0.0705
  228MOL   C15346007   6.527   6.772   7.220  0.0626  0.1410 -0.0786
  228MOL   C15446008   6.556   6.884   7.288 -0.4999 -0.2293  0.7317
  228MOL   C15546009   6.649   6.989   7.227 -0.0428 -0.1912 -0.2572
  228MOL   H15646010   6.440   6.677   7.383  1.1745 -3.1395  0.5768
  228MOL   H15746011   6.507   6.574   7.260  1.0645  0.6528 -0.3837
  228MOL   H15846012   6.562   6.771   7.118  1.3327  0.4777  0.3432
  228MOL   H15946013   6.536   6.904   7.392  1.9861  1.8575  0.8444
  228MOL   H16046014   6.596   7.083   7.208 -1.6335 -0.5508  2.1668
  228MOL   H16146015   6.688   6.948   7.134  1.4540  1.9761 -0.6200
  228MOL   C16246016   6.774   7.029   7.320 -0.5760 -0.2386  0.2326
  228MOL   C16346017   6.881   7.106   7.244 -0.5380 -0.0169  0.5085
  228MOL   C16446018   6.865   7.180   7.136  0.3950 -0.6085 -0.5488
  228MOL   C16546019   6.975   7.248   7.050  0.6101  0.7615 -0.0726
  228MOL   H16646020   6.750   7.089   7.408 -2.5050 -0.4315 -0.1309
  228MOL   H16746021   6.820   6.937   7.357  1.1605  0.8465  0.8024
  228MOL   H16846022   6.982   7.109   7.281 -0.5930  0.8391  0.6110
  228MOL   H16946023   6.763   7.180   7.101 -1.0056  0.0569  3.3197
  228MOL   H17046024   6.964   7.233   6.942  0.6016  1.5712 -0.1936
  228MOL   H17146025   7.078   7.223   7.072  0.0038  0.0869  2.0669
  228MOL   C17246026   6.958   7.395   7.057  0.3384 -0.7013 -0.5709
  228MOL   C17346027   7.068   7.460   6.973  0.6771 -0.2567 -0.0647
  228MOL   C17446028   7.053   7.587   6.920 -0.0900  0.2319 -0.0779
  228MOL   C17546029   7.149   7.669   6.834  0.3975  0.7924 -0.8134
  228MOL   H17646030   6.861   7.429   7.022 -0.3022 -0.3911  1.4760
  228MOL   H17746031   6.966   7.424   7.161  0.7799 -1.0106 -0.5139
  228MOL   H17846032   7.167   7.418   6.983  0.8845  0.0033 -1.0189
  228MOL   H17946033   6.955   7.632   6.913 -1.2790 -2.0090  1.5579
  228MOL   H18046034   7.104   7.691   6.737 -1.6881  0.7263  0.1062
  228MOL   H18146035   7.242   7.614   6.817  0.6257  0.5755  1.0935
  228MOL   C18246036   7.190   7.800   6.901  0.2314 -0.1326 -0.6409
  228MOL   C18346037   7.290   7.879   6.815 -0.7731  0.5209 -0.0478
  228MOL   C18446038   7.418   7.910   6.848 -0.3000  0.6071 -0.1410
  228MOL   C18546039   7.518   0.009   6.772  0.7147 -0.1152 -0.1333
  228MOL   H18646040   7.109   7.865   6.933 -0.4559 -1.7363  0.8913
  228MOL   H18746041   7.232   7.769   6.997  0.6456  0.9136 -0.4710
  228MOL   H18846042   7.258   7.900   6.714  0.3858  1.7278 -0.1871
  228MOL   H18946043   7.458   7.890   6.947  1.7951  0.1850 -1.0366
  228MOL   H19046044   7.547   0.092   6.837 -0.5533  0.0882  0.1677
  228MOL   H19146045   7.477   0.050   6.680  1.7088  0.0209 -0.5324
  228MOL   C19246046   7.642   7.906   6.746 -0.5711 -0.9201  0.2567
  228MOL   C19346047   7.749   0.011   6.681 -0.5524 -0.0513  0.2078
  228MOL   C19446048   7.823   7.953   6.571  0.3006  0.3289 -0.1724
  228MOL   C19546049   7.930   0.064   6.514 -0.2065  0.1513  0.3446
  228MOL   H19646050   7.686   7.860   6.835  2.2330 -0.5108 -0.8827
  228MOL   H19746051   7.608   7.817   6.694 -0.5921  0.5170 -2.2498
  228MOL   H19846052   7.780   0.096   6.740  0.5437  0.0293 -0.4599
  228MOL   H19946053   7.814   7.856   6.525  2.6159 -0.1486  0.3167
  228MOL   H20046054   0.048   0.011   6.509 -0.0006  0.4096  1.4297
  228MOL   H20146055   7.943   0.141   6.590 -0.7365  1.4600 -0.8614
  228MOL   H20246056   7.906   0.115   6.421 -0.0930 -0.1752  0.1348
  229MOL     C146057   1.642   6.552   7.848 -0.2084  0.2508 -0.6449
  229MOL     C246058   1.652   6.642   7.731 -0.0497  0.4497 -0.5774
  229MOL     C346059   1.657   6.590   7.607  0.6316  0.2467  0.6287
  229MOL     C446060   1.655   6.678   7.488  0.4349 -0.0008  0.0516
  229MOL     H546061   1.652   6.446   7.826  1.0329 -0.3353  2.5229
  229MOL     H646062   1.544   6.560   7.893  0.1655 -0.0870  0.2423
  229MOL     H746063   1.665   6.747   7.749  0.8849 -0.1090  2.2507
  229MOL     H846064   1.656   6.482   7.596  0.0464  0.0650  2.3425
  229MOL     H946065   1.754   6.661   7.446  0.4927  0.6140 -0.0709
  229MOL    H1046066   1.648   6.785   7.510 -0.9578 -0.3679  1.4661
  229MOL    H1146067   1.714   6.577   7.926  0.3323 -0.6540 -0.8440
  229MOL    C1246068   1.541   6.641   7.405 -0.4615  1.0218  0.0694
  229MOL    C1346069   1.557   6.702   7.264 -0.2787  0.4883 -0.3414
  229MOL    C1446070   1.455   6.767   7.202  0.6000 -0.4971  0.3308
  229MOL    C1546071   1.461   6.837   7.064 -0.2503 -0.0397  0.8607
  229MOL    H1646072   1.537   6.532   7.398  1.1171  1.0580 -2.0833
  229MOL    H1746073   1.454   6.675   7.461  0.3478  1.1763  1.2508
  229MOL    H1846074   1.654   6.701   7.216  0.5526 -0.6471  1.3143
  229MOL    H1946075   1.353   6.764   7.236 -0.1680 -0.9998 -1.9561
  229MOL    H2046076   1.386   6.802   6.994  0.8821  1.4684 -1.1614
  229MOL    H2146077   1.560   6.821   7.020 -0.8746 -1.2965 -0.1079
  229MOL    C2246078   1.438   6.982   7.079 -0.1838  0.3002  0.4021
  229MOL    C2346079   1.476   7.066   6.954 -0.2038  0.3780  0.1804
  229MOL    C2446080   1.439   7.039   6.827  0.5342 -0.6341 -0.8012
  229MOL    C2546081   1.479   7.132   6.714 -0.2047 -0.7729 -0.5187
  229MOL    H2646082   1.336   7.008   7.108 -0.5398  1.2982 -1.6325
  229MOL    H2746083   1.500   7.033   7.153 -0.7906 -0.0910  1.1893
  229MOL    H2846084   1.528   7.155   6.985 -0.9627  0.1049  2.3320
  229MOL    H2946085   1.388   6.945   6.811  0.7422 -1.2369  1.7905
  229MOL    H3046086   1.527   7.076   6.633  1.8895 -0.6345  0.5949
  229MOL    H3146087   1.550   7.208   6.747  0.6468 -2.6615  2.1611
  229MOL    C3246088   1.355   7.200   6.658 -0.5613 -0.0028  0.0043
  229MOL    C3346089   1.394   7.304   6.555 -0.2569 -0.2159  0.5876
  229MOL    C3446090   1.351   7.310   6.427  0.3772  0.4601  0.1080
  229MOL    C3546091   1.380   7.429   6.336 -0.3128  0.5249  0.0985
  229MOL    H3646092   1.280   7.127   6.626  0.3691 -0.0647 -2.0717
  229MOL    H3746093   1.309   7.253   6.742  1.7014 -0.4085  1.5412
  229MOL    H3846094   1.445   7.395   6.583  0.3432 -0.0807 -0.9344
  229MOL    H3946095   1.286   7.236   6.383 -0.6097  1.4677 -0.1538
  229MOL    H4046096   1.423   7.394   6.243  0.6530 -2.6203  1.6794
  229MOL    H4146097   1.464   7.488   6.373 -1.0225  2.1560 -0.8334
  229MOL    C4246098   1.268   7.521   6.320  0.1976  0.7828  0.2946
  229MOL    C4346099   1.243   7.604   6.446  0.1972  0.0526 -0.2845
  229MOL    C4446100   1.131   7.584   6.521 -0.0028  0.8959 -0.4002
  229MOL    C4546101   1.094   7.656   6.649  0.2061  0.7595 -0.4656
  229MOL    H4646102   1.294   7.587   6.236 -0.0055  0.3705 -0.0942
  229MOL    H4746103   1.182   7.466   6.281  0.6258  0.0852  0.3419
  229MOL    H4846104   1.313   7.680   6.478  1.8132 -1.9459  1.1402
  229MOL    H4946105   1.060   7.505   6.503  0.5274  0.6535 -1.5208
  229MOL    H5046106   1.009   7.723   6.633 -0.5060  0.2877  1.2865
  229MOL    H5146107   1.176   7.724   6.673 -0.8574  2.7100 -2.1629
  229MOL    C5246108   1.072   7.546   6.761  0.5536 -0.7265  0.0217
  229MOL    C5346109   0.945   7.467   6.737 -0.8060 -0.1814 -0.0331
  229MOL    C5446110   0.932   7.339   6.709 -0.2960  0.5031  0.0212
  229MOL    C5546111   0.793   7.273   6.673 -0.2779  0.1591  0.6942
  229MOL    H5646112   1.151   7.472   6.777  0.1696 -1.1623 -0.0782
  229MOL    H5746113   1.062   7.599   6.856 -2.2971 -0.8793 -0.1489
  229MOL    H5846114   0.862   7.534   6.724 -1.5739 -1.4392 -1.6749
  229MOL    H5946115   1.008   7.265   6.732 -0.5076 -0.0350 -0.9670
  229MOL    H6046116   0.799   7.239   6.569  0.7330  1.0826  0.4312
  229MOL    H6146117   0.718   7.352   6.671  0.1272  0.6296  3.1954
  229MOL    C6246118   0.751   7.167   6.775  0.7269 -0.1271 -0.1448
  229MOL    C6346119   0.846   7.046   6.793 -0.7507 -1.1890  0.0661
  229MOL    C6446120   0.835   6.938   6.716  0.1049 -0.0567 -0.6809
  229MOL    C6546121   0.938   6.826   6.719  0.3242 -0.3869 -0.4295
  229MOL    H6646122   0.748   7.208   6.876  1.3326  1.0406 -0.5933
  229MOL    H6746123   0.647   7.138   6.758  1.0148 -0.6292 -1.0259
  229MOL    H6846124   0.933   7.056   6.856  1.0720 -2.5189 -2.1741
  229MOL    H6946125   0.749   6.944   6.651 -2.1839  1.5876  2.4065
  229MOL    H7046126   0.886   6.744   6.771 -0.3858 -0.6986 -1.6198
  229MOL    H7146127   1.018   6.834   6.793 -0.0757 -3.1644  0.3663
  229MOL    C7246128   0.976   6.786   6.575 -1.3469  0.3941 -0.0561
  229MOL    C7346129   1.041   6.653   6.566  0.4826  0.0445 -0.7866
  229MOL    C7446130   1.149   6.634   6.486 -0.3457  0.2042  0.6282
  229MOL    C7546131   1.219   6.498   6.475  0.4304  0.1905 -0.0637
  229MOL    H7646132   0.881   6.783   6.522 -1.9307  0.7705  0.9586
  229MOL    H7746133   1.037   6.857   6.520  2.0525 -0.8603  1.9228
  229MOL    H7846134   0.999   6.563   6.609  0.0441  0.8382  0.4693
  229MOL    H7946135   1.195   6.708   6.424 -1.6953 -0.1294 -0.7915
  229MOL    H8046136   1.180   6.443   6.389 -1.2878  0.3674  0.5770
  229MOL    H8146137   1.198   6.444   6.568 -0.2525  0.0956 -0.2736
  229MOL    C8246138   1.369   6.509   6.469  0.2783  0.0301  0.1223
  229MOL    C8346139   1.431   6.582   6.582  0.3842 -0.3348 -0.7925
  229MOL    C8446140   1.527   6.535   6.661  0.1937  0.1904 -0.0320
  229MOL    C8546141   1.584   6.602   6.782  0.5961 -0.4003  0.4471
  229MOL    H8646142   1.424   6.421   6.436  0.6696  0.0537  0.7125
  229MOL    H8746143   1.391   6.568   6.380  0.1960 -2.0654 -1.3405
  229MOL    H8846144   1.398   6.682   6.607  1.0239 -0.1626 -0.6383
  229MOL    H8946145   1.565   6.437   6.640  1.7237  1.0394 -1.3285
  229MOL    H9046146   1.610   6.520   6.849  2.4380 -0.1412  0.0855
  229MOL    H9146147   1.509   6.666   6.828  0.4901  0.3339 -0.7102
  229MOL    C9246148   1.715   6.683   6.746 -0.1611  0.5338 -0.1645
  229MOL    C9346149   1.808   6.689   6.864  0.3105 -0.3226  0.1354
  229MOL    C9446150   1.838   6.800   6.938 -0.3388  0.0833  0.0301
  229MOL    C9546151   1.935   6.798   7.055 -0.0010  0.1823  0.7844
  229MOL    H9646152   1.773   6.642   6.663 -1.3301 -0.3474 -0.5451
  229MOL    H9746153   1.690   6.787   6.724 -1.7355 -0.1840 -1.8590
  229MOL    H9846154   1.842   6.592   6.899 -2.5109 -1.4300 -0.0791
  229MOL    H9946155   1.794   6.895   6.909 -0.3627  0.0913  0.0928
  229MOL   H10046156   2.035   6.819   7.017  0.6052  1.3024  2.9172
  229MOL   H10146157   1.941   6.695   7.090 -3.1223 -0.6756 -1.0049
  229MOL   C10246158   1.896   6.906   7.163  0.7021  0.1148  0.1104
  229MOL   C10346159   1.907   7.050   7.120  0.6590 -0.2857 -0.6481
  229MOL   C10446160   1.955   7.159   7.184 -0.3174  0.5528 -0.4888
  229MOL   C10546161   1.962   7.299   7.122  0.3099 -0.0010 -0.7559
  229MOL   H10646162   1.794   6.892   7.201  0.2688  3.5059  0.3373
  229MOL   H10746163   1.960   6.887   7.249  0.6873 -1.3067 -0.1824
  229MOL   H10846164   1.857   7.063   7.026  0.7477 -1.1722 -0.8161
  229MOL   H10946165   1.997   7.147   7.284 -0.6529 -3.5864 -0.7452
  229MOL   H11046166   1.883   7.368   7.151 -1.5728 -2.1345 -0.6175
  229MOL   H11146167   1.934   7.291   7.017  0.2623  2.2845 -0.9482
  229MOL   C11246168   2.103   7.354   7.142 -0.1656 -0.0031  0.4058
  229MOL   C11346169   2.121   7.483   7.061  1.1081 -0.4026 -0.4526
  229MOL   C11446170   2.181   7.484   6.942  0.0742  0.7058 -0.3455
  229MOL   C11546171   2.211   7.603   6.854 -0.5976  0.1513 -0.2356
  229MOL   H11646172   2.139   7.372   7.243  1.8083 -0.2911 -0.2200
  229MOL   H11746173   2.169   7.280   7.096  1.4413  0.8010  1.3514
  229MOL   H11846174   2.087   7.575   7.105 -1.6979 -0.5674 -2.2171
  229MOL   H11946175   2.225   7.392   6.905 -1.0426 -0.6807  1.6410
  229MOL   H12046176   2.316   7.625   6.872 -0.6853 -1.0735  1.9308
  229MOL   H12146177   2.159   7.688   6.898  1.7104  2.1756 -1.3312
  229MOL   C12246178   2.164   7.583   6.710  0.0586  0.6797  1.0137
  229MOL   C12346179   2.220   7.693   6.613  0.4548  0.9485 -0.1152
  229MOL   C12446180   2.147   7.731   6.510 -0.0085  0.1704  0.2095
  229MOL   C12546181   2.184   7.838   6.401  0.3062 -0.0334  0.1732
  229MOL   H12646182   2.193   7.484   6.677 -0.6409  0.0955  2.1172
  229MOL   H12746183   2.057   7.602   6.723 -0.5698 -1.9153 -0.2773
  229MOL   H12846184   2.314   7.737   6.639  1.1088  0.5110 -1.6453
  229MOL   H12946185   2.051   7.686   6.491 -0.1646 -0.6646  2.6777
  229MOL   H13046186   2.253   7.910   6.446  1.4268 -1.3666  0.6389
  229MOL   H13146187   2.097   7.897   6.375  0.4419 -0.4143 -1.2071
  229MOL   C13246188   2.240   7.776   6.271 -0.2655  0.8451  0.2398
  229MOL   C13346189   2.370   7.690   6.292  0.1068 -0.4210 -0.5860
  229MOL   C13446190   2.377   7.558   6.279 -0.2655  0.0757 -0.1183
  229MOL   C13546191   2.508   7.473   6.302  0.1261 -0.4124 -0.5826
  229MOL   H13646192   2.175   7.709   6.216  1.7829  1.0344 -2.4859
  229MOL   H13746193   2.258   7.861   6.205  0.9656  0.5977  0.2400
  229MOL   H13846194   2.461   7.741   6.319  1.2533 -1.1398 -2.9794
  229MOL   H13946195   2.296   7.491   6.254  0.3010 -0.2443 -1.1744
  229MOL   H14046196   2.594   7.539   6.302 -0.4064  0.2936 -1.6064
  229MOL   H14146197   2.525   7.409   6.215  0.5327 -0.0316 -0.7827
  229MOL   C14246198   2.490   7.386   6.429  0.4738  0.8389  1.2093
  229MOL   C14346199   2.489   7.459   6.558 -0.6867 -0.2543 -0.0578
  229MOL   C14446200   2.575   7.432   6.653 -0.0184 -0.1938  0.1596
  229MOL   C14546201   2.579   7.509   6.781 -0.1473  0.1989 -0.7072
  229MOL   H14646202   2.404   7.320   6.426  1.9459 -1.1259  1.2064
  229MOL   H14746203   2.575   7.317   6.432 -0.5431 -0.5218 -0.5971
  229MOL   H14846204   2.409   7.531   6.567  0.1614  0.6482  0.2623
  229MOL   H14946205   2.655   7.361   6.640  1.4735  0.7719  3.6593
  229MOL   H15046206   2.526   7.470   6.868  0.6636  1.9505  0.6284
  229MOL   H15146207   2.538   7.609   6.767  0.9387  1.0251  1.7119
  229MOL   C15246208   2.726   7.525   6.817  0.0944  0.1944 -0.0564
  229MOL   C15346209   2.754   7.601   6.943  0.9531  0.2419 -0.2748
  229MOL   C15446210   2.821   7.550   7.042 -0.5667 -0.1608  0.5080
  229MOL   C15546211   2.847   7.618   7.174 -0.3720 -0.4529  0.5126
  229MOL   H15646212   2.766   7.424   6.830 -1.0198 -0.6735 -2.9693
  229MOL   H15746213   2.783   7.574   6.738 -1.6747  1.4630 -0.5754
  229MOL   H15846214   2.707   7.697   6.957 -0.1823 -0.4595  0.8112
  229MOL   H15946215   2.855   7.448   7.031 -0.4347 -0.1999  1.2445
  229MOL   H16046216   2.945   7.580   7.201 -0.3894 -0.4737  0.5472
  229MOL   H16146217   2.781   7.595   7.258  0.6417 -0.2414  1.3672
  229MOL   C16246218   2.852   7.772   7.164  0.6558 -0.7952  0.7832
  229MOL   C16346219   2.897   7.845   7.291  0.1749  0.1736  1.0348
  229MOL   C16446220   2.996   7.936   7.310 -0.2051 -0.4204 -0.4796
  229MOL   C16546221   3.032   0.029   7.436  0.1976 -0.0040  0.1231
  229MOL   H16646222   2.924   7.798   7.086 -1.4472  1.7951 -0.4025
  229MOL   H16746223   2.750   7.806   7.144  1.6866  1.1509 -1.3985
  229MOL   H16846224   2.838   7.817   7.376  1.5098  1.9051  2.5706
  229MOL   H16946225   3.054   7.963   7.223 -0.2217 -0.8073 -0.6137
  229MOL   H17046226   3.139   0.012   7.443  0.4222  0.3033 -2.1080
  229MOL   H17146227   2.988   7.960   7.525 -1.2074 -1.3623 -1.2253
  229MOL   C17246228   3.009   0.184   7.426 -0.3445 -0.2388 -0.2600
  229MOL   C17346229   3.025   0.270   7.550  0.6906 -0.0518 -0.2743
  229MOL   C17446230   3.051   0.217   7.668  0.3933  0.4526 -0.2313
  229MOL   C17546231   3.085   0.296   7.794 -0.1456 -1.0503  0.3311
  229MOL   H17646232   3.069   0.230   7.347 -0.8234  1.4462  0.3309
  229MOL   H17746233   2.907   0.205   7.396 -0.5440  0.1335  0.6579
  229MOL   H17846234   3.020   0.378   7.541  1.5183 -0.1065 -1.6014
  229MOL   H17946235   3.063   0.110   7.679 -0.6935  0.2760 -0.7214
  229MOL   H18046236   3.088   0.404   7.782 -0.6602 -0.7728  2.5717
  229MOL   H18146237   3.184   0.260   7.823  0.3292  0.6305  0.8155
  229MOL   C18246238   2.983   0.264   7.906 -0.5142 -1.0200 -0.0124
  229MOL   C18346239   3.030   0.325   0.066 -0.3553  0.0398  0.1851
  229MOL   C18446240   3.090   0.255   0.165 -0.3899  0.0999 -0.3848
  229MOL   C18546241   3.150   0.317   0.290  0.6438 -1.2398  0.1955
  229MOL   H18646242   2.889   0.313   7.878 -0.4005 -0.0312  1.2475
  229MOL   H18746243   2.971   0.156   7.913 -0.5510 -0.9740  0.7587
  229MOL   H18846244   3.020   0.432   0.073  1.0152  0.1681  0.4361
  229MOL   H18946245   3.104   0.150   0.147 -1.0620  0.0604 -0.7107
  229MOL   H19046246   3.191   0.417   0.274 -0.0363 -1.0411 -0.3302
  229MOL   H19146247   3.242   0.264   0.317  2.0734 -0.3164 -2.6606
  229MOL   C19246248   3.058   0.321   0.408  0.0852 -0.5374 -0.7095
  229MOL   C19346249   3.115   0.392   0.527 -0.3744 -0.4364  0.9965
  229MOL   C19446250   3.092   0.353   0.655  0.5659  0.2341  0.1248
  229MOL   C19546251   3.146   0.425   0.778 -0.4186 -0.4501  0.4748
  229MOL   H19646252   2.975   0.385   0.379 -0.8344 -0.1173  2.6657
  229MOL   H19746253   3.027   0.220   0.436  0.2882  0.1352  2.0781
  229MOL   H19846254   3.180   0.475   0.502 -1.2013 -0.1655 -0.3204
  229MOL   H19946255   3.029   0.269   0.681 -1.0526  1.9285  1.7765
  229MOL   H20046256   3.229   0.378   0.831  0.2359  0.8690  0.6311
  229MOL   H20146257   3.070   0.437   0.854  0.9511 -0.2709  1.8283
  229MOL   H20246258   3.184   0.524   0.753 -3.0614 -0.0134 -2.0766
  230MOL     C146259   3.161   4.356   2.191  0.1654 -0.4338 -0.3255
  230MOL     C246260   3.191   4.449   2.072  0.1911 -0.3134 -0.3393
  230MOL     C346261   3.097   4.521   2.014  0.2635 -0.1618  0.4951
  230MOL     C446262   3.136   4.613   1.898  0.1292  0.5138 -0.0411
  230MOL     H546263   3.198   4.254   2.185  1.4697 -0.0440  0.8066
  230MOL     H646264   3.054   4.356   2.213  0.1369 -1.7216 -0.4235
  230MOL     H746265   3.293   4.463   2.040  0.6856 -3.2454 -0.2014
  230MOL     H846266   2.997   4.518   2.055 -0.6607 -0.8539 -1.7178
  230MOL     H946267   3.244   4.623   1.891  0.2563 -1.1676 -0.6413
  230MOL    H1046268   3.098   4.712   1.924 -0.4488  0.2571  0.1066
  230MOL    H1146269   3.198   4.406   2.280 -0.4892 -0.7068  0.1016
  230MOL    C1246270   3.072   4.568   1.765  0.2679 -0.4782  0.1607
  230MOL    C1346271   3.071   4.424   1.735 -0.3983  0.2790 -0.3103
  230MOL    C1446272   3.130   4.364   1.628  0.4342  0.7626 -0.8071
  230MOL    C1546273   3.128   4.216   1.604 -0.3821  0.0440 -0.3784
  230MOL    H1646274   2.972   4.609   1.774  0.7381  0.8445 -0.5235
  230MOL    H1746275   3.122   4.625   1.686  0.3008  0.6105  0.9555
  230MOL    H1846276   3.030   4.357   1.810 -0.7266 -0.3152 -1.0109
  230MOL    H1946277   3.172   4.427   1.552  0.3665 -1.2238 -2.5390
  230MOL    H2046278   3.079   4.169   1.689 -2.2575 -1.1264 -2.0700
  230MOL    H2146279   3.232   4.188   1.594 -0.7605 -1.8799  0.8691
  230MOL    C2246280   3.063   4.185   1.469 -0.0273  0.4297  0.0855
  230MOL    C2346281   3.081   4.034   1.431  0.1447 -0.7881  0.5730
  230MOL    C2446282   3.186   3.989   1.360  0.8213  0.1271  0.3748
  230MOL    C2546283   3.218   3.842   1.341  0.0231  0.2165 -0.0027
  230MOL    H2646284   2.956   4.204   1.476 -0.4030 -2.0456  1.7415
  230MOL    H2746285   3.121   4.249   1.403  0.5442  0.4810  0.6366
  230MOL    H2846286   3.011   3.962   1.470  3.8751 -4.2153  1.2889
  230MOL    H2946287   3.258   4.067   1.339  0.3285  0.3851 -0.3787
  230MOL    H3046288   3.202   3.798   1.440  0.8172  1.8487  0.8850
  230MOL    H3146289   3.326   3.827   1.329  0.0889  0.9693 -0.3827
  230MOL    C3246290   3.135   3.764   1.238  0.0649  0.3355  0.6194
  230MOL    C3346291   3.217   3.750   1.104  0.0811 -0.7984 -0.0959
  230MOL    C3446292   3.172   3.795   0.990  0.6214 -0.0609 -0.6028
  230MOL    C3546293   3.248   3.782   0.861 -0.5424  0.2728 -0.1487
  230MOL    H3646294   3.116   3.664   1.276 -1.0327  0.8323  1.3932
  230MOL    H3746295   3.040   3.809   1.211  0.4589  1.1746  0.6288
  230MOL    H3846296   3.310   3.696   1.114  0.6523  0.3863  1.1009
  230MOL    H3946297   3.080   3.851   0.994  0.9843  0.4630  0.6117
  230MOL    H4046298   3.349   3.743   0.870  0.2900  2.8389  2.0400
  230MOL    H4146299   3.269   3.879   0.816  0.7615  0.8813  1.7289
  230MOL    C4246300   3.166   3.693   0.764  0.5235 -0.7298  0.2489
  230MOL    C4346301   3.226   3.691   0.623 -0.4059  0.5183 -0.4123
  230MOL    C4446302   3.279   3.578   0.576  0.0427  0.0922 -0.0399
  230MOL    C4546303   3.336   3.555   0.442 -0.1868 -0.3281  0.1649
  230MOL    H4646304   3.157   3.590   0.797  0.2704 -0.0956  2.2300
  230MOL    H4746305   3.059   3.712   0.764  0.5062 -0.7306 -1.0589
  230MOL    H4846306   3.212   3.778   0.562 -1.7641  0.3743 -0.3209
  230MOL    H4946307   3.287   3.496   0.646  1.0940 -0.7330 -1.1170
  230MOL    H5046308   3.444   3.568   0.448 -0.0199 -1.7382  0.5084
  230MOL    H5146309   3.309   3.637   0.376  0.8581 -1.8395 -2.2084
  230MOL    C5246310   3.314   3.416   0.394  0.7357  0.1700  0.3891
  230MOL    C5346311   3.424   3.382   0.293  0.3006 -0.3914  0.5402
  230MOL    C5446312   3.407   3.300   0.189 -0.2090 -0.0592  0.6391
  230MOL    C5546313   3.509   3.231   0.111  0.0594 -0.6417  0.5519
  230MOL    H5646314   3.327   3.332   0.462 -2.9850 -2.7226 -2.2676
  230MOL    H5746315   3.216   3.415   0.347  0.3801 -0.1008  1.1297
  230MOL    H5846316   3.524   3.412   0.321 -0.3128  0.3356  2.0537
  230MOL    H5946317   3.305   3.286   0.155 -0.0806 -1.1008  0.6755
  230MOL    H6046318   3.604   3.242   0.164 -0.0144 -2.3726  1.1001
  230MOL    H6146319   3.525   3.285   0.018  2.0041 -0.7780  0.7899
  230MOL    C6246320   3.478   3.084   0.080  1.3643  0.0674  0.6919
  230MOL    C6346321   3.603   3.034   0.000 -0.2362 -0.5928  0.3991
  230MOL    C6446322   3.663   2.920   0.027 -0.0795 -0.5538 -0.0261
  230MOL    C6546323   3.799   2.867   7.949  1.3060  0.1463 -0.3864
  230MOL    H6646324   3.461   3.024   0.169  2.2539  1.6544  1.9759
  230MOL    H6746325   3.390   3.092   0.017  0.4754  0.2014  1.9446
  230MOL    H6846326   3.654   3.098   7.907  1.6303 -0.3445  1.9217
  230MOL    H6946327   3.619   2.857   0.103  1.7142 -0.3221  1.2438
  230MOL    H7046328   3.792   2.759   7.962  1.1323  0.1574 -0.3803
  230MOL    H7146329   3.867   2.891   0.054 -0.2270  0.7941  0.7288
  230MOL    C7246330   3.837   2.907   7.806 -0.2553  0.3887  0.5236
  230MOL    C7346331   3.973   2.850   7.775 -0.0660  0.4870  0.8237
  230MOL    C7446332   3.987   2.756   7.682  0.4234 -0.1067 -0.5075
  230MOL    C7546333   4.112   2.683   7.653  0.0055 -0.3035  0.2635
  230MOL    H7646334   3.772   2.873   7.726  0.7488  1.6442 -0.8600
  230MOL    H7746335   3.841   3.016   7.799  1.3039  0.2485 -1.0844
  230MOL    H7846336   4.058   2.868   7.839  0.5984  1.6550 -0.3561
  230MOL    H7946337   3.909   2.722   7.615  2.1150 -1.2012 -1.9578
  230MOL    H8046338   4.092   2.578   7.676 -2.1246 -0.0132 -0.1063
  230MOL    H8146339   4.188   2.716   7.724 -0.4947 -0.6023  0.9541
  230MOL    C8246340   4.160   2.707   7.513  0.3214 -0.3957 -0.2243
  230MOL    C8346341   4.265   2.602   7.471  0.0804  0.8282  0.2968
  230MOL    C8446342   4.237   2.499   7.390  0.3039  0.2247  0.1014
  230MOL    C8546343   4.335   2.392   7.344  0.4177 -0.2629  0.5698
  230MOL    H8646344   4.072   2.711   7.448 -0.5187  0.2061  0.9415
  230MOL    H8746345   4.211   2.802   7.496 -0.0149 -0.1850 -0.0766
  230MOL    H8846346   4.369   2.617   7.496  0.9290 -2.7439 -0.7913
  230MOL    H8946347   4.137   2.481   7.355  1.1110 -0.9088 -1.6686
  230MOL    H9046348   4.312   2.290   7.374 -0.3410  0.1101  1.2653
  230MOL    H9146349   4.434   2.420   7.381 -0.6496  2.2048  1.6732
  230MOL    C9246350   4.359   2.383   7.193 -0.3691 -0.1680  0.3118
  230MOL    C9346351   4.262   2.293   7.128  0.1943 -0.2738  0.7353
  230MOL    C9446352   4.187   2.321   7.015 -0.2471  0.4588 -0.2984
  230MOL    C9546353   4.092   2.229   6.942  0.4693 -0.1183 -0.5302
  230MOL    H9646354   4.358   2.478   7.139  0.2357 -0.7841 -0.8159
  230MOL    H9746355   4.459   2.351   7.164  0.4910  1.3877  1.4644
  230MOL    H9846356   4.256   2.191   7.163  1.1769  0.1583  2.1628
  230MOL    H9946357   4.207   2.418   6.973  0.8295  0.1010 -0.6348
  230MOL   H10046358   4.081   2.133   6.992  0.0609  1.4789  2.6178
  230MOL   H10146359   4.131   2.213   6.842  0.0398 -1.9205 -0.4274
  230MOL   C10246360   3.952   2.280   6.942  0.1228  0.3570  0.5608
  230MOL   C10346361   3.852   2.175   6.883 -0.6651 -0.0755  0.0719
  230MOL   C10446362   3.825   2.177   6.751 -0.1463 -0.1863 -0.1137
  230MOL   C10546363   3.727   2.095   6.674 -0.0699  0.3239  0.3622
  230MOL   H10646364   3.918   2.309   7.041 -1.0859 -2.0862  0.9012
  230MOL   H10746365   3.949   2.374   6.886 -1.0419  0.9545  1.6259
  230MOL   H10846366   3.798   2.101   6.940  1.2659  0.2274  2.3665
  230MOL   H10946367   3.880   2.245   6.688  2.1603 -1.9971 -0.1252
  230MOL   H11046368   3.697   2.154   6.587  2.1281  0.9667  0.0114
  230MOL   H11146369   3.631   2.088   6.726 -0.2741  1.2464  0.1179
  230MOL   C11246370   3.793   1.968   6.630 -0.0664 -0.6975  0.8463
  230MOL   C11346371   3.770   1.856   6.730 -0.3213 -0.0275 -0.5487
  230MOL   C11446372   3.858   1.761   6.768 -0.2392 -0.1413 -0.7754
  230MOL   C11546373   3.817   1.639   6.855 -0.4923 -0.2080 -0.5686
  230MOL   H11646374   3.736   1.936   6.543 -0.7200 -3.8128  2.3262
  230MOL   H11746375   3.892   1.995   6.592  1.1307 -0.3326  4.0281
  230MOL   H11846376   3.675   1.854   6.782 -0.0207  1.0674  0.0421
  230MOL   H11946377   3.958   1.764   6.725  0.6127 -0.4144  1.1251
  230MOL   H12046378   3.803   1.559   6.782 -0.0415 -0.6975 -0.1273
  230MOL   H12146379   3.718   1.656   6.897 -0.0465  1.8077 -0.2825
  230MOL   C12246380   3.918   1.593   6.962  0.0493  0.2258 -0.4362
  230MOL   C12346381   3.857   1.502   7.073 -0.5403 -0.2721 -0.7100
  230MOL   C12446382   3.874   1.369   7.061 -0.0078 -0.2805 -0.0983
  230MOL   C12546383   3.842   1.264   7.165 -0.1450  0.4996  0.2010
  230MOL   H12646384   4.017   1.560   6.934  0.3097 -1.4083  2.2430
  230MOL   H12746385   3.930   1.675   7.033  1.2468 -1.3971  1.2783
  230MOL   H12846386   3.830   1.547   7.167  0.7210  1.8452 -1.3316
  230MOL   H12946387   3.903   1.321   6.969  0.6446 -0.5466  0.2440
  230MOL   H13046388   3.750   1.223   7.125  0.5836 -0.7329 -0.2318
  230MOL   H13146389   3.824   1.301   7.266  0.3901  0.7542  0.2056
  230MOL   C13246390   3.955   1.156   7.175 -0.7555  0.4164 -0.4717
  230MOL   C13346391   3.907   1.030   7.249 -1.0255  0.1849 -0.4186
  230MOL   C13446392   3.928   0.906   7.197  0.2702 -0.3567 -0.2734
  230MOL   C13546393   3.903   0.763   7.260 -0.0910 -0.4921 -0.1908
  230MOL   H13646394   3.994   1.124   7.079  3.0172 -0.8744  1.4207
  230MOL   H13746395   4.035   1.214   7.220 -2.3494  1.9452  0.4748
  230MOL   H13846396   3.850   1.034   7.341  2.1294  1.3264  1.5571
  230MOL   H13946397   3.986   0.904   7.106  2.1438 -0.9056  0.8856
  230MOL   H14046398   3.998   0.716   7.287  0.7536 -0.0425 -2.2540
  230MOL   H14146399   3.845   0.705   7.188 -0.6217  1.7430 -1.6088
  230MOL   C14246400   3.815   0.773   7.390  0.0342 -0.9673  0.1329
  230MOL   C14346401   3.778   0.636   7.450 -1.2010 -0.2834 -0.5031
  230MOL   C14446402   3.836   0.592   7.564  0.7870  0.6210 -0.3771
  230MOL   C14546403   3.797   0.449   7.607  0.1589  0.2458 -0.1681
  230MOL   H14646404   3.863   0.843   7.458 -0.8302 -1.0632  0.8490
  230MOL   H14746405   3.715   0.812   7.370 -0.5177 -1.6585  1.5323
  230MOL   H14846406   3.712   0.566   7.400 -2.2784 -0.1058  0.6435
  230MOL   H14946407   3.909   0.639   7.627  0.4154  1.3269 -0.4578
  230MOL   H15046408   3.895   0.413   7.639  0.8174  0.8740 -1.4100
  230MOL   H15146409   3.767   0.378   7.530 -0.2756  0.6641 -0.3904
  230MOL   C15246410   3.707   0.451   7.730  0.6158  0.5805  0.4374
  230MOL   C15346411   3.667   0.318   7.793 -0.5194  0.1652  0.0174
  230MOL   C15446412   3.674   0.306   7.924  0.5641  0.5334 -0.3667
  230MOL   C15546413   3.631   0.189   0.031  0.0593  0.7298  0.0625
  230MOL   H15646414   3.764   0.512   7.800 -1.0016  2.5835  0.0678
  230MOL   H15746415   3.617   0.508   7.706  1.0869  1.0576 -0.2078
  230MOL   H15846416   3.641   0.230   7.736 -1.9868 -0.5626  1.7693
  230MOL   H15946417   3.707   0.392   0.002  2.1945  1.2850 -2.4520
  230MOL   H16046418   3.662   0.193   0.136  0.8678 -0.2719 -0.1276
  230MOL   H16146419   3.669   0.093   7.973 -2.7645 -0.4544  0.0867
  230MOL   C16246420   3.476   0.180   0.039 -0.0797  0.4167  0.5537
  230MOL   C16346421   3.420   0.083   0.137 -0.2616 -0.4707 -0.0202
  230MOL   C16446422   3.313   0.000   0.117  0.3486  0.9668  0.3565
  230MOL   C16546423   3.244   7.879   0.200 -0.2715 -0.5467 -0.0199
  230MOL   H16646424   3.434   0.278   0.064 -1.0779  0.4032 -1.0317
  230MOL   H16746425   3.439   0.162   7.915  1.9318  0.6757 -0.2498
  230MOL   H16846426   3.465   0.083   0.235 -1.1106  0.1246  0.3705
  230MOL   H16946427   3.274   0.006   0.016  1.4023 -1.4578 -0.2376
  230MOL   H17046428   3.200   7.799   0.140 -1.2366 -1.4207  1.7899
  230MOL   H17146429   3.170   7.936   0.257 -0.7961  0.0453 -1.2766
  230MOL   C17246430   3.342   7.812   0.296  0.0381 -0.4546 -0.2461
  230MOL   C17346431   3.265   7.723   0.379  0.7636  0.2455 -0.1644
  230MOL   C17446432   3.231   7.757   0.499  0.7371  0.3261 -0.5546
  230MOL   C17546433   3.142   7.671   0.585  0.1727 -0.3113  0.0646
  230MOL   H17646434   3.404   7.753   0.228  1.0022 -0.6743  0.8127
  230MOL   H17746435   3.415   7.870   0.353  1.3570 -2.1471 -0.1705
  230MOL   H17846436   3.228   7.629   0.342  0.6372 -0.8955  2.6910
  230MOL   H17946437   3.265   7.849   0.543  1.2931 -0.9932  1.9036
  230MOL   H18046438   3.104   7.585   0.530  3.3930 -0.1341 -2.6538
  230MOL   H18146439   3.048   7.721   0.605  0.1174  0.8485 -2.8676
  230MOL   C18246440   3.199   7.640   0.718 -0.1224  0.1388  0.0633
  230MOL   C18346441   3.101   7.538   0.794  0.2089 -0.7074  0.6032
  230MOL   C18446442   3.139   7.411   0.829  0.9673 -0.6714 -0.2199
  230MOL   C18546443   3.047   7.307   0.894 -0.1016  0.1791 -0.5108
  230MOL   H18646444   3.299   7.597   0.728 -0.0131  0.6229  1.1450
  230MOL   H18746445   3.210   7.731   0.777 -0.8187  0.2335  0.0596
  230MOL   H18846446   2.998   7.563   0.811 -0.9300 -1.4370 -4.4951
  230MOL   H18946447   3.232   7.369   0.795  2.3100 -0.9532  3.5360
  230MOL   H19046448   3.049   7.216   0.834  0.0675  0.0357 -0.2861
  230MOL   H19146449   2.944   7.342   0.888  0.6126  2.6561  1.3129
  230MOL   C19246450   3.093   7.284   1.038 -0.8230 -0.3106 -0.9692
  230MOL   C19346451   2.996   7.189   1.110 -0.2474  0.0205  0.3792
  230MOL   C19446452   3.023   7.087   1.193  0.0190  1.2058 -0.7981
  230MOL   C19546453   2.922   6.994   1.258  0.4903 -0.0175 -0.2487
  230MOL   H19646454   3.194   7.245   1.050  0.2321  2.8359  1.2008
  230MOL   H19746455   3.091   7.378   1.094 -1.2423 -0.6165 -0.4615
  230MOL   H19846456   2.891   7.212   1.100  0.3977  2.2529 -1.7025
  230MOL   H19946457   3.126   7.058   1.211 -0.2773  0.6127 -0.0316
  230MOL   H20046458   2.928   7.004   1.366 -2.1940  3.2535 -0.3294
  230MOL   H20146459   2.958   6.895   1.230 -0.8850 -0.2801 -1.1110
  230MOL   H20246460   2.824   7.018   1.218  0.1488 -1.6363 -0.3862
  231MOL     C146461   7.830   2.904   7.055 -0.3229 -0.0578  0.4462
  231MOL     C246462   7.675   2.892   7.024 -0.4848  0.1971 -0.0409
  231MOL     C346463   7.573   2.918   7.110 -1.2737  0.1258 -0.1973
  231MOL     C446464   7.427   2.884   7.098  0.2285 -0.1166  0.1660
  231MOL     H546465   7.876   2.806   7.045 -0.2885  0.0294 -0.3107
  231MOL     H646466   7.858   2.944   7.152 -0.3715  0.0977  0.3955
  231MOL     H746467   7.654   2.848   6.927  0.1974  2.1022 -1.0848
  231MOL     H846468   7.603   2.975   7.198  0.6745 -0.6670 -0.3173
  231MOL     H946469   7.387   2.855   7.195 -1.0015  0.6738 -0.0926
  231MOL    H1046470   7.419   2.808   7.021 -0.2245 -0.2775  0.3718
  231MOL    H1146471   7.885   2.967   6.986  1.6110  0.1867  2.1567
  231MOL    C1246472   7.348   3.009   7.052  0.0031  0.5812 -0.2288
  231MOL    C1346473   7.194   2.981   7.056  0.4527 -0.3996  0.5332
  231MOL    C1446474   7.138   2.864   7.075 -0.5431  1.1418  0.1890
  231MOL    C1546475   6.993   2.818   7.061 -0.5194  0.1919  0.8178
  231MOL    H1646476   7.367   3.093   7.119  0.6860 -0.9518  1.5523
  231MOL    H1746477   7.381   3.041   6.953  0.3560 -1.5943 -0.8495
  231MOL    H1846478   7.130   3.068   7.049  1.3548  0.4766  2.6415
  231MOL    H1946479   7.207   2.785   7.102 -0.6119  1.3183  0.9017
  231MOL    H2046480   6.932   2.908   7.051  0.7711  0.9487 -0.3672
  231MOL    H2146481   6.968   2.759   7.150  0.2972 -0.1422  0.8294
  231MOL    C2246482   6.969   2.736   6.931  0.4044  0.3070  0.0189
  231MOL    C2346483   6.823   2.695   6.914 -0.2441  0.1624 -0.0570
  231MOL    C2446484   6.750   2.713   6.806 -0.6020 -0.3196 -0.5889
  231MOL    C2546485   6.607   2.675   6.794  1.0110  0.2135 -0.1574
  231MOL    H2646486   6.993   2.799   6.846 -0.0441  2.5437  1.5310
  231MOL    H2746487   7.039   2.652   6.926 -0.6845 -0.5001 -1.8836
  231MOL    H2846488   6.774   2.649   6.999  0.4994  1.5269  1.1257
  231MOL    H2946489   6.790   2.746   6.711  1.2753  0.8829  0.5823
  231MOL    H3046490   6.573   2.605   6.871  0.5455 -0.6089 -1.1066
  231MOL    H3146491   6.607   2.613   6.705  0.3830  0.5935 -0.4284
  231MOL    C3246492   6.520   2.801   6.792  0.1279  0.0562  0.5265
  231MOL    C3346493   6.373   2.773   6.802  0.7932  0.1942  0.7897
  231MOL    C3446494   6.291   2.806   6.903  0.3851  0.1604  0.1016
  231MOL    C3546495   6.149   2.764   6.907  0.3277  1.0929  1.0202
  231MOL    H3646496   6.554   2.865   6.873  1.3171  0.0801  0.0253
  231MOL    H3746497   6.549   2.864   6.708  0.0098  0.1862  0.5841
  231MOL    H3846498   6.319   2.708   6.736 -2.5646  3.3683  0.2274
  231MOL    H3946499   6.326   2.864   6.987 -3.2235  1.4280  0.8100
  231MOL    H4046500   6.123   2.711   6.999 -0.4925 -1.6782 -0.7715
  231MOL    H4146501   6.137   2.697   6.823  1.0946  1.1960  0.8246
  231MOL    C4246502   6.066   2.889   6.893  0.9805  0.6352  0.0202
  231MOL    C4346503   5.912   2.879   6.881 -0.3463 -0.0789  0.3711
  231MOL    C4446504   5.837   2.952   6.799  0.2188 -0.7193  0.3662
  231MOL    C4546505   5.687   2.939   6.792 -0.3629 -0.2945 -0.3548
  231MOL    H4646506   6.080   2.961   6.974  0.6888 -0.6100  1.2062
  231MOL    H4746507   6.106   2.933   6.802 -0.0602  1.6369  0.0412
  231MOL    H4846508   5.859   2.819   6.954  0.1355 -1.1689 -0.1609
  231MOL    H4946509   5.885   3.023   6.733  0.4885 -1.3376 -0.1075
  231MOL    H5046510   5.655   2.836   6.809 -0.2178 -0.1092  1.1059
  231MOL    H5146511   5.669   2.956   6.686 -0.0318  2.2070 -0.0338
  231MOL    C5246512   5.609   3.053   6.860 -0.3218 -0.4224  0.2747
  231MOL    C5346513   5.474   3.091   6.812 -0.7793  0.2554 -0.1351
  231MOL    C5446514   5.368   3.119   6.892 -0.3532  0.1598  0.2574
  231MOL    C5546515   5.227   3.168   6.842  0.0333 -0.0171 -0.0932
  231MOL    H5646516   5.606   3.056   6.969 -0.4761 -0.0808  0.2612
  231MOL    H5746517   5.670   3.141   6.837  1.9444 -1.6178  1.5396
  231MOL    H5846518   5.468   3.087   6.704  0.7563 -2.3639 -0.1847
  231MOL    H5946519   5.388   3.133   6.997  1.2362 -2.4382  0.3687
  231MOL    H6046520   5.195   3.247   6.910 -0.4780  0.0853 -0.4488
  231MOL    H6146521   5.160   3.085   6.861 -1.1467  0.7602 -0.7386
  231MOL    C6246522   5.216   3.205   6.695  0.5640 -0.2710 -0.4488
  231MOL    C6346523   5.311   3.324   6.667 -0.0950 -0.4084  0.1052
  231MOL    C6446524   5.384   3.337   6.552  0.1024 -0.6755 -0.5373
  231MOL    C6546525   5.480   3.457   6.505  0.7206 -0.4192  0.7222
  231MOL    H6646526   5.236   3.116   6.636 -1.3847 -0.0309 -1.4946
  231MOL    H6746527   5.115   3.236   6.671 -0.0502 -1.0528  1.0767
  231MOL    H6846528   5.304   3.407   6.735 -0.4908 -0.4504  0.1152
  231MOL    H6946529   5.380   3.258   6.478  1.9256 -2.0250  0.7724
  231MOL    H7046530   5.445   3.549   6.552 -0.1166 -0.0353 -0.6038
  231MOL    H7146531   5.464   3.478   6.399 -1.4504 -2.4775  0.6182
  231MOL    C7246532   5.621   3.420   6.534 -0.9140  0.6630  0.4604
  231MOL    C7346533   5.683   3.306   6.456  0.2220  0.0591 -0.1466
  231MOL    C7446534   5.737   3.197   6.513  0.2096 -1.1610  0.6643
  231MOL    C7546535   5.812   3.094   6.425  0.0765  0.1497  0.4399
  231MOL    H7646536   5.689   3.504   6.521  1.6317 -1.2743  0.8704
  231MOL    H7746537   5.615   3.399   6.640 -0.1995 -0.0523  0.3582
  231MOL    H7846538   5.686   3.327   6.350 -1.1692  1.7679  0.1454
  231MOL    H7946539   5.719   3.194   6.619 -2.3299  1.3938  0.3590
  231MOL    H8046540   5.889   3.057   6.493 -2.0063  0.0705  2.8522
  231MOL    H8146541   5.855   3.146   6.339 -0.8310 -0.2755 -0.2784
  231MOL    C8246542   5.710   2.980   6.387 -0.0354 -0.1598 -0.1073
  231MOL    C8346543   5.773   2.872   6.307 -0.9284  1.0524  0.7777
  231MOL    C8446544   5.775   2.857   6.168  0.7948 -0.3264  0.5872
  231MOL    C8546545   5.837   2.749   6.088  0.0569 -0.3170  0.5414
  231MOL    H8646546   5.667   2.923   6.470 -2.0046 -2.4989 -2.6175
  231MOL    H8746547   5.625   3.023   6.334  0.3676  0.5586 -0.1718
  231MOL    H8846548   5.839   2.809   6.364 -2.7472  0.8016  2.6934
  231MOL    H8946549   5.724   2.936   6.116  1.3929 -0.1937  0.1936
  231MOL    H9046550   5.759   2.700   6.029  0.7224  0.2079 -0.7899
  231MOL    H9146551   5.876   2.681   6.164  1.9347 -0.5371 -0.6050
  231MOL    C9246552   5.941   2.798   5.991 -0.3633  0.3490 -0.3526
  231MOL    C9346553   6.001   2.679   5.923  0.2675 -0.0588  0.5530
  231MOL    C9446554   6.073   2.698   5.811 -0.1293 -0.3178 -0.7774
  231MOL    C9546555   6.133   2.583   5.733 -0.6082  0.4164 -0.3701
  231MOL    H9646556   5.889   2.868   5.925  0.1848  0.4319 -0.6997
  231MOL    H9746557   6.024   2.847   6.042 -0.4347  1.2249 -1.0714
  231MOL    H9846558   5.988   2.576   5.953 -0.9050 -0.4576 -1.2639
  231MOL    H9946559   6.105   2.798   5.788  2.2962 -0.1911  2.8228
  231MOL   H10046560   6.098   2.582   5.630 -0.7415 -1.8051 -0.3417
  231MOL   H10146561   6.111   2.479   5.760 -3.7857  1.1237 -0.0784
  231MOL   C10246562   6.285   2.606   5.731  0.1266  0.1546  0.1602
  231MOL   C10346563   6.358   2.509   5.634  0.2811 -0.1929  0.2093
  231MOL   C10446564   6.422   2.544   5.523  0.2876  0.1081  0.0532
  231MOL   C10546565   6.490   2.435   5.440 -0.8126 -0.9090  0.4436
  231MOL   H10646566   6.309   2.711   5.712  3.1413 -0.0228  2.5188
  231MOL   H10746567   6.322   2.574   5.828 -0.1159 -1.8283 -0.3844
  231MOL   H10846568   6.356   2.404   5.658 -1.9642 -0.2325 -0.0950
  231MOL   H10946569   6.428   2.645   5.485  2.1919 -0.2201 -0.5392
  231MOL   H11046570   6.494   2.339   5.492 -0.0716 -1.1836 -0.1094
  231MOL   H11146571   6.596   2.460   5.446 -1.3931  1.4618  1.3201
  231MOL   C11246572   6.437   2.420   5.298  0.2640 -0.3482  0.3584
  231MOL   C11346573   6.521   2.329   5.209 -0.1913 -0.1100 -0.0015
  231MOL   C11446574   6.593   2.362   5.101  0.6696  0.0835 -0.3196
  231MOL   C11546575   6.680   2.262   5.026  0.2248  0.4223 -0.3762
  231MOL   H11646576   6.337   2.377   5.295  0.0963  0.1485 -3.2932
  231MOL   H11746577   6.436   2.511   5.238  2.8321 -1.1161 -0.9085
  231MOL   H11846578   6.526   2.227   5.243  2.3024 -1.0036 -2.9076
  231MOL   H11946579   6.602   2.462   5.061  3.6441 -0.2358 -0.5404
  231MOL   H12046580   6.654   2.247   4.921 -2.9710  3.6750 -0.1051
  231MOL   H12146581   6.673   2.164   5.073 -0.1204  0.1705 -0.9477
  231MOL   C12246582   6.831   2.307   5.039 -0.0755  0.5584 -0.6460
  231MOL   C12346583   6.922   2.190   5.005 -0.1334 -0.3857  0.3257
  231MOL   C12446584   7.019   2.141   5.090 -0.1327 -0.4953  0.3275
  231MOL   C12546585   7.113   2.024   5.054 -0.0436  0.7372 -0.0576
  231MOL   H12646586   6.855   2.390   4.973  0.3925  0.8707 -0.0912
  231MOL   H12746587   6.846   2.348   5.139  1.4036  0.7409 -0.9382
  231MOL   H12846588   6.908   2.150   4.906 -1.0565 -2.1571  1.1479
  231MOL   H12946589   7.041   2.181   5.188  4.1000  0.6715 -0.9689
  231MOL   H13046590   7.211   2.060   5.022  1.6975 -2.7148  1.1462
  231MOL   H13146591   7.071   1.982   4.963 -0.0769  1.6899 -0.4923
  231MOL   C13246592   7.127   1.912   5.161  0.2591  0.4525 -0.1007
  231MOL   C13346593   7.236   1.818   5.112 -0.0780  1.3117 -0.3992
  231MOL   C13446594   7.343   1.785   5.188  0.3995  0.0988  0.9517
  231MOL   C13546595   7.447   1.682   5.133  0.2475  0.3084  0.3789
  231MOL   H13646596   7.154   1.944   5.262  1.0236 -0.9391  0.1480
  231MOL   H13746597   7.025   1.872   5.161  1.3963 -2.5771 -1.0736
  231MOL   H13846598   7.222   1.779   5.012  0.4880 -1.0753  0.4060
  231MOL   H13946599   7.356   1.828   5.286 -0.6963 -0.1788  1.2201
  231MOL   H14046600   7.443   1.672   5.024  2.2590 -0.3938  0.3482
  231MOL   H14146601   7.427   1.589   5.185 -1.3388 -0.1085 -0.9406
  231MOL   C14246602   7.589   1.722   5.162  0.1115 -0.0674  0.0252
  231MOL   C14346603   7.633   1.835   5.071  0.0393 -0.6633  0.2325
  231MOL   C14446604   7.733   1.838   4.989 -0.9056 -0.0363 -0.2551
  231MOL   C14546605   7.784   1.964   4.925  0.0698 -0.3459  0.6662
  231MOL   H14646606   7.594   1.739   5.269 -2.6130 -0.6515  0.2695
  231MOL   H14746607   7.655   1.638   5.141  2.0709  1.0990  1.3281
  231MOL   H14846608   7.558   1.912   5.071 -0.4902 -1.1668  1.2693
  231MOL   H14946609   7.800   1.755   4.980 -1.0690 -0.0481 -1.4363
  231MOL   H15046610   7.699   2.031   4.938 -0.9226 -1.5320  0.3582
  231MOL   H15146611   7.801   1.960   4.818 -3.7850  1.3578 -0.1104
  231MOL   C15246612   7.913   2.009   5.003 -0.4842 -0.4549  0.4551
  231MOL   C15346613   7.973   2.136   4.957 -0.8087 -0.2646 -0.5970
  231MOL   C15446614   0.019   2.250   5.025  0.3216  0.5773  0.1311
  231MOL   C15546615   0.096   2.367   4.967 -0.4523  0.4166 -0.9477
  231MOL   H15646616   7.879   2.013   5.106 -2.5549  2.7379 -0.2711
  231MOL   H15746617   0.018   1.938   4.995  0.9458  1.1887  0.4460
  231MOL   H15846618   0.036   2.133   4.856  1.5712 -1.1065  0.3503
  231MOL   H15946619   7.959   2.256   5.126 -4.1118  0.7636 -1.3575
  231MOL   H16046620   0.132   2.332   4.870 -0.7191 -0.8485 -0.5990
  231MOL   H16146621   0.184   2.387   5.029 -1.2191  0.4083  0.1648
  231MOL   C16246622   0.012   2.492   4.959 -0.0907 -0.0080 -0.1930
  231MOL   C16346623   7.966   2.575   5.091 -0.3445  0.3094  0.4001
  231MOL   C16446624   7.854   2.644   5.113 -0.6284  0.1399 -0.0013
  231MOL   C16546625   7.831   2.754   5.210 -0.4790 -0.0120  0.1896
  231MOL   H16646626   0.065   2.569   4.904  0.4538  1.4779  2.3056
  231MOL   H16746627   7.897   2.474   4.904  0.0733  0.0695 -0.4920
  231MOL   H16846628   0.073   2.585   5.158 -0.3662 -3.1461  1.0359
  231MOL   H16946629   7.772   2.621   5.048 -0.8938 -3.2584  1.4061
  231MOL   H17046630   7.921   2.795   5.257  0.3992 -2.0834  0.3867
  231MOL   H17146631   7.780   2.700   5.290 -2.8082  0.2469 -1.1043
  231MOL   C17246632   7.752   2.872   5.147 -0.1133  0.0899 -0.5405
  231MOL   C17346633   7.718   2.976   5.256  0.6912  0.3344  0.1929
  231MOL   C17446634   7.756   3.108   5.247 -0.1083  0.3674  0.8211
  231MOL   C17546635   7.715   3.210   5.352  1.2185  0.2940 -0.1017
  231MOL   H17646636   7.802   2.912   5.059  0.9993  0.8915  0.4423
  231MOL   H17746637   7.663   2.834   5.098  0.9091 -0.0633 -2.3171
  231MOL   H17846638   7.662   2.931   5.336 -1.2222 -0.3503 -1.4716
  231MOL   H17946639   7.819   3.146   5.168 -1.0240  1.4300  0.6000
  231MOL   H18046640   7.668   3.156   5.433 -1.9962  1.0481 -1.3948
  231MOL   H18146641   7.650   3.286   5.308 -1.8654 -2.2337 -0.0386
  231MOL   C18246642   7.831   3.282   5.426 -0.0467 -0.2185 -0.3591
  231MOL   C18346643   7.784   3.369   5.545 -0.1068  0.0794  0.3923
  231MOL   C18446644   7.860   3.461   5.605 -0.6401  0.2143  0.1052
  231MOL   C18546645   7.826   3.556   5.718  0.6426 -0.0834 -0.0518
  231MOL   H18646646   7.903   3.211   5.466 -0.3500  0.1637  0.8887
  231MOL   H18746647   7.888   3.342   5.356  1.2691 -0.7548  0.2451
  231MOL   H18846648   7.684   3.356   5.584 -0.1194  3.0365  1.5392
  231MOL   H18946649   7.964   3.451   5.577 -0.1260 -0.7980  2.2769
  231MOL   H19046650   7.875   3.529   5.811  1.5033  0.4906 -0.3200
  231MOL   H19146651   7.720   3.546   5.740  0.4638 -1.5406 -1.4955
  231MOL   C19246652   7.872   3.697   5.674 -0.1345 -0.2046 -0.7646
  231MOL   C19346653   7.825   3.810   5.764  0.4957  0.5985 -0.6446
  231MOL   C19446654   7.739   3.908   5.723 -0.4392  0.8236  0.4747
  231MOL   C19546655   7.697   4.029   5.803  0.1385  0.3886  0.5158
  231MOL   H19646656   0.003   3.700   5.658  0.2191  0.5249  1.5439
  231MOL   H19746657   7.823   3.717   5.579 -0.8890  1.0079 -0.1306
  231MOL   H19846658   7.857   3.811   5.867 -0.9430 -0.4608 -0.1629
  231MOL   H19946659   7.696   3.905   5.624  3.1182 -0.8605 -1.1135
  231MOL   H20046660   7.758   4.039   5.893  0.4228  0.1703  0.3509
  231MOL   H20146661   7.592   4.008   5.822  0.1876 -2.1359 -1.6964
  231MOL   H20246662   7.716   4.118   5.742 -0.3572 -0.0557 -0.2944
  232MOL     C146663   4.973   3.735   4.162 -0.1555  0.7599  0.0194
  232MOL     C246664   4.874   3.655   4.083  0.2748  0.6829 -0.6281
  232MOL     C346665   4.832   3.687   3.959  0.6637 -0.1310  0.0416
  232MOL     C446666   4.723   3.627   3.868 -0.1053  0.1746 -0.6910
  232MOL     H546667   4.941   3.797   4.246 -0.8592  0.3432  0.0624
  232MOL     H646668   5.026   3.800   4.093 -0.2490 -1.1070 -1.8606
  232MOL     H746669   4.835   3.565   4.127  1.3682 -0.0603 -1.1621
  232MOL     H846670   4.881   3.775   3.920  2.4602 -0.1766  2.0703
  232MOL     H946671   4.773   3.589   3.779 -1.0128 -0.4296 -0.9496
  232MOL    H1046672   4.669   3.713   3.827 -3.1077 -2.1148 -1.6650
  232MOL    H1146673   5.035   3.658   4.208 -2.4218 -1.3939 -0.4374
  232MOL    C1246674   4.643   3.513   3.931  0.3667 -0.3245 -0.8490
  232MOL    C1346675   4.546   3.462   3.826  0.4866 -0.1152 -0.1419
  232MOL    C1446676   4.590   3.382   3.732  0.2937  0.1264  0.7191
  232MOL    C1546677   4.496   3.324   3.623 -0.0219 -0.6764 -0.1615
  232MOL    H1646678   4.708   3.438   3.975 -0.8319 -0.0257  1.5721
  232MOL    H1746679   4.575   3.549   4.009 -0.6291  2.4296 -2.9022
  232MOL    H1846680   4.449   3.508   3.836  0.6039  0.5352 -1.8705
  232MOL    H1946681   4.693   3.348   3.740  0.0969 -1.2007 -1.7710
  232MOL    H2046682   4.544   3.334   3.526  0.6032 -0.2928  0.1826
  232MOL    H2146683   4.417   3.398   3.639 -0.6140 -1.7735  2.1542
  232MOL    C2246684   4.448   3.182   3.632  0.6478  0.3720  0.7899
  232MOL    C2346685   4.347   3.152   3.518  0.4017 -0.1943 -0.0703
  232MOL    C2446686   4.380   3.088   3.405 -0.6452 -0.1111 -0.2525
  232MOL    C2546687   4.285   3.063   3.297 -0.3030  0.4939 -0.0921
  232MOL    H2646688   4.518   3.100   3.615  0.3111  0.2063  0.1937
  232MOL    H2746689   4.416   3.156   3.732  0.4536  1.1946  0.9428
  232MOL    H2846690   4.249   3.193   3.539  1.0297  0.7553  1.0603
  232MOL    H2946691   4.482   3.056   3.385 -1.2642 -2.7352  0.5585
  232MOL    H3046692   4.282   3.149   3.231 -1.9311 -0.7188 -1.6469
  232MOL    H3146693   4.186   3.053   3.341 -1.4988 -0.6231 -2.8975
  232MOL    C3246694   4.317   2.943   3.208  0.9755  0.2093 -0.1163
  232MOL    C3346695   4.274   2.814   3.279 -0.0470  0.4610  0.1775
  232MOL    C3446696   4.345   2.695   3.290 -0.4534  0.0012 -0.0812
  232MOL    C3546697   4.279   2.563   3.332 -0.0304  0.6120 -0.7986
  232MOL    H3646698   4.264   2.932   3.113 -0.3867 -1.5536  0.8246
  232MOL    H3746699   4.423   2.938   3.180  0.9716  0.4531 -0.1706
  232MOL    H3846700   4.172   2.822   3.314 -0.1041  2.1246 -0.3122
  232MOL    H3946701   4.449   2.693   3.261 -0.1952 -0.3962  0.8729
  232MOL    H4046702   4.186   2.578   3.386 -0.6849 -2.4963 -0.9580
  232MOL    H4146703   4.355   2.527   3.400 -0.6032  0.8562 -0.0279
  232MOL    C4246704   4.279   2.454   3.219  0.1781 -0.9093 -0.1047
  232MOL    C4346705   4.236   2.320   3.267  0.1864  0.3747 -0.0493
  232MOL    C4446706   4.108   2.272   3.262 -0.2612  0.1903 -0.1037
  232MOL    C4546707   4.078   2.146   3.346 -0.0000 -0.4124  0.5808
  232MOL    H4646708   4.226   2.491   3.132  2.5517  1.0322 -0.7947
  232MOL    H4746709   4.382   2.440   3.185  0.1427  0.3570 -0.7611
  232MOL    H4846710   4.308   2.267   3.327 -2.2886 -1.0106  1.8361
  232MOL    H4946711   4.026   2.326   3.218 -0.3512 -0.9595 -1.3752
  232MOL    H5046712   4.074   2.171   3.452  0.2228 -1.8001  0.9334
  232MOL    H5146713   4.155   2.071   3.328 -0.2354 -1.3059  3.1130
  232MOL    C5246714   3.941   2.097   3.301 -0.2759  0.2696  0.3349
  232MOL    C5346715   3.888   1.988   3.388  0.7915 -0.8341 -0.1251
  232MOL    C5446716   3.854   1.871   3.331  0.3722 -0.3347  0.3518
  232MOL    C5546717   3.793   1.759   3.412 -0.1309 -0.8339  0.4909
  232MOL    H5646718   3.866   2.174   3.283  1.0220  0.8967 -2.6516
  232MOL    H5746719   3.961   2.052   3.203  0.0657  2.5412 -0.6826
  232MOL    H5846720   3.850   2.017   3.484 -0.4233  1.3660 -1.2290
  232MOL    H5946721   3.881   1.848   3.229 -0.7927 -0.1190 -0.0057
  232MOL    H6046722   3.829   1.767   3.514 -2.5534  0.8675  1.2593
  232MOL    H6146723   3.820   1.660   3.376 -0.1469  0.2476 -2.6843
  232MOL    C6246724   3.648   1.784   3.427 -0.1068  0.7051  0.2417
  232MOL    C6346725   3.567   1.659   3.451 -0.5602 -0.3304 -0.8748
  232MOL    C6446726   3.467   1.633   3.367  0.3064 -0.0620 -0.3388
  232MOL    C6546727   3.365   1.522   3.367  0.6298  0.9399  0.1464
  232MOL    H6646728   3.623   1.854   3.507  1.1925  3.4342 -1.6411
  232MOL    H6746729   3.608   1.838   3.341  1.9352  2.1895  0.1895
  232MOL    H6846730   3.586   1.606   3.543 -2.2582 -0.6517 -0.6934
  232MOL    H6946731   3.454   1.698   3.282  1.4240  0.3324 -0.2116
  232MOL    H7046732   3.419   1.446   3.423  0.5086  0.8720  0.1710
  232MOL    H7146733   3.358   1.483   3.265  0.4808  1.7137 -0.1404
  232MOL    C7246734   3.222   1.563   3.419 -0.4153 -0.2773  0.2248
  232MOL    C7346735   3.152   1.430   3.471 -0.4442 -0.5374 -0.2811
  232MOL    C7446736   3.028   1.390   3.434  0.3507  0.0251  0.6312
  232MOL    C7546737   2.972   1.258   3.479 -0.5980  0.3308  0.1514
  232MOL    H7646738   3.228   1.629   3.506  1.8321  0.6140 -0.5654
  232MOL    H7746739   3.166   1.619   3.344  0.1853  1.7959  1.2835
  232MOL    H7846740   3.210   1.377   3.544  1.2798  1.6427 -0.0148
  232MOL    H7946741   2.963   1.442   3.365  2.0290  0.7299 -0.4581
  232MOL    H8046742   2.869   1.274   3.511 -0.3411 -1.0542  1.7215
  232MOL    H8146743   3.010   1.205   3.566 -1.1802 -0.3366  0.0044
  232MOL    C8246744   2.960   1.161   3.359  0.5598  0.0676 -0.3215
  232MOL    C8346745   2.857   1.049   3.386  0.6462  0.4247  0.1183
  232MOL    C8446746   2.893   0.921   3.400  0.1115 -0.5539 -0.6793
  232MOL    C8546747   2.799   0.802   3.410  0.1854  0.1737 -0.7516
  232MOL    H8646748   2.910   1.207   3.274 -0.2045 -1.9515 -0.9663
  232MOL    H8746749   3.057   1.117   3.336  0.0987  0.0138 -2.2427
  232MOL    H8846750   2.752   1.073   3.375  0.4911  0.0660  0.7701
  232MOL    H8946751   2.997   0.892   3.396  0.2875  0.0454 -0.6131
  232MOL    H9046752   2.827   0.745   3.499  2.2819 -1.9693 -2.7001
  232MOL    H9146753   2.812   0.729   3.330  2.3015  1.0454 -1.2576
  232MOL    C9246754   2.647   0.841   3.410  0.6140 -0.0464 -0.4323
  232MOL    C9346755   2.555   0.722   3.410  0.5200  0.1261 -0.7839
  232MOL    C9446756   2.478   0.677   3.310 -0.5223 -0.1805 -0.0339
  232MOL    C9546757   2.381   0.558   3.322  0.0306 -0.2957 -0.1971
  232MOL    H9646758   2.614   0.910   3.487  0.5293 -0.0425 -0.4717
  232MOL    H9746759   2.626   0.891   3.316  0.0324 -3.1763 -2.0406
  232MOL    H9846760   2.540   0.684   3.510  0.8028  0.7707 -0.4894
  232MOL    H9946761   2.486   0.732   3.217  0.2392  0.3002  0.3116
  232MOL   H10046762   2.400   0.499   3.412 -0.8127 -0.0855  0.1246
  232MOL   H10146763   2.407   0.490   3.241  1.2021 -0.5697  0.4044
  232MOL   C10246764   2.235   0.589   3.316 -0.0098 -0.4060  0.4727
  232MOL   C10346765   2.180   0.646   3.185 -0.1784 -0.7114 -0.2363
  232MOL   C10446766   2.080   0.589   3.121  0.1566  0.3460  0.0988
  232MOL   C10546767   2.017   0.652   3.001  0.0564 -0.3764 -0.2106
  232MOL   H10646768   2.170   0.506   3.340 -0.2708 -0.6365 -0.9897
  232MOL   H10746769   2.218   0.656   3.401  0.6412  0.6606 -0.2192
  232MOL   H10846770   2.221   0.741   3.152 -0.5025 -0.3402  0.4132
  232MOL   H10946771   2.040   0.494   3.153 -0.1755 -0.2593 -2.0279
  232MOL   H11046772   2.074   0.734   2.958 -1.1983  0.2703 -0.6677
  232MOL   H11146773   1.928   0.704   3.035  0.3911 -0.5816  1.0084
  232MOL   C11246774   1.984   0.556   2.890  0.1055  0.0448 -0.4931
  232MOL   C11346775   1.944   0.627   2.763 -0.2268 -0.2865 -0.3401
  232MOL   C11446776   1.844   0.596   2.684 -1.3441  0.2857 -0.2120
  232MOL   C11546777   1.799   0.676   2.565 -0.1037 -0.1209  0.0589
  232MOL   H11646778   2.071   0.494   2.866  0.2386 -1.2688  3.0891
  232MOL   H11746779   1.909   0.484   2.923  0.7864  0.0731  1.1697
  232MOL   H11846780   2.011   0.709   2.738 -1.2930  0.9698  0.8575
  232MOL   H11946781   1.771   0.522   2.714  1.2344 -1.5380  1.8099
  232MOL   H12046782   1.739   0.612   2.500 -0.3502  0.3726 -0.2021
  232MOL   H12146783   1.877   0.704   2.494  0.2250 -0.3593  0.3286
  232MOL   C12246784   1.706   0.784   2.601 -0.3802  0.6320  0.5058
  232MOL   C12346785   1.656   0.847   2.476 -0.2445  0.6549 -0.3004
  232MOL   C12446786   1.526   0.859   2.446  0.3122 -1.1635 -0.3950
  232MOL   C12546787   1.469   0.916   2.319 -0.4736 -0.2890 -0.4899
  232MOL   H12646788   1.624   0.738   2.657 -1.2459  2.3842  0.7248
  232MOL   H12746789   1.754   0.859   2.664 -1.6672  1.1220  0.9136
  232MOL   H12846790   1.729   0.890   2.409  0.8959 -1.1793 -0.2784
  232MOL   H12946791   1.458   0.813   2.516  1.5003 -0.7535  1.0371
  232MOL   H13046792   1.547   0.949   2.251 -0.9095  0.2526 -0.7325
  232MOL   H13146793   1.406   1.002   2.343 -0.3535 -0.4278  0.3552
  232MOL   C13246794   1.380   0.815   2.244  0.2532 -0.5441  0.1423
  232MOL   C13346795   1.291   0.873   2.139 -0.5824 -0.4266  0.9416
  232MOL   C13446796   1.293   0.859   2.014 -0.1555  0.3645 -0.2221
  232MOL   C13546797   1.182   0.900   1.914 -0.5317 -0.1544 -0.5601
  232MOL   H13646798   1.438   0.733   2.202  1.2826 -0.2891  1.0173
  232MOL   H13746799   1.321   0.770   2.324 -0.0187 -0.5487 -0.0642
  232MOL   H13846800   1.216   0.936   2.185 -1.8663 -1.1153 -0.1817
  232MOL   H13946801   1.365   0.796   1.964  0.9718  0.2919  1.4661
  232MOL   H14046802   1.213   0.985   1.852 -1.7819 -0.1171 -1.1519
  232MOL   H14146803   1.102   0.949   1.969  0.5564 -0.9656  1.8209
  232MOL   C14246804   1.139   0.796   1.805 -0.2095 -0.3736  0.2086
  232MOL   C14346805   1.045   0.683   1.846  0.4333  0.2308 -0.5212
  232MOL   C14446806   1.080   0.554   1.835  0.3774  0.1166  0.5420
  232MOL   C14546807   0.980   0.439   1.856  0.4937  0.4014  0.2527
  232MOL   H14646808   1.096   0.843   1.716  0.2503 -1.3501 -0.5324
  232MOL   H14746809   1.222   0.747   1.756  0.6057  2.9616 -1.9164
  232MOL   H14846810   0.940   0.702   1.860  0.7394  1.2961  0.3852
  232MOL   H14946811   1.179   0.526   1.803 -0.0158 -0.7846  0.0868
  232MOL   H15046812   0.987   0.378   1.766  2.2174  0.9798 -0.0288
  232MOL   H15146813   0.881   0.482   1.874  0.2650 -0.1199  0.2689
  232MOL   C15246814   1.025   0.362   1.984  0.7922  0.4834 -0.5331
  232MOL   C15346815   0.951   0.240   2.012 -0.0194  0.0816  0.4400
  232MOL   C15446816   1.011   0.122   2.038 -0.1001  1.1180  0.5237
  232MOL   C15546817   0.927   7.972   2.057 -0.3087  0.3424 -0.2586
  232MOL   H15646818   1.131   0.337   1.987  0.3055 -1.6424  0.3181
  232MOL   H15746819   1.014   0.425   2.073  1.2700  0.3860 -0.4042
  232MOL   H15846820   0.844   0.248   2.001  0.0515  1.6456  0.7958
  232MOL   H15946821   1.118   0.114   2.051 -0.3703 -2.8851  1.0906
  232MOL   H16046822   0.819   0.010   2.045 -0.7125 -2.3269 -0.1756
  232MOL   H16146823   0.942   7.939   2.159 -0.5686 -1.0308 -0.6605
  232MOL   C16246824   0.966   7.852   1.960 -0.1823 -0.5275 -0.6985
  232MOL   C16346825   1.108   7.820   1.946  0.2605  0.4059  0.2358
  232MOL   C16446826   1.182   7.836   1.834  0.4776 -1.1452  0.3640
  232MOL   C16546827   1.321   7.790   1.819 -0.7408 -0.6575  0.8885
  232MOL   H16646828   0.905   7.771   1.998 -0.9615  0.0166 -0.7665
  232MOL   H16746829   0.921   7.879   1.864  3.0640 -2.3553 -2.8310
  232MOL   H16846830   1.157   7.773   2.030 -1.6806  0.5663  1.4849
  232MOL   H16946831   1.137   7.878   1.745  0.4699 -0.5945  0.6240
  232MOL   H17046832   1.358   7.767   1.919 -1.4991 -0.4126  1.2282
  232MOL   H17146833   1.389   7.874   1.800 -0.4720 -0.8872  0.8438
  232MOL   C17246834   1.333   7.681   1.711  0.1105  0.0088 -0.3042
  232MOL   C17346835   1.480   7.655   1.688  0.1098  0.6032 -0.0605
  232MOL   C17446836   1.539   7.546   1.739 -0.2557 -0.5897 -0.0522
  232MOL   C17546837   1.684   7.520   1.744  0.2189  0.3160 -0.1740
  232MOL   H17646838   1.279   7.595   1.750 -1.0011  1.1984  0.8704
  232MOL   H17746839   1.275   7.708   1.623  1.5568 -1.0662 -1.6194
  232MOL   H17846840   1.532   7.738   1.644  0.3032  0.4542 -0.1132
  232MOL   H17946841   1.475   7.478   1.794 -0.0918 -1.0076 -0.3786
  232MOL   H18046842   1.691   7.442   1.667  1.4236  0.0280  0.2226
  232MOL   H18146843   1.730   7.501   1.840 -0.3563 -0.4872 -0.0519
  232MOL   C18246844   1.758   7.645   1.686 -0.1658 -0.2104  0.6483
  232MOL   C18346845   1.914   7.641   1.687 -0.0389  0.5689 -0.2449
  232MOL   C18446846   1.992   7.742   1.724  0.0888 -0.2085  0.4659
  232MOL   C18546847   2.139   7.757   1.698  0.1213 -0.5725  0.1220
  232MOL   H18646848   1.721   7.655   1.584 -0.7691 -4.2619  0.3932
  232MOL   H18746849   1.733   7.733   1.746 -0.4479 -1.3940  2.2910
  232MOL   H18846850   1.957   7.552   1.643  0.0791 -0.7575  2.4270
  232MOL   H18946851   1.941   7.829   1.762 -1.3816 -1.0865  0.5346
  232MOL   H19046852   2.196   7.664   1.694  1.3494  0.1926 -0.6356
  232MOL   H19146853   2.183   7.785   1.794 -1.3468  0.6328  0.4659
  232MOL   C19246854   2.173   7.866   1.589 -0.4040 -0.3555  0.1988
  232MOL   C19346855   2.315   7.874   1.540  0.9160  0.4087 -0.2318
  232MOL   C19446856   2.387   7.976   1.482 -0.1569  0.0041  0.2587
  232MOL   C19546857   2.520   7.952   1.422  0.2045  0.3265 -0.5548
  232MOL   H19646858   2.109   7.832   1.508 -0.0611 -0.5285 -0.0016
  232MOL   H19746859   2.136   7.962   1.625 -1.9709 -1.2485  1.0294
  232MOL   H19846860   2.365   7.778   1.543 -1.0458 -0.6006  1.5783
  232MOL   H19946861   2.343   0.098   1.479 -2.2784 -0.9104  0.4731
  232MOL   H20046862   2.516   0.032   1.329  0.3650 -1.4427 -1.6646
  232MOL   H20146863   2.533   7.845   1.403  1.9504 -0.0883  2.6300
  232MOL   H20246864   2.592   0.025   1.487 -1.8339  0.3795  1.7360
  233MOL     C146865   4.377   7.467   7.799 -1.0770 -0.2367  0.0847
  233MOL     C246866   4.335   7.580   7.709 -0.1684  0.5178 -0.0461
  233MOL     C346867   4.410   7.613   7.605  0.2419  0.0406 -0.1832
  233MOL     C446868   4.382   7.731   7.515  0.3039  0.8746  0.1268
  233MOL     H546869   4.403   7.495   7.901 -1.0048  1.9822 -0.5127
  233MOL     H646870   4.462   7.410   7.759  0.9466  2.8721 -0.2200
  233MOL     H746871   4.250   7.641   7.737 -0.0554  0.4882  0.3687
  233MOL     H846872   4.497   7.554   7.580 -0.4431 -0.7379 -0.7383
  233MOL     H946873   4.464   7.753   7.446 -0.2748 -1.5813 -1.3692
  233MOL    H1046874   4.365   7.815   7.583  0.8172 -0.1877  1.5952
  233MOL    H1146875   4.283   7.414   7.787 -2.2804  1.9921 -0.5902
  233MOL    C1246876   4.252   7.708   7.428 -0.1294  0.0372  0.8970
  233MOL    C1346877   4.218   7.823   7.331 -0.4261  0.4214  0.5355
  233MOL    C1446878   4.180   7.791   7.207  0.5980  0.3224 -0.0980
  233MOL    C1546879   4.151   7.898   7.101 -0.0230 -0.2312 -0.3947
  233MOL    H1646880   4.253   7.618   7.366 -0.7857  1.6822 -1.5477
  233MOL    H1746881   4.170   7.694   7.498 -1.0478 -1.0204 -0.3664
  233MOL    H1846882   4.233   7.927   7.359 -0.3901  0.5918 -0.1111
  233MOL    H1946883   4.148   7.693   7.176 -2.0831  1.2436 -0.4589
  233MOL    H2046884   4.178   0.024   7.122  3.1385 -0.9537 -0.5949
  233MOL    H2146885   4.043   7.902   7.089  0.1301  0.5666 -1.5265
  233MOL    C2246886   4.222   7.864   6.973  0.1673  0.0327 -0.1098
  233MOL    C2346887   4.200   7.975   6.874 -0.0648  0.2468  0.4281
  233MOL    C2446888   4.295   0.049   6.795  0.1475  0.0723  0.1531
  233MOL    C2546889   4.266   0.170   6.706  0.4256 -0.2886  0.0980
  233MOL    H2646890   4.328   7.851   6.996  0.6921  1.1346 -1.7430
  233MOL    H2746891   4.191   7.768   6.932  1.4504 -0.2565 -0.4283
  233MOL    H2846892   4.102   0.044   6.870  1.3676  3.3214 -1.8390
  233MOL    H2946893   4.394   0.006   6.799  0.3085  0.4260  0.0078
  233MOL    H3046894   4.296   0.260   6.760  2.1445 -0.4034 -0.6411
  233MOL    H3146895   4.157   0.174   6.695  0.4285  0.8655  0.4340
  233MOL    C3246896   4.328   0.169   6.564  0.1806  0.0496  0.3899
  233MOL    C3346897   4.344   0.308   6.508  0.1119  0.7428 -0.0890
  233MOL    C3446898   4.455   0.374   6.459 -0.2978  0.0947 -0.2719
  233MOL    C3546899   4.444   0.516   6.415  0.3763  0.2571 -0.4293
  233MOL    H3646900   4.430   0.131   6.567  0.4704  0.6930 -1.1462
  233MOL    H3746901   4.257   0.115   6.500 -0.7717  2.2694 -0.4652
  233MOL    H3846902   4.254   0.367   6.514 -0.4737  0.0569 -1.8585
  233MOL    H3946903   4.554   0.333   6.470 -0.6988 -0.7474  0.1947
  233MOL    H4046904   4.539   0.569   6.411  1.1513 -1.0178  0.4696
  233MOL    H4146905   4.395   0.565   6.499  0.5997 -1.1949  0.5695
  233MOL    C4246906   4.367   0.536   6.280  0.3602  0.4766 -0.0056
  233MOL    C4346907   4.343   0.679   6.253  0.1146 -0.3468 -0.0388
  233MOL    C4446908   4.234   0.731   6.190 -0.7146 -0.0973 -0.2447
  233MOL    C4546909   4.220   0.888   6.180 -0.4107  0.6891 -0.1662
  233MOL    H4646910   4.434   0.495   6.205 -0.4732 -3.3190  1.1683
  233MOL    H4746911   4.272   0.481   6.278  1.2092 -0.9575 -2.8598
  233MOL    H4846912   4.418   0.751   6.279 -1.2934  1.2106 -0.1804
  233MOL    H4946913   4.152   0.665   6.167 -2.3433  2.2493 -1.3752
  233MOL    H5046914   4.318   0.935   6.190 -1.2658  2.2721  1.0051
  233MOL    H5146915   4.164   0.931   6.263  1.0884  2.9769 -0.3158
  233MOL    C5246916   4.156   0.942   6.051 -0.8761  0.4519  0.3357
  233MOL    C5346917   4.004   0.931   6.048 -0.3982 -0.4687 -0.9084
  233MOL    C5446918   3.923   1.042   6.038  0.0861 -0.4453 -0.0201
  233MOL    C5546919   3.767   1.043   6.043 -0.0793 -0.4257 -0.1033
  233MOL    H5646920   4.192   1.042   6.031  0.7104  0.0045  0.8862
  233MOL    H5746921   4.187   0.885   5.963 -0.0513 -0.4610  1.2022
  233MOL    H5846922   3.967   0.829   6.052  1.5380 -1.1736 -0.5709
  233MOL    H5946923   3.970   1.139   6.031  0.2298 -0.4888  0.2952
  233MOL    H6046924   3.730   0.944   6.070  0.1531 -0.6263 -0.5201
  233MOL    H6146925   3.737   1.055   5.939 -1.0846 -0.0634  0.2302
  233MOL    C6246926   3.723   1.152   6.143  0.0543 -0.2477  0.0826
  233MOL    C6346927   3.577   1.175   6.134  0.5629 -0.2651 -0.4212
  233MOL    C6446928   3.484   1.150   6.229 -0.0788  0.2914  0.6424
  233MOL    C6546929   3.333   1.185   6.217  0.4967  0.3081 -0.0499
  233MOL    H6646930   3.749   1.126   6.245  0.5463 -1.5103 -0.3538
  233MOL    H6746931   3.774   1.246   6.120  1.0270 -0.8669 -0.3714
  233MOL    H6846932   3.552   1.224   6.041 -1.7394  0.8618  0.7699
  233MOL    H6946933   3.517   1.094   6.315  2.4615  0.1290 -0.3933
  233MOL    H7046934   3.295   1.240   6.130 -0.9781 -1.1584 -0.3600
  233MOL    H7146935   3.327   1.266   6.290 -0.6824 -0.0051  0.2142
  233MOL    C7246936   3.228   1.074   6.244 -0.6949  1.0940  0.0357
  233MOL    C7346937   3.086   1.130   6.212 -0.0664  0.0276  0.3639
  233MOL    C7446938   2.989   1.133   6.305 -0.2872  0.7009  0.2146
  233MOL    C7546939   2.849   1.164   6.279  0.0160 -0.1291 -0.3376
  233MOL    H7646940   3.244   0.991   6.175  0.0337  0.0095  1.4736
  233MOL    H7746941   3.235   1.028   6.343 -1.9119 -1.1955 -0.8948
  233MOL    H7846942   3.070   1.160   6.109  1.7933  0.8138  0.2747
  233MOL    H7946943   3.015   1.089   6.400 -1.2116 -1.2986 -0.4482
  233MOL    H8046944   2.802   1.071   6.245  0.7895 -0.2686 -1.0553
  233MOL    H8146945   2.840   1.228   6.192 -1.5903 -0.8209 -0.6966
  233MOL    C8246946   2.782   1.228   6.399  0.1808  0.5135  0.6109
  233MOL    C8346947   2.685   1.336   6.372 -0.6924  0.7651  0.1130
  233MOL    C8446948   2.556   1.322   6.389  0.6571 -0.1406  0.0993
  233MOL    C8546949   2.453   1.445   6.380 -0.2896 -0.0268  0.1148
  233MOL    H8646950   2.734   1.149   6.457  1.4354 -2.4558 -2.2512
  233MOL    H8746951   2.856   1.262   6.473  2.3883  0.5007 -1.5394
  233MOL    H8846952   2.723   1.430   6.334 -2.8432  0.5093 -2.8690
  233MOL    H8946953   2.506   1.227   6.406  0.2949 -0.0476 -0.4247
  233MOL    H9046954   2.397   1.449   6.287  1.2130  1.6603 -0.7520
  233MOL    H9146955   2.504   1.542   6.377 -0.8034  0.2649  0.6961
  233MOL    C9246956   2.352   1.440   6.499 -0.0988 -0.3683  0.1953
  233MOL    C9346957   2.282   1.570   6.528  0.0917 -0.3795  0.3044
  233MOL    C9446958   2.185   1.613   6.454 -0.4080  0.2363 -0.0568
  233MOL    C9546959   2.105   1.741   6.472 -0.1427  0.5947 -0.7267
  233MOL    H9646960   2.284   1.359   6.473 -0.2367  0.1672 -1.2023
  233MOL    H9746961   2.409   1.402   6.583  0.6193  2.6644  1.1630
  233MOL    H9846962   2.321   1.637   6.604 -1.2230  2.8763 -1.7935
  233MOL    H9946963   2.150   1.550   6.374  0.7202 -0.6208  0.1064
  233MOL   H10046964   2.160   1.805   6.540 -0.1922 -2.8722  2.7420
  233MOL   H10146965   2.020   1.720   6.536 -0.0825  0.1867 -0.7794
  233MOL   C10246966   2.055   1.799   6.347 -0.1238  0.0735 -0.1862
  233MOL   C10346967   1.977   1.929   6.369  0.0781 -0.1156  0.2185
  233MOL   C10446968   1.844   1.943   6.351  0.7170  0.0914 -0.1558
  233MOL   C10546969   1.769   2.072   6.365 -0.0621 -0.3455  0.6624
  233MOL   H10646970   2.139   1.808   6.278 -0.4678 -0.2179 -0.6467
  233MOL   H10746971   1.996   1.723   6.296 -0.7495 -0.0369  0.6834
  233MOL   H10846972   2.031   2.020   6.389 -0.6500  0.0563  1.4644
  233MOL   H10946973   1.782   1.860   6.322 -1.0037  0.1917  2.9495
  233MOL   H11046974   1.725   2.103   6.271  1.2123 -0.8716 -0.1228
  233MOL   H11146975   1.841   2.153   6.377  1.1091 -1.6208  2.5449
  233MOL   C11246976   1.673   2.074   6.480  0.0583  0.2354 -0.1722
  233MOL   C11346977   1.590   2.203   6.490 -0.3370  0.2825  0.8575
  233MOL   C11446978   1.571   2.283   6.595 -0.1984  0.0267  0.1006
  233MOL   C11546979   1.464   2.394   6.595 -0.0467  0.1527 -0.1282
  233MOL   H11646980   1.597   1.998   6.461 -1.5800  1.6896  0.4334
  233MOL   H11746981   1.722   2.049   6.574 -1.3921 -2.3929 -0.0539
  233MOL   H11846982   1.536   2.225   6.398  0.1264  1.4827  0.8641
  233MOL   H11946983   1.623   2.262   6.687  0.0095 -2.9893 -0.6567
  233MOL   H12046984   1.371   2.353   6.636  0.7829 -0.5679  1.1045
  233MOL   H12146985   1.436   2.420   6.494  1.3595  2.5632  0.0783
  233MOL   C12246986   1.518   2.522   6.657 -0.0544  0.3505 -0.1647
  233MOL   C12346987   1.412   2.627   6.641 -0.0489  0.0125 -0.2877
  233MOL   C12446988   1.355   2.700   6.739  0.1747  0.2744 -0.1957
  233MOL   C12546989   1.275   2.828   6.726  0.2408  1.0910  0.4216
  233MOL   H12646990   1.549   2.501   6.760  1.3270  2.3632 -0.1468
  233MOL   H12746991   1.611   2.551   6.609  1.4575 -0.5299  2.1324
  233MOL   H12846992   1.384   2.649   6.540 -1.1213 -1.7970 -0.3978
  233MOL   H12946993   1.379   2.672   6.840 -0.5811 -1.0399 -0.3685
  233MOL   H13046994   1.282   2.885   6.818  1.4262 -0.7809  1.5340
  233MOL   H13146995   1.170   2.804   6.709  0.2623  1.7828 -0.7350
  233MOL   C13246996   1.330   2.924   6.612 -0.2900 -0.1305  0.1681
  233MOL   C13346997   1.274   3.063   6.614  0.2486 -0.4767 -0.1079
  233MOL   C13446998   1.172   3.106   6.691 -0.7472 -0.3461 -0.1664
  233MOL   C13546999   1.113   3.252   6.688  0.5486 -0.0102 -0.1105
  233MOL   H13647000   1.438   2.939   6.605 -0.4916  0.0566 -3.3103
  233MOL   H13747001   1.299   2.872   6.521  0.0501  0.6153 -0.3775
  233MOL   H13847002   1.311   3.130   6.537  0.2963 -0.7156 -0.2925
  233MOL   H13947003   1.126   3.038   6.760 -0.6927 -1.0877 -0.8538
  233MOL   H14047004   1.005   3.235   6.690  0.4021  0.8675 -0.4915
  233MOL   H14147005   1.134   3.304   6.594  0.1920 -0.2582 -0.3331
  233MOL   C14247006   1.150   3.344   6.813 -0.1659  0.0442  0.0696
  233MOL   C14347007   1.091   3.481   6.797 -0.4621 -0.1865 -0.0505
  233MOL   C14447008   1.017   3.547   6.892  0.4361  0.6690 -0.0148
  233MOL   C14547009   0.982   3.697   6.870 -0.4149 -0.2212  0.4085
  233MOL   H14647010   1.145   3.306   6.915  0.3258  1.9032  0.8120
  233MOL   H14747011   1.258   3.355   6.805  0.5627 -5.3298  0.7211
  233MOL   H14847012   1.111   3.521   6.699 -0.3873  1.3968  0.5933
  233MOL   H14947013   0.990   3.515   6.991  0.1939  2.5880  0.5775
  233MOL   H15047014   1.029   3.731   6.778 -3.0514  2.4888  0.0053
  233MOL   H15147015   1.025   3.760   6.948 -3.4042 -0.9583  2.7386
  233MOL   C15247016   0.834   3.733   6.846 -0.0255 -0.1174  0.0228
  233MOL   C15347017   0.748   3.692   6.966 -1.1223  0.1800 -0.6570
  233MOL   C15447018   0.627   3.634   6.958  0.9615 -0.6767  0.5433
  233MOL   C15547019   0.540   3.594   7.076  0.5851 -0.0032 -0.7384
  233MOL   H15647020   0.826   3.838   6.819  2.9462 -0.0855 -0.9078
  233MOL   H15747021   0.796   3.668   6.767 -0.9289 -0.5846  0.8213
  233MOL   H15847022   0.775   3.721   7.067 -1.8959  0.3307 -0.4868
  233MOL   H15947023   0.581   3.617   6.862  0.3642  1.7399  0.3601
  233MOL   H16047024   0.467   3.675   7.074  0.1425 -0.3807 -0.0337
  233MOL   H16147025   0.598   3.598   7.168  0.6198  1.6057 -0.8126
  233MOL   C16247026   0.496   3.456   7.049  0.3460  0.0685 -0.2802
  233MOL   C16347027   0.433   3.388   7.167 -0.6149 -0.4172  0.5767
  233MOL   C16447028   0.305   3.358   7.176 -0.5193 -0.4683  0.0533
  233MOL   C16547029   0.243   3.286   7.293 -0.2243  0.3509 -1.2010
  233MOL   H16647030   0.429   3.449   6.963 -0.4038  0.0750  0.3066
  233MOL   H16747031   0.579   3.393   7.015  1.2098  0.9584  0.1828
  233MOL   H16847032   0.487   3.380   7.261  1.9800 -1.1968 -0.9182
  233MOL   H16947033   0.242   3.383   7.092 -1.7331 -0.6514  0.8925
  233MOL   H17047034   0.181   3.356   7.348  0.9476 -0.9156  1.8105
  233MOL   H17147035   0.324   3.263   7.362 -0.3685 -0.5857 -1.3263
  233MOL   C17247036   0.183   3.152   7.242 -0.4147 -0.4213  0.7336
  233MOL   C17347037   0.121   3.072   7.357 -0.2234 -0.2652 -0.0286
  233MOL   C17447038   7.965   3.059   7.376 -0.3508  0.2388 -0.1741
  233MOL   C17547039   7.900   2.977   7.484 -0.0399  0.4955  0.2955
  233MOL   H17647040   0.105   3.179   7.171 -1.0782  0.4517  1.7842
  233MOL   H17747041   0.252   3.083   7.193  1.4038  2.8012 -1.3911
  233MOL   H17847042   0.188   3.033   7.432  0.7368 -2.3608 -1.9366
  233MOL   H17947043   7.904   3.105   7.299 -0.8737  2.7414  1.6899
  233MOL   H18047044   0.002   2.921   7.535  0.2347  0.8391  0.2489
  233MOL   H18147045   7.825   2.912   7.439  0.9142  0.5964 -1.4799
  233MOL   C18247046   7.832   3.073   7.583 -0.3640  0.4538  0.0171
  233MOL   C18347047   7.776   3.001   7.705 -0.7189 -0.2592 -0.0536
  233MOL   C18447048   7.649   3.016   7.741 -0.5114 -0.1802 -1.1653
  233MOL   C18547049   7.594   2.950   7.865 -0.1157 -0.3123  0.0787
  233MOL   H18647050   7.900   3.146   7.627  0.6999 -0.0201 -0.8288
  233MOL   H18747051   7.767   3.142   7.529 -1.3464 -0.7488 -0.3432
  233MOL   H18847052   7.843   2.932   7.754  0.1855  1.6308  1.4320
  233MOL   H18947053   7.580   3.080   7.689  1.8240  2.0038 -1.6879
  233MOL   H19047054   7.662   2.959   7.950  0.3661  1.2529 -0.4453
  233MOL   H19147055   7.585   2.842   7.854  0.0569 -0.3562  0.3652
  233MOL   C19247056   7.451   3.001   7.895 -0.3667 -1.0867 -0.3834
  233MOL   C19347057   7.374   2.910   0.009 -0.4188  0.2246  0.2342
  233MOL   C19447058   7.269   2.840   7.939 -0.3560 -0.2680 -0.6018
  233MOL   C19547059   7.172   2.741   0.028 -0.2868 -0.3758 -0.2434
  233MOL   H19647060   7.456   3.100   7.941  0.0045 -0.8490 -0.9206
  233MOL   H19747061   7.390   3.017   7.806  0.0278  1.3443 -0.2601
  233MOL   H19847062   7.403   2.903   0.113 -2.6854 -1.8727  0.7687
  233MOL   H19947063   7.247   2.852   7.833  0.9929  0.5245 -0.7994
  233MOL   H20047064   7.078   2.796   0.034 -0.4644 -0.7231  0.1655
  233MOL   H20147065   7.214   2.718   0.126  3.4813  1.9602 -1.2010
  233MOL   H20247066   7.159   2.646   7.955 -1.9438  0.4559 -1.4192
  234MOL     C147067   5.284   6.201   0.996  0.1900  0.0765  0.5922
  234MOL     C247068   5.376   6.145   0.892 -0.1979 -0.0045 -0.1666
  234MOL     C347069   5.504   6.174   0.868 -0.3059 -0.2957  0.3814
  234MOL     C447070   5.589   6.109   0.758 -0.0197 -0.0777  0.3780
  234MOL     H547071   5.238   6.117   1.047  0.7026  0.2911  1.4096
  234MOL     H647072   5.207   6.264   0.952  0.9182  1.8111  1.7561
  234MOL     H747073   5.331   6.074   0.824  3.4451 -0.9244 -1.6919
  234MOL     H847074   5.550   6.253   0.926  0.0524 -0.4012  0.2451
  234MOL     H947075   5.537   6.021   0.721  1.4142 -1.0746  0.6862
  234MOL    H1047076   5.670   6.050   0.801 -0.3610 -0.4377  0.5251
  234MOL    H1147077   5.338   6.258   1.072  0.2009  0.3588  0.3734
  234MOL    C1247078   5.647   6.217   0.655  0.0753  0.5420  0.1956
  234MOL    C1347079   5.733   6.160   0.544  1.1474 -1.1303 -0.1683
  234MOL    C1447080   5.864   6.188   0.536 -0.2961 -0.1632  0.1240
  234MOL    C1547081   5.955   6.149   0.418 -0.4073  0.8259 -0.4655
  234MOL    H1647082   5.564   6.271   0.608 -0.4879  0.7826  1.4314
  234MOL    H1747083   5.701   6.287   0.719 -0.9272  1.2564  0.2740
  234MOL    H1847084   5.688   6.090   0.475 -1.2657  1.7964 -1.6709
  234MOL    H1947085   5.912   6.253   0.607  0.4400 -1.8496  1.1964
  234MOL    H2047086   5.897   6.083   0.352 -1.2916  0.4017  0.7301
  234MOL    H2147087   6.045   6.097   0.452 -1.6197 -0.5544  0.7131
  234MOL    C2247088   5.993   6.267   0.339 -0.6561 -0.9090 -0.7126
  234MOL    C2347089   6.104   6.234   0.235 -0.3493  0.1228  0.1903
  234MOL    C2447090   6.228   6.297   0.223 -0.3678 -0.2058  0.1810
  234MOL    C2547091   6.330   6.246   0.123  0.2586  0.2630 -0.4565
  234MOL    H2647092   5.906   6.300   0.281 -1.7314 -2.2740  0.0986
  234MOL    H2747093   6.033   6.356   0.388 -0.4218 -1.4913  0.1532
  234MOL    H2847094   6.083   6.161   0.158  1.1787  0.1278 -0.2492
  234MOL    H2947095   6.261   6.384   0.279  0.7325 -0.7702  0.4159
  234MOL    H3047096   6.322   6.149   0.074  0.9411  1.0401 -2.1966
  234MOL    H3147097   6.425   6.235   0.175  0.6459 -1.3731 -1.4645
  234MOL    C3247098   6.355   6.348   0.014 -0.0886 -0.8351  0.6724
  234MOL    C3347099   6.240   6.422   7.935 -0.2759 -0.1410  0.8227
  234MOL    C3447100   6.219   6.555   7.954  0.2600  0.1128 -0.3627
  234MOL    C3547101   6.103   6.644   7.905 -0.3908 -0.4064  0.1055
  234MOL    H3647102   6.427   6.422   0.049 -0.7983  0.7277 -1.1016
  234MOL    H3747103   6.410   6.298   7.912  1.5095 -0.5037  1.5425
  234MOL    H3847104   6.172   6.359   7.879 -0.4437  0.2284  0.6088
  234MOL    H3947105   6.276   6.606   0.054  1.3050  1.2016 -1.8334
  234MOL    H4047106   6.034   6.670   0.008 -2.0461  0.7619 -1.6604
  234MOL    H4147107   6.041   6.588   7.835 -0.9871 -0.0465  0.3420
  234MOL    C4247108   6.153   6.776   7.842  0.2409 -0.3093 -0.2837
  234MOL    C4347109   6.223   6.876   7.934  0.6703  0.2712  0.3968
  234MOL    C4447110   6.351   6.909   7.920  0.1429 -0.4102  0.4243
  234MOL    C4547111   6.421   7.007   0.035  0.2912 -1.0639  0.3489
  234MOL    H4647112   6.215   6.758   7.755 -0.8550  0.6341 -1.2787
  234MOL    H4747113   6.068   6.825   7.796  0.1986 -1.2019 -1.1717
  234MOL    H4847114   6.167   6.920   0.037  0.4706  0.4206  0.1739
  234MOL    H4947115   6.414   6.860   7.847 -0.2161  0.4153 -0.4553
  234MOL    H5047116   6.497   6.960   0.097  1.5934  0.6463  0.0849
  234MOL    H5147117   6.344   7.052   0.097 -0.5763  0.4501 -1.7476
  234MOL    C5247118   6.499   7.113   7.939  0.4027 -0.6332  0.0728
  234MOL    C5347119   6.543   7.224   0.057 -0.3818  0.2514  0.0859
  234MOL    C5447120   6.669   7.270   0.067  0.6515  0.5725  0.5671
  234MOL    C5547121   6.694   7.387   0.155 -0.1207 -0.4784 -0.2107
  234MOL    H5647122   6.577   7.065   7.880 -1.8415 -2.5276 -1.4127
  234MOL    H5747123   6.439   7.144   7.854 -0.7964  0.0432  1.1396
  234MOL    H5847124   6.472   7.268   0.125 -0.2344 -0.8718  0.9807
  234MOL    H5947125   6.747   7.234   0.003  1.4314 -0.8662  2.2870
  234MOL    H6047126   6.643   7.385   0.251 -2.4611  1.5640 -1.3720
  234MOL    H6147127   6.648   7.467   0.098  0.2733  0.0492  0.2068
  234MOL    C6247128   6.843   7.419   0.173 -0.2001  0.0669 -0.4394
  234MOL    C6347129   6.875   7.562   0.228  0.2640 -0.5441  0.1778
  234MOL    C6447130   6.951   7.581   0.332 -0.2944 -0.1849 -0.0905
  234MOL    C6547131   6.990   7.724   0.388  0.2370 -0.6624 -0.8743
  234MOL    H6647132   6.898   7.337   0.219  1.2340  0.0343 -2.1208
  234MOL    H6747133   6.880   7.417   0.070 -3.8201  1.1471 -1.8380
  234MOL    H6847134   6.831   7.651   0.185  0.9294 -0.0934  0.4142
  234MOL    H6947135   6.987   7.496   0.388  0.2742 -1.2268 -2.0238
  234MOL    H7047136   6.954   7.723   0.491 -0.3217 -0.5898 -1.0653
  234MOL    H7147137   6.937   7.809   0.345 -1.4199 -1.8293 -1.1975
  234MOL    C7247138   7.142   7.737   0.387 -0.1363 -0.1342 -0.1533
  234MOL    C7347139   7.179   7.867   0.452 -0.7030 -0.3226  0.2732
  234MOL    C7447140   7.306   7.885   0.501  0.0089  1.0579  0.2780
  234MOL    C7547141   7.359   0.035   0.559  0.4309 -0.1876 -0.3453
  234MOL    H7647142   7.192   7.663   0.450  0.4104  0.6031  0.2885
  234MOL    H7747143   7.165   7.724   0.282  2.8846  1.0158  0.3054
  234MOL    H7847144   7.105   7.945   0.459  0.7857  1.1927 -0.5114
  234MOL    H7947145   7.382   7.812   0.476 -0.3199  0.6347  0.5104
  234MOL    H8047146   7.281   0.101   0.598 -0.4862 -2.2352  1.3636
  234MOL    H8147147   7.416   0.086   0.481  0.3583 -2.4548 -1.9289
  234MOL    C8247148   7.447   7.969   0.670  0.0901  0.3692  0.0008
  234MOL    C8347149   7.493   0.114   0.744  0.4578  0.7243  0.1765
  234MOL    C8447150   7.614   0.168   0.724 -0.6946 -0.1190 -0.0788
  234MOL    C8547151   7.672   0.288   0.804  1.0195  0.1410  0.9243
  234MOL    H8647152   7.387   7.919   0.746 -0.2569  0.7139 -0.0443
  234MOL    H8747153   7.532   7.909   0.639  0.0486 -1.5348  3.3108
  234MOL    H8847154   7.422   0.168   0.806 -1.1841 -0.8604 -0.2698
  234MOL    H8947155   7.678   0.104   0.666 -0.5052  0.5960 -0.6746
  234MOL    H9047156   7.599   0.336   0.869 -1.0586 -1.9114  0.1767
  234MOL    H9147157   7.708   0.362   0.732 -0.4189 -0.7145 -0.7166
  234MOL    C9247158   7.796   0.251   0.881  0.7565 -0.2076  0.2734
  234MOL    C9347159   7.864   0.374   0.940 -0.3836 -0.6953 -0.6467
  234MOL    C9447160   0.006   0.425   0.901  0.0877 -0.6392 -0.3246
  234MOL    C9547161   0.075   0.548   0.953 -0.0927 -0.8454 -0.0561
  234MOL    H9647162   7.774   0.167   0.947  0.9883 -0.5693 -0.1008
  234MOL    H9747163   7.869   0.201   0.816  2.3347  3.1439 -0.6259
  234MOL    H9847164   7.804   0.426   1.013 -0.1650 -1.2994 -0.0373
  234MOL    H9947165   0.066   0.381   0.822  1.8269 -1.4671  1.4298
  234MOL   H10047166   0.155   0.522   1.022 -0.2628  0.1830  0.5431
  234MOL   H10147167   0.003   0.595   1.021  1.0526 -1.1950  1.4366
  234MOL   C10247168   0.102   0.651   0.840  0.4142 -0.4860  0.2527
  234MOL   C10347169   0.189   0.767   0.886 -0.4837 -0.4229 -0.1366
  234MOL   C10447170   0.319   0.775   0.846  0.2275 -0.0759 -0.0930
  234MOL   C10547171   0.411   0.886   0.897 -0.5611  0.0971  0.2208
  234MOL   H10647172   0.160   0.603   0.760 -0.1638  0.5564 -0.8129
  234MOL   H10747173   0.012   0.694   0.797  0.6453  1.0774  1.3083
  234MOL   H10847174   0.143   0.839   0.953  0.1271 -1.0198  0.9483
  234MOL   H10947175   0.359   0.692   0.790  0.0521 -0.3641  0.2071
  234MOL   H11047176   0.500   0.836   0.934 -0.3462  0.1693 -0.1864
  234MOL   H11147177   0.367   0.946   0.976  1.5244 -0.0240  1.4932
  234MOL   C11247178   0.469   0.976   0.790  0.2038 -0.4364  0.1236
  234MOL   C11347179   0.566   1.076   0.863 -0.4454  0.4476 -0.7237
  234MOL   C11447180   0.656   1.150   0.796  0.1032 -0.0820 -0.0711
  234MOL   C11547181   0.773   1.236   0.844 -0.6278 -0.0364  0.0467
  234MOL   H11647182   0.517   0.924   0.708  0.7491 -1.1016  0.8572
  234MOL   H11747183   0.388   1.034   0.745 -0.7389 -1.2053  0.8114
  234MOL   H11847184   0.570   1.072   0.971  0.3417 -2.3517 -0.8189
  234MOL   H11947185   0.643   1.137   0.690  0.4836  0.3768 -0.1778
  234MOL   H12047186   0.863   1.189   0.805 -1.1031 -0.0618 -1.0382
  234MOL   H12147187   0.787   1.237   0.952  0.7539 -0.0281 -0.1233
  234MOL   C12247188   0.778   1.380   0.770  0.5011  0.4148 -0.1347
  234MOL   C12347189   0.804   1.375   0.626  0.1933 -0.0790  1.1745
  234MOL   C12447190   0.718   1.430   0.535 -0.5530  0.1439 -0.1486
  234MOL   C12547191   0.736   1.419   0.386  0.1385 -0.1313  0.6871
  234MOL   H12647192   0.681   1.424   0.794  0.4395 -1.4275  3.2825
  234MOL   H12747193   0.857   1.439   0.817  0.8321 -0.2867  0.2008
  234MOL   H12847194   0.882   1.316   0.580 -2.5354 -3.5462  0.8328
  234MOL   H12947195   0.630   1.481   0.570 -0.8141 -0.0137 -0.5751
  234MOL   H13047196   0.833   1.380   0.354 -0.0535 -0.8983  1.0157
  234MOL   H13147197   0.740   1.524   0.359  0.0875  0.2245  2.0469
  234MOL   C13247198   0.618   1.354   0.317 -0.3660  0.1499  0.2106
  234MOL   C13347199   0.590   1.215   0.361 -0.0230  0.0855  0.7199
  234MOL   C13447200   0.473   1.154   0.336  0.2161  0.4917 -0.2197
  234MOL   C13547201   0.427   1.025   0.399 -0.2227  0.0317 -0.0222
  234MOL   H13647202   0.535   1.423   0.306 -0.0169  0.3279 -1.6049
  234MOL   H13747203   0.653   1.353   0.213  0.3659  3.9599  0.3665
  234MOL   H13847204   0.667   1.162   0.416 -0.6834 -0.6655  0.9280
  234MOL   H13947205   0.403   1.222   0.290 -0.1464 -0.0022 -0.4022
  234MOL   H14047206   0.387   1.051   0.497  0.3015  0.7769 -0.0060
  234MOL   H14147207   0.520   0.977   0.430  0.2485 -0.3441 -1.9720
  234MOL   C14247208   0.343   0.942   0.299 -0.7200 -0.9265 -0.2465
  234MOL   C14347209   0.265   0.835   0.372  0.2718  0.3960  0.2373
  234MOL   C14447210   0.152   0.777   0.323  0.1416  0.6106  0.5746
  234MOL   C14547211   0.083   0.655   0.378 -0.1810  0.6834  0.6630
  234MOL   H14647212   0.277   1.010   0.245 -0.2236 -0.0197  0.2780
  234MOL   H14747213   0.409   0.902   0.221  0.9151  0.8031  0.2233
  234MOL   H14847214   0.319   0.795   0.456 -1.2002 -1.0074  0.5616
  234MOL   H14947215   0.111   0.814   0.230 -0.8557 -1.4513  0.1579
  234MOL   H15047216   0.112   0.633   0.481  0.2219  0.5184  0.5162
  234MOL   H15147217   0.126   0.574   0.320 -1.5309  1.5436 -1.6082
  234MOL   C15247218   7.911   0.649   0.368 -0.2413 -0.6914  0.7189
  234MOL   C15347219   7.848   0.522   0.430  0.0746  0.0444 -0.8339
  234MOL   C15447220   7.767   0.446   0.355  0.2574  0.0696 -0.3101
  234MOL   C15547221   7.692   0.329   0.390  1.0799 -0.3819 -0.0145
  234MOL   H15647222   7.875   0.737   0.421  1.1923  0.0995  0.4204
  234MOL   H15747223   7.872   0.652   0.267 -1.3369 -2.8573  1.0563
  234MOL   H15847224   7.873   0.506   0.534  0.0818  1.5074 -0.5973
  234MOL   H15947225   7.742   0.487   0.258  1.3904  0.2794 -0.5141
  234MOL   H16047226   7.588   0.335   0.358  0.8630 -1.7600  0.4258
  234MOL   H16147227   7.702   0.307   0.496 -1.0205  0.1554  0.3186
  234MOL   C16247228   7.745   0.197   0.330  0.1893 -0.2572  0.2164
  234MOL   C16347229   7.891   0.169   0.357  0.1440 -0.4287  0.1762
  234MOL   C16447230   7.938   0.070   0.437  0.3482 -0.0519 -0.3228
  234MOL   C16547231   0.112   0.047   0.457  1.0806  0.2753  0.4386
  234MOL   H16647232   7.681   0.114   0.361  1.1252 -1.0031  0.1893
  234MOL   H16747233   7.747   0.193   0.221 -0.4800 -3.0529  0.2726
  234MOL   H16847234   7.954   0.239   0.304 -0.0886 -0.1848  0.2158
  234MOL   H16947235   7.869   7.973   0.475  0.0584 -1.2234 -3.0579
  234MOL   H17047236   0.167   0.131   0.415  0.1992  0.4697 -0.3399
  234MOL   H17147237   0.142   7.940   0.395 -1.9778 -0.7583  0.3080
  234MOL   C17247238   0.160   0.031   0.596 -0.3346 -0.0783  0.0321
  234MOL   C17347239   0.309   7.956   0.595  0.4337 -0.8119  0.2629
  234MOL   C17447240   0.397   0.023   0.684 -0.2848  0.8834  0.1252
  234MOL   C17547241   0.542   7.946   0.689 -0.1382  0.1616 -0.3393
  234MOL   H17647242   0.145   0.116   0.662  2.8862  1.1493 -0.7113
  234MOL   H17747243   0.106   7.928   0.646 -0.3838 -0.8089 -1.1645
  234MOL   H17847244   0.322   7.870   0.532  1.1984  0.1539 -0.9400
  234MOL   H17947245   0.371   0.099   0.756  1.0733  0.4212  1.1374
  234MOL   H18047246   0.610   0.054   0.685  0.8965 -0.6095  0.6406
  234MOL   H18147247   0.564   7.895   0.595 -0.4879  0.6703 -0.7010
  234MOL   C18247248   0.565   7.853   0.807  0.1385  0.1011 -0.4443
  234MOL   C18347249   0.528   7.906   0.939  0.3314  0.7946 -0.1854
  234MOL   C18447250   0.599   7.872   1.043 -0.6178  0.0014 -0.6517
  234MOL   C18547251   0.585   7.904   1.192 -0.4273  0.0870 -0.3083
  234MOL   H18647252   0.509   7.760   0.795 -0.6065  0.1859  2.0609
  234MOL   H18747253   0.667   7.816   0.801  0.2892  0.6580 -1.5132
  234MOL   H18847254   0.439   7.963   0.963  0.5534  0.0455  2.5913
  234MOL   H18947255   0.675   7.796   1.034 -2.0559 -2.0224  3.0731
  234MOL   H19047256   0.534   0.020   1.218  3.3008  2.1869 -0.1230
  234MOL   H19147257   0.683   7.942   1.221 -0.7850  0.1610  0.8399
  234MOL   C19247258   0.539   7.789   1.274  0.1438 -0.4724 -0.1726
  234MOL   C19347259   0.511   7.826   1.411  0.5017  0.5124 -0.4472
  234MOL   C19447260   0.531   7.737   1.505  0.0508  0.3357  0.1864
  234MOL   C19547261   0.525   7.771   1.649  0.7375 -0.1236 -0.0455
  234MOL   H19647262   0.448   7.744   1.234 -0.3083  1.4059 -1.3624
  234MOL   H19747263   0.615   7.713   1.262  1.0376  0.6416 -1.7681
  234MOL   H19847264   0.482   7.929   1.426  1.7544  0.3149  4.0495
  234MOL   H19947265   0.577   7.644   1.474 -0.4995  0.5330 -1.2523
  234MOL   H20047266   0.619   7.753   1.701  0.3423  0.2585  0.8134
  234MOL   H20147267   0.437   7.723   1.692  0.1453  0.0861 -1.0111
  234MOL   H20247268   0.501   7.877   1.659 -1.7123 -0.8489  2.7966
  235MOL     C147269   6.312   0.832   2.712  0.4734  0.5937  0.8345
  235MOL     C247270   6.369   0.859   2.847 -0.6490  0.2110 -0.0262
  235MOL     C347271   6.491   0.811   2.886  0.5950 -0.8874  0.4401
  235MOL     C447272   6.554   0.848   3.017  0.2439 -0.0204  0.0712
  235MOL     H547273   6.359   0.906   2.646  1.0148 -1.3268 -0.9954
  235MOL     H647274   6.204   0.828   2.726  0.5968 -3.8957  1.2286
  235MOL     H747275   6.320   0.940   2.899  2.4443  0.9374  1.9068
  235MOL     H847276   6.539   0.731   2.832  0.2718 -0.3848 -0.5978
  235MOL     H947277   6.502   0.937   3.050  1.5760  1.1390 -0.9231
  235MOL    H1047278   6.659   0.867   2.995  0.3089 -2.0665 -1.5892
  235MOL    H1147279   6.347   0.735   2.679  1.5274  0.9950  0.7425
  235MOL    C1247280   6.547   0.739   3.127 -0.3951  0.2758 -0.0752
  235MOL    C1347281   6.604   0.605   3.074 -0.0940  0.9357  0.3165
  235MOL    C1447282   6.713   0.540   3.127  0.4228  0.2743  0.5637
  235MOL    C1547283   6.773   0.411   3.067  1.1502 -0.6494 -0.3888
  235MOL    H1647284   6.609   0.763   3.213  1.9434 -0.3605 -1.5561
  235MOL    H1747285   6.443   0.732   3.159 -0.1210  0.8147  0.9478
  235MOL    H1847286   6.563   0.557   2.986 -0.5838 -1.0265  1.5964
  235MOL    H1947287   6.768   0.597   3.200 -0.4121  0.7100  0.8479
  235MOL    H2047288   6.742   0.415   2.963 -2.0017  2.1193  0.5681
  235MOL    H2147289   6.710   0.328   3.098 -0.5825  0.2707 -1.3617
  235MOL    C2247290   6.930   0.418   3.076 -0.5226 -0.1917 -0.4290
  235MOL    C2347291   6.991   0.282   3.038 -0.0311 -0.5448  0.5049
  235MOL    C2447292   7.112   0.272   2.982 -0.4867 -0.9140  0.0130
  235MOL    C2547293   7.166   0.134   2.959 -0.1599 -0.3463 -0.2865
  235MOL    H2647294   6.971   0.489   3.004 -0.5970  1.0741  0.7618
  235MOL    H2747295   6.968   0.460   3.169  1.1215  1.1200 -1.6627
  235MOL    H2847296   6.934   0.198   3.075 -1.4643  0.2447  0.1124
  235MOL    H2947297   7.172   0.357   2.954 -0.9393 -0.7558 -0.4947
  235MOL    H3047298   7.168   0.112   2.852 -2.6518 -0.4686 -0.3360
  235MOL    H3147299   7.100   0.055   2.994 -1.1105  1.3371  1.8620
  235MOL    C3247300   7.297   0.106   3.025 -0.3617 -0.1464 -0.2530
  235MOL    C3347301   7.276   0.082   3.176  0.5426 -0.9114  1.1117
  235MOL    C3447302   7.336   0.154   3.275 -0.3705 -0.2085  0.1608
  235MOL    C3547303   7.304   0.125   3.418  0.1135  0.2581 -0.3021
  235MOL    H3647304   7.350   0.026   2.973  0.9024  1.3755 -1.3532
  235MOL    H3747305   7.366   0.191   3.030 -0.9031  0.1854  2.6949
  235MOL    H3847306   7.195   0.013   3.194 -0.5359  0.2310  0.7536
  235MOL    H3947307   7.411   0.227   3.249  0.4859 -1.8885 -2.2617
  235MOL    H4047308   7.395   0.106   3.475 -1.7368  0.0006  2.6728
  235MOL    H4147309   7.247   0.033   3.425  0.7331 -0.1110 -0.0167
  235MOL    C4247310   7.223   0.246   3.475  1.1510  0.0869  0.6327
  235MOL    C4347311   7.321   0.353   3.515 -0.6518 -0.2751  0.3833
  235MOL    C4447312   7.326   0.401   3.638 -0.2795  0.2346 -0.2953
  235MOL    C4547313   7.421   0.505   3.686 -0.7175 -0.2344  0.0146
  235MOL    H4647314   7.152   0.276   3.397  1.6555  0.2514  0.2293
  235MOL    H4747315   7.159   0.233   3.562  1.6043 -2.1008  0.6526
  235MOL    H4847316   7.385   0.401   3.442 -0.4422 -0.7343  0.2612
  235MOL    H4947317   7.254   0.348   3.699  0.6965  1.7045  2.2085
  235MOL    H5047318   7.363   0.597   3.687 -1.5535 -0.6370 -3.3798
  235MOL    H5147319   7.500   0.527   3.614 -1.1514  1.8105  0.1141
  235MOL    C5247320   7.472   0.490   3.830  0.9769  0.4121 -0.1678
  235MOL    C5347321   7.544   0.608   3.877  0.4429 -0.0394 -0.1393
  235MOL    C5447322   7.674   0.632   3.862 -0.3933 -0.1557 -0.4722
  235MOL    C5547323   7.748   0.750   3.916 -0.5707 -1.0095  0.3331
  235MOL    H5647324   7.391   0.476   3.902  0.5609  1.2168 -0.4732
  235MOL    H5747325   7.532   0.400   3.845 -0.1076 -0.8845 -3.2433
  235MOL    H5847326   7.480   0.679   3.926  0.3624 -0.8281  0.9306
  235MOL    H5947327   7.746   0.570   3.810  1.5904  0.9577  0.9272
  235MOL    H6047328   7.691   0.812   3.986  0.3523  0.8222 -0.5048
  235MOL    H6147329   7.781   0.812   3.833 -1.2848 -2.2374 -0.8980
  235MOL    C6247330   7.874   0.711   3.986 -0.1815  0.4779 -0.4250
  235MOL    C6347331   7.947   0.828   4.063 -0.4083 -0.5278  0.1511
  235MOL    C6447332   0.100   0.868   4.046  0.2797  0.5175 -0.6700
  235MOL    C6547333   0.176   0.981   4.121  0.0494 -0.5346  0.5307
  235MOL    H6647334   7.835   0.640   4.059 -0.2910  1.8259  0.8314
  235MOL    H6747335   7.929   0.657   3.908 -0.9206 -1.4750  0.3570
  235MOL    H6847336   7.896   0.889   4.136  0.7584 -0.0100  0.5517
  235MOL    H6947337   0.167   0.822   3.975 -0.6421 -0.9222 -0.6102
  235MOL    H7047338   0.126   1.027   4.207  2.2144 -0.2310  1.6621
  235MOL    H7147339   0.185   1.065   4.053 -0.6979 -0.7097  0.2058
  235MOL    C7247340   0.319   0.947   4.162 -0.4917 -1.0868  0.2743
  235MOL    C7347341   0.377   1.058   4.243  0.2910  0.6652 -0.2801
  235MOL    C7447342   0.494   1.115   4.220  0.1893  0.3898 -0.0192
  235MOL    C7547343   0.550   1.224   4.309  0.0923  0.0665  0.1728
  235MOL    H7647344   0.325   0.862   4.231  0.2426  0.2101  1.8519
  235MOL    H7747345   0.380   0.931   4.073  1.9424  3.2380  1.0104
  235MOL    H7847346   0.309   1.084   4.323 -3.0482  1.4488 -3.2501
  235MOL    H7947347   0.557   1.063   4.149 -2.0202 -0.0544 -1.7051
  235MOL    H8047348   0.611   1.171   4.382 -0.6022 -0.4872  0.3557
  235MOL    H8147349   0.472   1.278   4.365  1.1602  1.6685  0.1503
  235MOL    C8247350   0.625   1.341   4.236 -0.3168  0.9203 -0.7187
  235MOL    C8347351   0.649   1.452   4.324 -0.1064 -0.6865  0.2141
  235MOL    C8447352   0.641   1.468   4.458 -0.7512 -0.1503 -0.1934
  235MOL    C8547353   0.683   1.589   4.543  1.2726 -0.2316  0.1353
  235MOL    H8647354   0.719   1.313   4.188 -0.4218 -0.7976  0.0178
  235MOL    H8747355   0.559   1.368   4.154 -0.6500  0.8980 -0.4578
  235MOL    H8847356   0.690   1.539   4.273  0.9190 -0.9472  0.5733
  235MOL    H8947357   0.607   1.379   4.510 -1.0439 -1.4862 -2.6190
  235MOL    H9047358   0.755   1.658   4.499  1.6937 -0.9803 -0.3703
  235MOL    H9147359   0.729   1.549   4.633 -0.4848 -3.5480 -0.3407
  235MOL    C9247360   0.554   1.660   4.600 -0.2032 -0.7024 -0.9980
  235MOL    C9347361   0.473   1.751   4.509  0.0268  0.1577 -0.5914
  235MOL    C9447362   0.351   1.721   4.457  0.0773 -0.0372 -0.3434
  235MOL    C9547363   0.264   1.794   4.362  0.5362 -0.0408 -0.4488
  235MOL    H9647364   0.480   1.607   4.659  0.4947 -0.3617  0.1890
  235MOL    H9747365   0.593   1.731   4.673 -0.6817 -0.1574 -1.2733
  235MOL    H9847366   0.524   1.843   4.485 -1.9703  0.6843 -2.9751
  235MOL    H9947367   0.311   1.621   4.470 -1.1578  0.7190  2.0831
  235MOL   H10047368   0.289   1.899   4.381  0.2437  0.1713 -1.2004
  235MOL   H10147369   0.164   1.791   4.403  1.2144  0.2414  1.2633
  235MOL   C10247370   0.271   1.757   4.209  0.1238  0.3753  0.4698
  235MOL   C10347371   0.154   1.818   4.132 -0.4056 -0.4169 -0.2915
  235MOL   C10447372   0.083   1.761   4.034  0.3005  0.5364  0.2813
  235MOL   C10547373   7.963   1.841   3.948 -0.5602  0.7037  0.3726
  235MOL   H10647374   0.362   1.788   4.159 -1.4353  0.1770 -2.6205
  235MOL   H10747375   0.290   1.651   4.198 -2.5257 -0.0228 -0.6936
  235MOL   H10847376   0.145   1.923   4.158  2.1662  0.1594 -1.5108
  235MOL   H10947377   0.111   1.663   4.000  0.0514  0.3322  0.6621
  235MOL   H11047378   0.023   1.831   3.846 -1.7777  0.9213 -0.1000
  235MOL   H11147379   0.007   1.944   3.976  1.4410  0.6006 -0.6373
  235MOL   C11247380   7.810   1.804   3.952 -0.0512 -0.0560 -0.0088
  235MOL   C11347381   7.754   1.769   4.086 -0.1206 -0.4486 -0.0946
  235MOL   C11447382   7.727   1.647   4.120  0.0715  0.2317 -0.1933
  235MOL   C11547383   7.688   1.586   4.255 -0.5862  0.6848  0.3405
  235MOL   H11647384   7.754   1.886   3.907  2.2505  1.9328  0.6579
  235MOL   H11747385   7.778   1.727   3.882 -0.0955 -0.8915  0.9149
  235MOL   H11847386   7.768   1.853   4.152 -1.4078  1.1216 -1.7737
  235MOL   H11947387   7.725   1.581   4.035  1.7032  1.3723 -1.1549
  235MOL   H12047388   7.740   1.493   4.279 -0.9986  0.0159 -1.3051
  235MOL   H12147389   7.582   1.567   4.239 -0.1529 -1.3107 -0.2581
  235MOL   C12247390   7.701   1.682   4.376 -0.2217  0.2335 -0.4383
  235MOL   C12347391   7.651   1.618   4.506 -0.6702 -0.3808 -0.6085
  235MOL   C12447392   7.732   1.601   4.611 -0.7442 -0.3566 -0.4896
  235MOL   C12547393   7.681   1.550   4.737  0.2234  0.6701 -0.4296
  235MOL   H12647394   7.794   1.735   4.399 -0.3105  0.0198  0.4557
  235MOL   H12747395   7.634   1.763   4.347  0.1481  0.8081  0.2857
  235MOL   H12847396   7.547   1.593   4.514 -0.6807 -0.2657 -0.3750
  235MOL   H12947397   7.837   1.626   4.605 -1.5480  3.1159 -1.1219
  235MOL   H13047398   7.573   1.536   4.737  0.2820  0.1501  1.3979
  235MOL   H13147399   7.717   1.617   4.815  0.9884  2.0657 -1.9263
  235MOL   C13247400   7.745   1.415   4.767  0.7799 -0.0233  0.0502
  235MOL   C13347401   7.741   1.389   4.911 -0.4652 -0.5346 -0.2914
  235MOL   C13447402   7.635   1.385   4.991 -0.2579  0.9618  0.0326
  235MOL   C13547403   7.632   1.341   5.133  0.3437  0.7957 -0.1173
  235MOL   H13647404   7.680   1.347   4.711 -3.3094  1.2374  3.0317
  235MOL   H13747405   7.848   1.413   4.732  0.6982  0.4406 -0.2227
  235MOL   H13847406   7.829   1.341   4.951 -0.8869 -0.6298  0.5189
  235MOL   H13947407   7.541   1.422   4.952  0.4698  1.8182 -0.9228
  235MOL   H14047408   7.580   1.409   5.201 -1.7968 -0.7165 -0.1810
  235MOL   H14147409   7.735   1.337   5.169 -0.0884 -0.3665  1.0512
  235MOL   C14247410   7.579   1.205   5.151 -0.2180  0.2875  0.1375
  235MOL   C14347411   7.599   1.157   5.296  0.1673  0.0325  0.0345
  235MOL   C14447412   7.670   1.047   5.333 -0.5976  0.2705  0.4449
  235MOL   C14547413   7.670   0.999   5.473  0.3693  0.5561 -0.2717
  235MOL   H14647414   7.475   1.207   5.119  0.4732  0.7712 -2.1533
  235MOL   H14747415   7.617   1.142   5.071 -0.7006  0.0592  0.0893
  235MOL   H14847416   7.551   1.213   5.374  1.2129  0.0070  0.7087
  235MOL   H14947417   7.732   0.985   5.271  0.9231 -0.0226  2.2229
  235MOL   H15047418   7.614   0.905   5.479 -0.9519  1.4248  1.8219
  235MOL   H15147419   7.603   1.063   5.530 -1.4046 -0.8781 -0.6920
  235MOL   C15247420   7.809   0.989   5.534 -0.5870  0.9779  0.2574
  235MOL   C15347421   7.806   0.954   5.681  0.5056  0.0112 -0.1224
  235MOL   C15447422   7.840   1.048   5.772 -0.1946  0.2612 -0.1650
  235MOL   C15547423   7.841   1.025   5.921  0.1837  0.0483 -0.5016
  235MOL   H15647424   7.874   0.913   5.489 -2.2471 -0.5449  0.3559
  235MOL   H15747425   7.864   1.078   5.505 -1.7102  1.9355  1.0519
  235MOL   H15847426   7.769   0.858   5.715 -1.7005  0.1374 -2.0666
  235MOL   H15947427   7.864   1.147   5.737  2.0244 -0.8441 -1.9047
  235MOL   H16047428   7.806   0.926   5.950 -2.2999  0.8429 -0.6912
  235MOL   H16147429   7.774   1.096   5.969 -1.5188 -0.4095 -2.1603
  235MOL   C16247430   0.008   1.043   5.978  0.3580 -0.4566 -0.1716
  235MOL   C16347431   0.116   0.946   5.949  0.0455 -0.8742 -0.1629
  235MOL   C16447432   0.100   0.820   5.897  0.0590 -0.3335  0.5264
  235MOL   C16547433   0.216   0.722   5.876  0.0465 -0.1963 -0.4591
  235MOL   H16647434   0.043   1.143   5.952 -2.0911  0.7999  1.1375
  235MOL   H16747435   7.975   1.052   6.086  0.6990  2.2832 -0.3341
  235MOL   H16847436   0.218   0.974   5.969 -0.3781  0.3382  0.3257
  235MOL   H16947437   0.003   0.776   5.878  0.1959 -0.5396  0.3168
  235MOL   H17047438   0.193   0.625   5.920  1.8924 -0.6409 -0.4254
  235MOL   H17147439   0.301   0.758   5.935  0.9794 -0.9819 -1.3103
  235MOL   C17247440   0.251   0.710   5.726  0.2311 -0.5294 -0.1341
  235MOL   C17347441   0.379   0.634   5.707 -0.1295 -0.0975 -0.1967
  235MOL   C17447442   0.473   0.592   5.794 -0.2423  0.6359  0.2005
  235MOL   C17547443   0.590   0.504   5.743 -0.0239  0.5630  0.2917
  235MOL   H17647444   0.163   0.673   5.674 -2.1213  1.3843  2.3005
  235MOL   H17747445   0.271   0.812   5.694  0.2672 -0.2615  0.7306
  235MOL   H17847446   0.388   0.604   5.603 -0.5443  0.8451 -0.5103
  235MOL   H17947447   0.468   0.606   5.901  0.5007 -1.7144  0.5644
  235MOL   H18047448   0.593   0.513   5.635  0.2814 -0.4514  0.2147
  235MOL   H18147449   0.552   0.403   5.755 -0.0124  0.7006  1.5522
  235MOL   C18247450   0.723   0.520   5.809 -0.2688  0.6230  0.5975
  235MOL   C18347451   0.794   0.386   5.798  0.7561 -0.6179  0.2712
  235MOL   C18447452   0.878   0.365   5.697 -0.3266 -0.5497  0.0075
  235MOL   C18547453   0.955   0.239   5.669 -0.0497 -1.0280  0.3300
  235MOL   H18647454   0.768   0.606   5.758  0.2578 -1.0639 -1.8882
  235MOL   H18747455   0.720   0.536   5.916  4.7872 -0.4227  0.9979
  235MOL   H18847456   0.778   0.308   5.871 -0.7002 -0.1812  0.4356
  235MOL   H18947457   0.896   0.438   5.619  0.9130 -1.5635 -0.6840
  235MOL   H19047458   1.061   0.266   5.677 -0.3075  0.3046 -0.5417
  235MOL   H19147459   0.933   0.195   5.571  0.3845 -0.5264  0.0014
  235MOL   C19247460   0.924   0.127   5.763  0.5188 -0.5520  0.0371
  235MOL   C19347461   1.016   0.005   5.737  0.3239 -0.5715 -0.5911
  235MOL   C19447462   1.131   7.973   5.803  0.1041  0.4953 -0.0331
  235MOL   C19547463   1.220   7.856   5.769 -0.2580  0.2336 -0.1626
  235MOL   H19647464   0.924   0.153   5.869 -0.5058  2.5483 -0.6678
  235MOL   H19747465   0.822   0.095   5.741 -0.0745  2.4139 -1.7522
  235MOL   H19847466   0.983   7.912   5.661 -0.5564  0.9168 -1.6001
  235MOL   H19947467   1.165   0.069   5.876  0.3202 -0.5267  0.8911
  235MOL   H20047468   1.238   7.800   5.861 -0.2653 -1.5745 -1.2262
  235MOL   H20147469   1.317   7.893   5.736 -1.1402  1.4583 -1.4520
  235MOL   H20247470   1.174   7.781   5.704 -0.2648  0.0807  0.0195
  236MOL     C147471   7.395   6.468   1.928  0.5857 -0.1405  0.3383
  236MOL     C247472   7.276   6.557   1.960 -0.0584  0.4737 -0.0243
  236MOL     C347473   7.279   6.677   2.017 -0.2464  0.6534 -0.2102
  236MOL     C447474   7.172   6.754   2.071 -0.3751 -0.4771  0.8620
  236MOL     H547475   7.488   6.522   1.909  0.3669 -0.5679 -2.0925
  236MOL     H647476   7.384   6.418   1.832 -1.7727 -1.6306  1.3550
  236MOL     H747477   7.178   6.513   1.952  0.1855 -0.1320  0.2816
  236MOL     H847478   7.377   6.723   2.018 -1.2068  2.7434  1.6980
  236MOL     H947479   7.089   6.683   2.073 -0.7640 -0.0396  0.0561
  236MOL    H1047480   7.144   6.829   1.997  1.0704  1.2659  2.0367
  236MOL    H1147481   7.418   6.396   2.006  2.7380 -0.5307 -0.6211
  236MOL    C1247482   7.216   6.819   2.204 -0.0501 -0.1139 -0.5075
  236MOL    C1347483   7.098   6.903   2.267 -0.3872  0.3854  0.3645
  236MOL    C1447484   7.021   6.860   2.366  0.0942 -0.2921  0.4523
  236MOL    C1547485   6.910   6.957   2.419 -0.9658 -0.0970  0.0352
  236MOL    H1647486   7.242   6.742   2.277  0.0310  1.5133  1.2179
  236MOL    H1747487   7.301   6.887   2.190 -0.2692  0.2183 -0.2386
  236MOL    H1847488   7.068   6.987   2.207 -0.7591 -0.3876 -0.5412
  236MOL    H1947489   7.046   6.777   2.431 -0.4286 -0.5770  0.2945
  236MOL    H2047490   6.811   6.912   2.418 -0.3495 -1.6163  2.6570
  236MOL    H2147491   6.902   7.042   2.351  2.4228  0.1013 -0.2266
  236MOL    C2247492   6.939   7.006   2.567 -0.2713  0.0224  0.2851
  236MOL    C2347493   6.859   7.128   2.602  0.3654  0.9331 -0.0355
  236MOL    C2447494   6.782   7.141   2.706  1.8560  0.5249 -0.8921
  236MOL    C2547495   6.697   7.270   2.732  0.5952  0.0675  0.2023
  236MOL    H2647496   6.918   6.924   2.637 -0.0120 -0.6536 -0.4232
  236MOL    H2747497   7.040   7.039   2.589 -0.2805 -0.6317  1.3671
  236MOL    H2847498   6.865   7.207   2.529  2.9776 -0.8641 -1.8487
  236MOL    H2947499   6.773   7.062   2.779 -1.2750  0.6580 -1.0402
  236MOL    H3047500   6.721   7.338   2.650  1.4236 -1.1479 -0.5750
  236MOL    H3147501   6.721   7.320   2.826 -0.2881  2.4893 -0.8174
  236MOL    C3247502   6.549   7.242   2.727  0.4520  0.0291  0.2573
  236MOL    C3347503   6.477   7.377   2.749 -0.5651 -0.3396 -0.1382
  236MOL    C3447504   6.479   7.474   2.657 -0.1845 -0.5608 -0.0965
  236MOL    C3547505   6.416   7.609   2.665  0.4979 -0.2306 -0.6330
  236MOL    H3647506   6.526   7.214   2.624 -0.4271 -2.1065  1.0068
  236MOL    H3747507   6.515   7.163   2.793 -1.4874 -0.3128 -1.1283
  236MOL    H3847508   6.433   7.387   2.847  0.6896 -1.7432  0.5866
  236MOL    H3947509   6.529   7.464   2.562  0.7834  0.6690  0.2838
  236MOL    H4047510   6.492   7.686   2.649 -1.2956  1.6519 -0.2988
  236MOL    H4147511   6.384   7.616   2.769 -0.2086  1.2966 -0.9454
  236MOL    C4247512   6.292   7.625   2.568 -0.4735  0.1239 -0.1210
  236MOL    C4347513   6.265   7.773   2.552  0.4594 -0.2316 -0.0031
  236MOL    C4447514   6.227   7.831   2.435 -0.5860  0.1074 -0.1576
  236MOL    C4547515   6.191   0.006   2.427 -0.2454 -0.0210  0.5173
  236MOL    H4647516   6.309   7.579   2.471  0.4898 -0.4251  0.3002
  236MOL    H4747517   6.205   7.576   2.612 -0.6120  0.3878 -0.0994
  236MOL    H4847518   6.248   7.837   2.637 -0.5673  0.5246 -0.7841
  236MOL    H4947519   6.228   7.775   2.343 -1.2171  0.6368 -0.4905
  236MOL    H5047520   6.255   0.080   2.380 -0.8198 -0.9601 -1.8232
  236MOL    H5147521   6.168   0.033   2.530 -1.7709  0.5861  0.0395
  236MOL    C5247522   6.046   0.027   2.368  0.1080  0.6322 -0.8343
  236MOL    C5347523   5.990   0.167   2.386  0.4106 -0.1371  0.0379
  236MOL    C5447524   5.950   0.207   2.508  0.3211  0.1348  0.6241
  236MOL    C5547525   5.907   0.345   2.549  0.0044 -0.3972 -0.9687
  236MOL    H5647526   6.060   0.031   2.260 -2.9430  0.0809 -1.2853
  236MOL    H5747527   5.982   7.924   2.405 -0.0538  1.4183  0.6408
  236MOL    H5847528   5.984   0.227   2.296  0.1382 -0.6395 -0.2816
  236MOL    H5947529   5.965   0.138   2.590  2.2975  0.0644  0.2316
  236MOL    H6047530   5.852   0.373   2.459 -0.7804  1.2573  0.0020
  236MOL    H6147531   5.986   0.409   2.588 -1.3722 -0.2453  1.6928
  236MOL    C6247532   5.791   0.324   2.648 -0.0301 -0.5114  0.3617
  236MOL    C6347533   5.728   0.457   2.684  0.2836 -0.2886 -0.2402
  236MOL    C6447534   5.600   0.471   2.714 -0.0704 -0.3302  0.0031
  236MOL    C6547535   5.536   0.603   2.747  0.3502  0.5525  0.3740
  236MOL    H6647536   5.717   0.265   2.594  1.5389 -1.8297 -0.3994
  236MOL    H6747537   5.831   0.262   2.728  0.3966 -2.8400 -1.6125
  236MOL    H6847538   5.802   0.535   2.687  0.2028 -0.2351  0.3418
  236MOL    H6947539   5.534   0.386   2.713 -0.6396  0.0787  1.0839
  236MOL    H7047540   5.618   0.675   2.757  0.6387  0.1590  0.9102
  236MOL    H7147541   5.492   0.596   2.847  1.7492 -2.2184  0.8396
  236MOL    C7247542   5.448   0.646   2.624 -0.0305 -0.7651 -0.5716
  236MOL    C7347543   5.524   0.722   2.514  0.4434 -0.2849 -0.1487
  236MOL    C7447544   5.502   0.697   2.382 -0.5431 -0.8203  0.7529
  236MOL    C7547545   5.562   0.775   2.266  1.0194 -0.3159 -0.6059
  236MOL    H7647546   5.396   0.561   2.581 -2.3791 -1.3164  3.1495
  236MOL    H7747547   5.379   0.717   2.669  0.8248 -0.0348 -0.4025
  236MOL    H7847548   5.589   0.799   2.554 -1.0887  0.5884  0.7300
  236MOL    H7947549   5.439   0.618   2.343 -0.5762  0.0299 -0.9408
  236MOL    H8047550   5.619   0.858   2.308  0.0325 -0.5421  1.2713
  236MOL    H8147551   5.479   0.815   2.207  1.0473 -0.4185 -0.7113
  236MOL    C8247552   5.641   0.687   2.178  0.1397 -0.2929 -0.0198
  236MOL    C8347553   5.728   0.769   2.077  0.2940  0.1952  1.0918
  236MOL    C8447554   5.862   0.770   2.069 -0.0709 -0.2994  0.0294
  236MOL    C8547555   5.948   0.836   1.968 -0.2231 -0.2680 -0.0924
  236MOL    H8647556   5.691   0.606   2.231  1.6157  0.1847 -0.6553
  236MOL    H8747557   5.574   0.638   2.107 -0.6896 -0.9221  1.1781
  236MOL    H8847558   5.668   0.819   2.002  1.8907  0.6234  0.0612
  236MOL    H8947559   5.922   0.727   2.148 -0.7678  0.5012  1.0141
  236MOL    H9047560   6.042   0.781   1.961  0.1258  0.3429 -0.2755
  236MOL    H9147561   5.987   0.932   2.003 -2.5283  0.6948 -0.1057
  236MOL    C9247562   5.882   0.853   1.832  1.2328  0.8975  0.5814
  236MOL    C9347563   5.979   0.904   1.724  0.1067 -0.3377 -0.0188
  236MOL    C9447564   5.991   0.856   1.601 -0.2145  0.0862 -0.2214
  236MOL    C9547565   6.107   0.910   1.509 -0.4708  0.0826  0.0877
  236MOL    H9647566   5.830   0.768   1.788  2.3196  0.7231 -0.4174
  236MOL    H9747567   5.807   0.930   1.853 -0.8156 -0.5362 -1.2969
  236MOL    H9847568   6.039   0.990   1.748  1.0779 -0.8712 -0.5036
  236MOL    H9947569   5.941   0.767   1.564 -0.7178  0.3325 -0.1263
  236MOL   H10047570   6.203   0.877   1.549 -1.0285 -1.8876 -0.1404
  236MOL   H10147571   6.082   1.015   1.505  1.6104  0.5405 -3.3956
  236MOL   C10247572   6.078   0.851   1.369 -0.7665  0.1779  1.2774
  236MOL   C10347573   6.145   0.940   1.258 -0.3844 -0.3863 -0.0419
  236MOL   C10447574   6.085   0.979   1.146  0.0183  0.8223 -0.1803
  236MOL   C10547575   6.143   1.073   1.047  0.1562  0.3035  0.6246
  236MOL   H10647576   6.123   0.754   1.348 -0.6073  0.3486  0.8222
  236MOL   H10747577   5.971   0.845   1.347 -0.7226  0.5806  0.9488
  236MOL   H10847578   6.241   0.984   1.277 -1.6189  1.9495  1.0069
  236MOL   H10947579   5.982   0.948   1.136  0.0334  0.4557  0.7642
  236MOL   H11047580   6.229   1.122   1.091 -2.2165  2.1615  3.3957
  236MOL   H11147581   6.073   1.156   1.033 -2.1846 -2.0743 -2.7176
  236MOL   C11247582   6.159   1.000   0.904  0.9159 -0.5538  0.0077
  236MOL   C11347583   6.029   0.998   0.833  0.2288  0.0412 -0.2541
  236MOL   C11447584   6.009   1.045   0.707  0.0752  0.6119  0.4357
  236MOL   C11547585   5.881   1.042   0.632 -0.0860  0.2353 -0.2036
  236MOL   H11647586   6.240   1.054   0.856  1.6257  0.2716  2.0820
  236MOL   H11747587   6.204   0.901   0.910 -0.4161 -1.3672 -2.6713
  236MOL   H11847588   5.951   0.948   0.888  2.1101 -1.8494  0.7995
  236MOL   H11947589   6.093   1.086   0.654  0.0278  1.0634  0.7089
  236MOL   H12047590   5.802   1.005   0.697  0.8287  1.2384  1.5210
  236MOL   H12147591   5.887   0.958   0.563 -0.0569  1.5336 -1.8373
  236MOL   C12247592   5.852   1.168   0.556  0.3386 -0.0182 -0.2416
  236MOL   C12347593   5.705   1.166   0.514  0.0920  0.1279  0.8344
  236MOL   C12447594   5.604   1.213   0.587  0.0638 -0.2477 -0.0790
  236MOL   C12547595   5.452   1.209   0.555  0.4490 -0.5715  0.4505
  236MOL   H12647596   5.867   1.253   0.623 -1.1678 -0.4697  0.7058
  236MOL   H12747597   5.927   1.177   0.478  1.8121 -2.7343  0.7869
  236MOL   H12847598   5.692   1.097   0.431 -1.6624 -1.2258  2.1861
  236MOL   H12947599   5.626   1.271   0.676 -0.6053  0.4882 -0.3864
  236MOL   H13047600   5.410   1.157   0.641 -0.4894  0.6681  0.7522
  236MOL   H13147601   5.431   1.144   0.470  2.7553 -1.3374  0.4335
  236MOL   C13247602   5.383   1.347   0.541  0.2704 -0.5568 -0.5707
  236MOL   C13347603   5.236   1.336   0.504 -0.2463 -0.2629 -0.1764
  236MOL   C13447604   5.172   1.412   0.409 -0.0417 -0.2520 -0.4176
  236MOL   C13547605   5.025   1.400   0.366 -0.4223  0.1488  0.7720
  236MOL   H13647606   5.396   1.390   0.640 -0.2800 -2.1742  0.2116
  236MOL   H13747607   5.434   1.408   0.466 -2.2232 -0.2747 -2.0721
  236MOL   H13847608   5.183   1.257   0.555 -0.4856 -0.1776 -0.2910
  236MOL   H13947609   5.234   1.488   0.364 -0.1037  0.3903  0.5464
  236MOL   H14047610   4.969   1.339   0.437  2.7705 -1.1897  2.2349
  236MOL   H14147611   5.008   1.362   0.265  0.5180 -1.3203  1.1386
  236MOL   C14247612   4.964   1.543   0.359  1.0412 -0.6994  0.1089
  236MOL   C14347613   4.818   1.540   0.327 -0.0093 -0.3832  0.5591
  236MOL   C14447614   4.755   1.587   0.214 -0.2930  0.5685 -0.2819
  236MOL   C14547615   4.602   1.567   0.194 -0.4658  0.0655 -0.4793
  236MOL   H14647616   4.974   1.597   0.453  0.7217  1.3830 -1.0252
  236MOL   H14747617   5.008   1.595   0.274 -4.8411  0.3901 -2.5381
  236MOL   H14847618   4.761   1.489   0.404  0.7855  0.0611  1.4619
  236MOL   H14947619   4.810   1.629   0.131  0.3366 -1.1476 -0.7593
  236MOL   H15047620   4.555   1.665   0.199  1.5161  1.2077 -3.1315
  236MOL   H15147621   4.569   1.509   0.280 -2.4797  3.4506  1.1345
  236MOL   C15247622   4.573   1.511   0.056  0.1917  1.0494 -0.2266
  236MOL   C15347623   4.418   1.497   0.023  0.2475 -0.3194  0.1598
  236MOL   C15447624   4.352   1.382   0.012  0.1984 -0.5015 -0.4130
  236MOL   C15547625   4.206   1.365   7.940  0.4739  0.8147  0.2242
  236MOL   H15647626   4.618   1.570   7.953  0.6379  2.4823  1.0590
  236MOL   H15747627   4.614   1.413   0.034 -0.2045  1.2907 -2.1243
  236MOL   H15847628   4.361   1.587   0.001 -0.5609 -0.1836  2.6480
  236MOL   H15947629   4.407   1.290   0.027 -0.5364 -1.0962 -1.3204
  236MOL   H16047630   4.214   1.318   7.843  0.4923  0.6151  0.3224
  236MOL   H16147631   4.163   1.465   7.933 -1.6892 -0.1334 -0.3990
  236MOL   C16247632   4.131   1.282   0.065  0.1520 -0.0671  0.2294
  236MOL   C16347633   3.982   1.273   0.033  0.0600  0.0054  0.6888
  236MOL   C16447634   3.893   1.261   0.138 -0.4470 -0.4921 -0.4958
  236MOL   C16547635   3.746   1.247   0.130  0.8034  0.5678 -0.6503
  236MOL   H16647636   4.168   1.179   0.061 -0.0089 -0.0785 -1.5502
  236MOL   H16747637   4.143   1.308   0.170  1.5472 -0.5664  0.2065
  236MOL   H16847638   3.948   1.292   7.909  0.9218  1.8335  0.7334
  236MOL   H16947639   3.933   1.244   0.237  0.0117 -2.0472 -0.9287
  236MOL   H17047640   3.724   1.141   0.117  1.0742  0.3139  0.8388
  236MOL   H17147641   3.713   1.286   0.034  0.2672 -0.5087 -0.9135
  236MOL   C17247642   3.678   1.285   0.264  0.4805 -0.1741  0.2751
  236MOL   C17347643   3.546   1.219   0.271 -0.2550  0.0136 -0.1058
  236MOL   C17447644   3.491   1.161   0.375 -0.1049 -0.1023  0.1409
  236MOL   C17547645   3.359   1.087   0.376  0.6251  0.2169 -0.1506
  236MOL   H17647646   3.744   1.253   0.345  0.8657 -0.9584 -0.3380
  236MOL   H17747647   3.664   1.393   0.259  1.2542  0.0256  1.9902
  236MOL   H17847648   3.498   1.221   0.174  1.5076 -0.2143 -1.0108
  236MOL   H17947649   3.545   1.170   0.469  0.9494 -1.3606 -0.3309
  236MOL   H18047650   3.293   1.168   0.408 -0.7943 -1.6033  1.6783
  236MOL   H18147651   3.353   1.015   0.458 -1.4918  1.0762  0.4955
  236MOL   C18247652   3.322   1.021   0.245  0.4884  0.4825  0.2041
  236MOL   C18347653   3.179   0.962   0.246 -0.7990 -0.2452  0.0814
  236MOL   C18447654   3.155   0.833   0.265  0.1065 -0.0262  0.4473
  236MOL   C18547655   3.012   0.779   0.283  0.4804  0.4530  0.0079
  236MOL   H18647656   3.332   1.095   0.166 -2.5822 -1.3915 -2.0537
  236MOL   H18747657   3.393   0.940   0.227  0.3228 -0.0102  1.6837
  236MOL   H18847658   3.097   1.032   0.241 -1.2915 -0.9326 -1.9697
  236MOL   H18947659   3.238   0.763   0.269 -0.7185 -0.9902  0.8189
  236MOL   H19047660   2.996   0.695   0.215  2.3854 -0.1977  0.3272
  236MOL   H19147661   2.944   0.853   0.240  0.1076  0.3570  0.4280
  236MOL   C19247662   2.984   0.732   0.422  0.2435 -0.0654  0.7467
  236MOL   C19347663   3.017   0.821   0.537 -0.6685 -0.2243 -0.1832
  236MOL   C19447664   2.928   0.897   0.591 -0.9329 -0.2146  0.0055
  236MOL   C19547665   2.934   0.997   0.700 -0.0755  0.1475  0.2618
  236MOL   H19647666   2.877   0.712   0.422  0.9612 -4.5344  0.5451
  236MOL   H19747667   3.038   0.638   0.436  5.1743  1.9057 -3.5210
  236MOL   H19847668   3.122   0.828   0.561 -1.0728  0.0126  1.5706
  236MOL   H19947669   2.830   0.898   0.544  0.2660 -0.2909 -2.6146
  236MOL   H20047670   2.963   1.095   0.661 -0.1442 -0.4002 -1.2012
  236MOL   H20147671   3.024   0.987   0.761 -0.1451  0.3230  0.3941
  236MOL   H20247672   2.843   0.990   0.759 -0.3165  0.4750 -0.0719
  237MOL     C147673   3.413   3.591   7.820 -0.4574  0.5175 -0.2161
  237MOL     C247674   3.563   3.576   7.806 -0.0794 -0.4215 -0.2777
  237MOL     C347675   3.628   3.483   7.736 -0.1876 -0.1830  0.3937
  237MOL     C447676   3.775   3.475   7.741 -0.9504  0.0180 -0.8678
  237MOL     H547677   3.392   3.579   7.927  1.4535  0.1090  0.1417
  237MOL     H647678   3.366   3.512   7.762 -1.3193  0.1399  0.9787
  237MOL     H747679   3.625   3.647   7.859 -1.1166 -0.3431  0.8458
  237MOL     H847680   3.571   3.409   7.682  0.2929 -0.9894  0.9804
  237MOL     H947681   3.806   3.384   7.792  0.3435  1.5060  1.1011
  237MOL    H1047682   3.811   3.550   7.812  0.2348 -0.8105 -0.5706
  237MOL    H1147683   3.369   3.687   7.793  1.1334  2.1234  2.5546
  237MOL    C1247684   3.848   3.494   7.610  0.3089 -0.0864  0.7519
  237MOL    C1347685   3.832   3.375   7.521  0.2522 -0.1525 -0.6615
  237MOL    C1447686   3.906   3.266   7.519  1.1531  0.3734 -0.8199
  237MOL    C1547687   3.885   3.158   7.416 -0.3459  0.0773 -0.1816
  237MOL    H1647688   3.812   3.588   7.568 -0.7785 -1.8295 -2.3518
  237MOL    H1747689   3.952   3.525   7.625  0.6038  0.9604 -2.9376
  237MOL    H1847690   3.764   3.376   7.436 -0.7429 -0.6664  0.1200
  237MOL    H1947691   3.976   3.262   7.601  1.6549  2.3163 -1.1238
  237MOL    H2047692   3.970   3.178   7.351 -0.0869  0.2025  0.1919
  237MOL    H2147693   3.794   3.182   7.361  0.3430  0.3722 -1.2023
  237MOL    C2247694   3.882   3.019   7.480 -0.3482  0.1776  0.6865
  237MOL    C2347695   3.842   2.908   7.381  0.1465 -0.0794 -0.1118
  237MOL    C2447696   3.766   2.805   7.410 -0.1508 -0.3252 -0.2116
  237MOL    C2547697   3.729   2.693   7.314  0.1063  0.2701 -0.7029
  237MOL    H2647698   3.983   3.005   7.519  0.4040 -0.8814 -1.5853
  237MOL    H2747699   3.810   3.015   7.562 -0.4687  0.3963  0.5904
  237MOL    H2847700   3.896   2.915   7.287 -1.6346  3.5898 -0.9485
  237MOL    H2947701   3.722   2.796   7.508  1.3099  0.7723  0.5613
  237MOL    H3047702   3.744   2.732   7.213  1.8924  0.2786 -0.4362
  237MOL    H3147703   3.622   2.671   7.319  0.3252 -0.4358  1.2183
  237MOL    C3247704   3.812   2.558   7.343 -0.0421 -0.3261  0.2138
  237MOL    C3347705   3.761   2.437   7.276  0.7079  0.4102 -0.6235
  237MOL    C3447706   3.744   2.314   7.332  0.4461  0.1724 -0.0438
  237MOL    C3547707   3.728   2.190   7.248 -0.8639 -0.0977 -0.8825
  237MOL    H3647708   3.919   2.571   7.328  0.0183  0.0807  1.0162
  237MOL    H3747709   3.802   2.542   7.450  0.9687 -0.2516  0.3168
  237MOL    H3847710   3.756   2.438   7.168 -0.1298 -0.9544 -0.6192
  237MOL    H3947711   3.764   2.309   7.438  1.0584  2.1076 -0.0480
  237MOL    H4047712   3.694   2.202   7.145 -0.1667 -1.1077 -1.2397
  237MOL    H4147713   3.660   2.126   7.303  1.4118 -0.5726  1.4693
  237MOL    C4247714   3.864   2.123   7.249 -0.4575 -0.4737  0.5213
  237MOL    C4347715   3.915   2.083   7.387 -0.0135  0.0953 -0.3707
  237MOL    C4447716   4.032   2.136   7.436  0.0782 -0.1512 -0.1490
  237MOL    C4547717   4.078   2.106   7.575  0.5281 -0.1173  0.1782
  237MOL    H4647718   3.852   2.033   7.190 -1.9981 -1.6070  2.4880
  237MOL    H4747719   3.943   2.188   7.212 -2.2605  1.8739  0.7088
  237MOL    H4847720   3.864   2.004   7.440  4.3026 -1.6124  1.4459
  237MOL    H4947721   4.081   2.209   7.374  2.0631  0.4067  2.0000
  237MOL    H5047722   4.141   2.016   7.576  0.1866 -0.3656 -0.6881
  237MOL    H5147723   3.986   2.102   7.632  1.1745  0.4959  1.2915
  237MOL    C5247724   4.160   2.223   7.636 -0.2695 -0.0593  0.6219
  237MOL    C5347725   4.150   2.216   7.789  0.3490  0.0029 -0.7015
  237MOL    C5447726   4.127   2.114   7.872  0.1260  0.0460  0.2988
  237MOL    C5547727   4.088   2.141   0.044  0.0222 -0.3045  0.1000
  237MOL    H5647728   4.263   2.228   7.602 -0.2006 -3.0729  0.2045
  237MOL    H5747729   4.116   2.319   7.611  1.9685  0.8700  0.1561
  237MOL    H5847730   4.154   2.314   7.834 -0.1359  0.3568 -1.4247
  237MOL    H5947731   4.121   2.014   7.833  0.5691  0.8444 -1.8496
  237MOL    H6047732   3.991   2.092   0.053  0.2580 -1.2703 -2.3090
  237MOL    H6147733   4.074   2.245   0.072  2.0741  0.7689 -2.6766
  237MOL    C6247734   4.187   2.084   0.142  0.0741 -0.1639 -0.6261
  237MOL    C6347735   4.154   2.120   0.281  0.2228 -0.1136  0.0186
  237MOL    C6447736   4.109   2.028   0.368 -0.3175 -0.0611  0.8769
  237MOL    C6547737   4.054   2.059   0.506 -0.7818 -0.6189  1.1863
  237MOL    H6647738   4.204   1.978   0.123 -0.7513 -0.4220  0.0375
  237MOL    H6747739   4.283   2.127   0.115 -0.8483  1.1543 -1.8988
  237MOL    H6847740   4.163   2.227   0.292 -1.8700  0.0152  0.6491
  237MOL    H6947741   4.120   1.928   0.329  0.2748  0.6647 -0.8932
  237MOL    H7047742   4.098   2.149   0.550 -1.2623 -0.1161  0.6570
  237MOL    H7147743   4.085   1.979   0.572  2.0788  1.0866  1.9596
  237MOL    C7247744   3.903   2.054   0.506  0.1520 -0.1059 -0.3799
  237MOL    C7347745   3.843   2.117   0.630 -0.7893 -0.0061 -0.1350
  237MOL    C7447746   3.786   2.239   0.635  0.2535  0.6628 -0.2827
  237MOL    C7547747   3.716   2.300   0.749 -0.3815 -0.1421  0.7175
  237MOL    H7647748   3.868   2.103   0.415 -0.9898 -0.8896 -0.3640
  237MOL    H7747749   3.877   1.949   0.501  1.3679 -0.2946 -3.8398
  237MOL    H7847750   3.849   2.056   0.719  2.5151 -1.7870 -1.4911
  237MOL    H7947751   3.786   2.291   0.541  1.6946  0.4116 -0.4279
  237MOL    H8047752   3.732   2.235   0.835 -0.0184  1.2142  1.6853
  237MOL    H8147753   3.613   2.289   0.716 -0.1837  1.5109 -0.5147
  237MOL    C8247754   3.751   2.435   0.794  0.5070  0.6031  0.2155
  237MOL    C8347755   3.651   2.486   0.899 -0.2058  0.3554  0.1302
  237MOL    C8447756   3.602   2.606   0.898  0.6613 -0.0291  0.2486
  237MOL    C8547757   3.508   2.661   1.002 -0.5422  0.0175  0.0138
  237MOL    H8647758   3.850   2.428   0.838  1.2493 -2.7659 -1.8544
  237MOL    H8747759   3.757   2.504   0.709 -0.0548  0.5463  0.1269
  237MOL    H8847760   3.628   2.421   0.982  0.1612  0.9356  0.6906
  237MOL    H8947761   3.641   2.676   0.824  0.0698  0.8697  0.7772
  237MOL    H9047762   3.500   2.595   1.089 -0.2624  0.2113  0.1875
  237MOL    H9147763   3.411   2.658   0.953 -1.8226  1.6488  2.3618
  237MOL    C9247764   3.542   2.797   1.053  1.1168 -0.4659 -0.7025
  237MOL    C9347765   3.466   2.840   1.179 -0.4796  0.5444 -0.4412
  237MOL    C9447766   3.546   2.885   1.278  0.6602 -0.7396  0.0762
  237MOL    C9547767   3.485   2.931   1.414  0.1735  0.3872  0.3883
  237MOL    H9647768   3.648   2.819   1.062  0.4065  1.7574  3.4432
  237MOL    H9747769   3.505   2.876   0.987 -0.7434  0.3089  1.1993
  237MOL    H9847770   3.359   2.844   1.181 -0.4458  1.1868  0.8485
  237MOL    H9947771   3.653   2.879   1.271  0.8435  1.3533  0.7664
  237MOL   H10047772   3.377   2.921   1.407  0.3682 -2.8749  1.0494
  237MOL   H10147773   3.510   3.034   1.438 -0.7384 -0.0828  3.6561
  237MOL   C10247774   3.537   2.849   1.535  0.0637  0.1130 -0.2600
  237MOL   C10347775   3.479   2.886   1.668 -0.3234 -0.0712 -0.2998
  237MOL   C10447776   3.416   2.803   1.752  0.0660  0.2991 -0.5618
  237MOL   C10547777   3.371   2.836   1.895  0.6513  0.3350 -0.0571
  237MOL   H10647778   3.500   2.748   1.517  2.4543 -1.1164  1.3777
  237MOL   H10747779   3.645   2.863   1.524  0.0573 -0.0764 -0.5528
  237MOL   H10847780   3.492   2.988   1.702 -3.4750 -0.1629  1.3777
  237MOL   H10947781   3.396   2.702   1.720 -0.6841  0.0532  0.6651
  237MOL   H11047782   3.263   2.828   1.900  0.6882  0.0269  0.2134
  237MOL   H11147783   3.381   2.945   1.906  0.8562  0.5670 -2.3485
  237MOL   C11247784   3.442   2.748   2.004 -0.1854  0.6495 -0.0909
  237MOL   C11347785   3.407   2.605   1.994 -0.1263  0.5847  0.3248
  237MOL   C11447786   3.496   2.504   1.994 -0.5594 -0.9280  0.4493
  237MOL   C11547787   3.452   2.357   1.995  0.0728 -0.3962 -0.1491
  237MOL   H11647788   3.549   2.766   1.994 -0.1516  0.7955  0.4774
  237MOL   H11747789   3.422   2.793   2.101  2.0966 -0.6825  1.0311
  237MOL   H11847790   3.301   2.585   1.992 -0.4174  1.9824  0.8688
  237MOL   H11947791   3.602   2.524   1.983 -0.7390 -1.3155 -2.4574
  237MOL   H12047792   3.469   2.327   1.892 -0.0463  2.3537 -1.0164
  237MOL   H12147793   3.344   2.344   2.002  0.1315 -0.7308  0.1513
  237MOL   C12247794   3.526   2.260   2.093 -0.0587 -0.6048  0.6808
  237MOL   C12347795   3.487   2.116   2.066  0.5757 -0.3021 -0.5076
  237MOL   C12447796   3.579   2.018   2.068  0.0320 -0.5857  0.6313
  237MOL   C12547797   3.557   1.873   2.049 -0.6348 -0.4177 -0.1617
  237MOL   H12647798   3.633   2.275   2.082  0.0074 -1.7354 -0.4257
  237MOL   H12747799   3.500   2.269   2.198 -1.0514 -2.6639  0.6437
  237MOL   H12847800   3.385   2.082   2.066 -0.0924  1.6081  0.0077
  237MOL   H12947801   3.681   2.041   2.093  0.7240 -0.4115 -2.2179
  237MOL   H13047802   3.594   1.843   1.952  0.6584 -1.6076  0.6750
  237MOL   H13147803   3.451   1.854   2.065 -0.7484 -0.4565 -0.9506
  237MOL   C13247804   3.632   1.804   2.166 -0.5546 -0.0468 -0.4091
  237MOL   C13347805   3.623   1.654   2.150  0.3663  0.4556  0.8104
  237MOL   C13447806   3.599   1.565   2.252 -0.2971  0.0981 -0.1853
  237MOL   C13547807   3.607   1.412   2.250  0.1943  0.6449 -0.2183
  237MOL   H13647808   3.738   1.829   2.157 -0.0212 -2.6442 -1.9644
  237MOL   H13747809   3.595   1.845   2.260 -1.8059  0.5197 -1.1273
  237MOL   H13847810   3.667   1.621   2.057  2.7964  1.4498  1.5726
  237MOL   H13947811   3.577   1.603   2.351  0.3008  0.6305 -0.2502
  237MOL   H14047812   3.652   1.392   2.347  0.8654  0.6851 -0.5190
  237MOL   H14147813   3.680   1.367   2.183  1.2272 -0.9255  1.9276
  237MOL   C14247814   3.468   1.348   2.247  0.0756 -0.4978  0.3382
  237MOL   C14347815   3.399   1.390   2.123 -0.0875  0.6805  0.2416
  237MOL   C14447816   3.301   1.479   2.120 -0.3552 -0.8747  0.1920
  237MOL   C14547817   3.209   1.495   1.998 -0.0836  0.0719 -0.2740
  237MOL   H14647818   3.470   1.239   2.253 -0.1574 -0.5128  0.1611
  237MOL   H14747819   3.416   1.382   2.337 -3.0281 -2.6524 -0.5718
  237MOL   H14847820   3.407   1.331   2.032  1.8432  1.1556  0.0832
  237MOL   H14947821   3.280   1.531   2.212 -1.2349  0.5961 -0.8291
  237MOL   H15047822   3.109   1.459   2.023  0.0261 -0.9483 -1.2575
  237MOL   H15147823   3.247   1.422   1.926 -1.5925 -1.0417  0.0191
  237MOL   C15247824   3.210   1.637   1.932  0.6789 -0.3077 -0.8279
  237MOL   C15347825   3.115   1.651   1.820 -0.6961  0.1194  0.4011
  237MOL   C15447826   3.019   1.741   1.794  0.0896 -0.7796  0.1374
  237MOL   C15547827   2.933   1.738   1.668 -0.1195 -0.0359 -0.2852
  237MOL   H15647828   3.211   1.723   1.999  1.7082 -0.5475 -0.5240
  237MOL   H15747829   3.309   1.643   1.887  1.0521  1.7767  0.2158
  237MOL   H15847830   3.126   1.573   1.747 -0.8901  0.7283 -0.2836
  237MOL   H15947831   2.999   1.823   1.861 -0.3845 -0.8880  0.1350
  237MOL   H16047832   2.833   1.758   1.704 -1.2093 -1.9344 -2.1868
  237MOL   H16147833   2.944   1.639   1.623  0.2571 -0.1536  0.0606
  237MOL   C16247834   2.970   1.837   1.562  0.4979 -0.1971  0.6981
  237MOL   C16347835   2.862   1.874   1.463 -0.1184 -0.5153 -0.2557
  237MOL   C16447836   2.825   1.999   1.424 -0.3061 -0.2568 -0.8138
  237MOL   C16547837   2.703   2.029   1.343 -0.3388 -0.4256  0.0853
  237MOL   H16647838   3.013   1.927   1.607  0.8345  0.0590 -0.1213
  237MOL   H16747839   3.055   1.805   1.501  0.9594  1.5797  0.3593
  237MOL   H16847840   2.803   1.790   1.429 -0.1400 -0.7044  0.2308
  237MOL   H16947841   2.883   2.084   1.458  1.4933 -2.1799  1.0625
  237MOL   H17047842   2.680   1.935   1.293  2.8470 -0.7734 -0.8071
  237MOL   H17147843   2.737   2.105   1.272 -2.0102  0.3952  0.1244
  237MOL   C17247844   2.578   2.080   1.412 -0.5167  0.0508 -0.2842
  237MOL   C17347845   2.457   2.106   1.322 -0.0096  0.8573  0.0479
  237MOL   C17447846   2.341   2.040   1.335 -1.1109 -0.4298  0.7982
  237MOL   C17547847   2.219   2.078   1.253  0.1126  0.2155 -0.7317
  237MOL   H17647848   2.542   2.000   1.476 -0.6547  1.0332  0.8847
  237MOL   H17747849   2.587   2.176   1.462 -1.3482  1.1858 -2.2329
  237MOL   H17847850   2.468   2.193   1.259 -0.5826  1.0570  0.2248
  237MOL   H17947851   2.333   1.967   1.414 -3.5331 -2.1080 -0.9357
  237MOL   H18047852   2.242   2.152   1.176  1.4776 -0.0992 -0.6300
  237MOL   H18147853   2.139   2.120   1.314  0.1917 -1.1534  0.3443
  237MOL   C18247854   2.155   1.954   1.182 -0.1640 -0.3902  0.6119
  237MOL   C18347855   2.058   1.993   1.076  0.0684 -0.8816  0.0883
  237MOL   C18447856   1.928   2.014   1.099  0.5504 -0.4682 -0.5805
  237MOL   C18547857   1.829   2.053   0.995 -0.5677  0.2073  0.0311
  237MOL   H18647858   2.214   1.887   1.120 -1.0045  0.2353 -0.8876
  237MOL   H18747859   2.117   1.892   1.263 -0.8083 -0.1453  0.5059
  237MOL   H18847860   2.100   2.024   0.981 -2.0281  2.5603  0.2028
  237MOL   H18947861   1.883   1.995   1.195 -0.6590 -0.2597 -1.0954
  237MOL   H19047862   1.764   1.966   0.986  0.7837 -0.7501 -0.6933
  237MOL   H19147863   1.877   2.054   0.897  2.1605  1.0812  1.3126
  237MOL   C19247864   1.752   2.183   1.035  0.5444  0.1394 -0.0258
  237MOL   C19347865   1.654   2.226   0.932 -0.2308  0.0614  0.3367
  237MOL   C19447866   1.613   2.177   0.819  0.9285  0.3112 -0.5582
  237MOL   C19547867   1.498   2.231   0.738  0.6523  0.2251 -0.4626
  237MOL   H19647868   1.696   2.171   1.128 -0.5365 -1.3595 -0.8470
  237MOL   H19747869   1.823   2.264   1.051 -1.8099  2.2343  0.2421
  237MOL   H19847870   1.609   2.315   0.974  0.0254  0.1449  0.4358
  237MOL   H19947871   1.663   2.089   0.782  0.2381 -1.4245  2.4565
  237MOL   H20047872   1.541   2.257   0.641 -1.3174 -0.0553 -1.4337
  237MOL   H20147873   1.449   2.322   0.772 -2.2367 -1.4651  0.0784
  237MOL   H20247874   1.413   2.164   0.728  0.2762  0.5616  0.4723
  238MOL     C147875   1.746   7.877   3.464  0.4535  0.1739  0.0950
  238MOL     C247876   1.684   7.968   3.359  0.1386 -0.2130 -0.7104
  238MOL     C347877   1.571   0.063   3.377 -0.2706 -0.0219  0.0347
  238MOL     C447878   1.513   0.152   3.266  0.3701 -0.4914 -0.1607
  238MOL     H547879   1.751   7.776   3.423  2.1953  0.8051 -1.3490
  238MOL     H647880   1.680   7.877   3.550 -0.8649 -0.3888 -0.8925
  238MOL     H747881   1.739   7.976   3.267 -1.0939  1.9033 -1.2878
  238MOL     H847882   1.515   0.065   3.470 -0.3304  0.6441 -0.0169
  238MOL     H947883   1.571   0.156   3.173 -0.9408  0.0271 -0.9658
  238MOL    H1047884   1.504   0.253   3.306  1.5507 -0.7267  0.7248
  238MOL    H1147885   1.850   7.893   3.494  0.3187  2.7302 -0.6937
  238MOL    C1247886   1.372   0.101   3.237  0.0933 -0.8071  0.5668
  238MOL    C1347887   1.312   0.171   3.120  0.7915 -0.5011 -0.5951
  238MOL    C1447888   1.187   0.228   3.118  0.5246 -0.2864  0.0174
  238MOL    C1547889   1.116   0.282   2.997  0.2287  0.5715  0.0907
  238MOL    H1647890   1.370   7.970   3.222  1.2954 -0.6433 -0.8454
  238MOL    H1747891   1.295   0.114   3.313 -1.3128 -3.9157 -0.2250
  238MOL    H1847892   1.368   0.166   3.027  0.3095 -1.7465 -0.8326
  238MOL    H1947893   1.130   0.223   3.210  2.3104 -0.6174  1.1407
  238MOL    H2047894   1.164   0.380   2.995  0.3864  0.4829 -0.7874
  238MOL    H2147895   1.012   0.308   3.017  0.9641  2.6731  1.3831
  238MOL    C2247896   1.125   0.214   2.860  0.2893  0.6603  0.9627
  238MOL    C2347897   1.040   0.288   2.755 -0.4160  0.3531 -0.6487
  238MOL    C2447898   0.959   0.227   2.663  0.3818  0.5544 -0.0910
  238MOL    C2547899   0.869   0.301   2.561  0.4701  0.4652 -0.2606
  238MOL    H2647900   1.229   0.207   2.829  0.1819 -0.9200  0.8836
  238MOL    H2747901   1.099   0.108   2.861 -0.1555  0.7395 -0.9534
  238MOL    H2847902   1.051   0.396   2.760  2.3278  0.1017 -0.2935
  238MOL    H2947903   0.946   0.120   2.658 -1.2487  0.7978 -1.0740
  238MOL    H3047904   0.852   0.406   2.585 -0.3844  0.7410 -1.9618
  238MOL    H3147905   0.767   0.269   2.583  0.1697  2.0696  0.7359
  238MOL    C3247906   0.913   0.282   2.409 -1.0073  0.3457 -0.0459
  238MOL    C3347907   0.814   0.329   2.305 -0.6443 -0.1703 -0.0867
  238MOL    C3447908   0.696   0.265   2.273  0.2526 -0.2560  0.5669
  238MOL    C3547909   0.603   0.314   2.155 -0.3372  0.1041 -0.0256
  238MOL    H3647910   1.000   0.344   2.386  0.0372  0.1496  3.1379
  238MOL    H3747911   0.946   0.184   2.375  1.2718  2.5119 -4.5347
  238MOL    H3847912   0.841   0.413   2.243  2.3299 -1.0581 -0.0671
  238MOL    H3947913   0.667   0.173   2.322 -1.9422 -0.0328 -0.2785
  238MOL    H4047914   0.504   0.292   2.194 -0.9365 -0.4674 -1.8445
  238MOL    H4147915   0.620   0.243   2.074  2.8266 -1.4363  1.8988
  238MOL    C4247916   0.626   0.452   2.103  0.2617 -0.1791 -0.1448
  238MOL    C4347917   0.527   0.494   1.996 -0.3437  0.7060  0.3635
  238MOL    C4447918   0.410   0.562   2.022  0.4684 -0.1955 -0.3557
  238MOL    C4547919   0.311   0.605   1.920  0.4315  0.2067  0.3653
  238MOL    H4647920   0.612   0.524   2.184  0.2221 -0.7681  0.3741
  238MOL    H4747921   0.721   0.455   2.049 -0.6878  3.0625 -1.7543
  238MOL    H4847922   0.550   0.463   1.895 -0.5261  0.5501  0.3700
  238MOL    H4947923   0.382   0.594   2.121  1.7962  1.4045 -0.4733
  238MOL    H5047924   0.226   0.543   1.947  0.7185 -0.8510 -1.1091
  238MOL    H5147925   0.331   0.561   1.822  2.5374  1.1411  0.3554
  238MOL    C5247926   0.274   0.757   1.912  0.3095 -0.1226 -0.3694
  238MOL    C5347927   0.157   0.790   1.822 -0.0318  0.2704 -0.0011
  238MOL    C5447928   0.149   0.879   1.716  0.1572 -0.3360 -0.2722
  238MOL    C5547929   0.020   0.910   1.649  0.0859  1.1935 -0.4219
  238MOL    H5647930   0.252   0.794   2.012 -1.2715 -1.1843 -0.3191
  238MOL    H5747931   0.367   0.808   1.884  0.4659 -1.3903 -2.2745
  238MOL    H5847932   0.063   0.746   1.852  1.3811 -2.3789  0.6946
  238MOL    H5947933   0.236   0.939   1.692  0.3302 -0.5765 -0.2549
  238MOL    H6047934   0.006   1.015   1.671  1.6292  1.3766 -0.2819
  238MOL    H6147935   7.927   0.842   1.699  0.8685 -0.6448 -1.7558
  238MOL    C6247936   0.035   0.872   1.496 -0.6180  0.1864 -0.0362
  238MOL    C6347937   7.877   0.886   1.425  0.4708 -0.0860  0.1323
  238MOL    C6447938   7.812   0.777   1.383 -0.0033  0.8602 -0.2707
  238MOL    C6547939   7.680   0.776   1.309  0.1309 -0.5506  0.6748
  238MOL    H6647940   0.113   0.919   1.436 -1.6468  1.1398 -0.6340
  238MOL    H6747941   0.060   0.767   1.476 -0.1143  0.3940 -0.5156
  238MOL    H6847942   7.834   0.985   1.413 -1.4875 -0.6008  2.4942
  238MOL    H6947943   7.848   0.677   1.406 -0.2265  1.0329  0.8426
  238MOL    H7047944   7.656   0.875   1.272  0.5605 -0.9388 -0.6967
  238MOL    H7147945   7.595   0.746   1.372  0.1012  0.5740  1.1741
  238MOL    C7247946   7.692   0.696   1.179 -1.0266 -0.4738 -0.3821
  238MOL    C7347947   7.555   0.639   1.138 -0.1836  0.9816  0.2678
  238MOL    C7447948   7.536   0.507   1.112  0.4117 -0.4787  0.2534
  238MOL    C7547949   7.402   0.455   1.068 -0.2730  0.7304 -0.1810
  238MOL    H7647950   7.736   0.747   1.094  0.7831 -1.1762  0.1131
  238MOL    H7747951   7.755   0.610   1.204 -2.0753 -1.1938 -0.1662
  238MOL    H7847952   7.482   0.719   1.137 -1.1584  0.0873 -0.7187
  238MOL    H7947953   7.616   0.435   1.121 -0.1854 -1.3550 -1.2660
  238MOL    H8047954   7.394   0.447   0.960 -0.6325  2.4658 -0.3053
  238MOL    H8147955   7.319   0.522   1.091  1.3799  2.8815 -0.3093
  238MOL    C8247956   7.363   0.327   1.136 -0.0238 -0.4048 -0.0051
  238MOL    C8347957   7.314   0.349   1.279 -0.3947 -0.7267 -0.0188
  238MOL    C8447958   7.280   0.257   1.365  0.4944 -0.3871  0.8223
  238MOL    C8547959   7.235   0.275   1.503 -0.0963 -0.2552  0.3057
  238MOL    H8647960   7.281   0.278   1.084 -2.3074  1.8348  1.4271
  238MOL    H8747961   7.445   0.255   1.128  1.0250  1.0269 -2.8628
  238MOL    H8847962   7.299   0.453   1.302  1.7433  0.4193 -3.4352
  238MOL    H8947963   7.285   0.155   1.330  1.4114 -0.1355  0.1914
  238MOL    H9047964   7.133   0.239   1.512  0.5456 -1.5770  3.0620
  238MOL    H9147965   7.230   0.379   1.537  2.1552 -0.4783  1.4861
  238MOL    C9247966   7.328   0.193   1.600  0.5489 -0.9189 -0.1264
  238MOL    C9347967   7.279   0.188   1.745  0.8602  0.9973 -0.2632
  238MOL    C9447968   7.222   0.077   1.797 -0.4422 -0.1399  0.1547
  238MOL    C9547969   7.166   0.062   1.942 -0.5127 -0.6237 -0.2448
  238MOL    H9647970   7.324   0.088   1.570  0.8118 -0.9905  0.0897
  238MOL    H9747971   7.430   0.229   1.590 -0.5568  2.3205 -0.2732
  238MOL    H9847972   7.293   0.279   1.802 -0.0159  1.5574 -0.9288
  238MOL    H9947973   7.225   7.964   1.738 -1.0226  0.9963 -1.6780
  238MOL   H10047974   7.058   0.052   1.942 -0.5725  0.0241 -0.7175
  238MOL   H10147975   7.194   0.157   1.987 -1.3229  0.2830 -1.6224
  238MOL   C10247976   7.213   7.920   2.024  0.1759 -0.4520  0.3652
  238MOL   C10347977   7.199   7.935   2.173  0.0092  0.0732 -0.1262
  238MOL   C10447978   7.111   7.860   2.247  0.3620 -0.2607 -0.3173
  238MOL   C10547979   7.093   7.882   2.393  0.1183 -0.4332 -0.4755
  238MOL   H10647980   7.149   7.840   1.987  1.3813 -1.2846  0.0339
  238MOL   H10747981   7.316   7.899   1.994  0.7415 -2.0682  3.1972
  238MOL   H10847982   7.265   0.029   2.222 -0.6167  0.1025  0.6887
  238MOL   H10947983   7.049   7.783   2.204  0.8239 -0.0818 -1.3115
  238MOL   H11047984   7.005   7.946   2.405 -0.3528 -1.2918  0.8453
  238MOL   H11147985   7.182   7.930   2.433 -0.9558  1.3545 -0.1412
  238MOL   C11247986   7.066   7.753   2.483 -0.0320 -1.1646  1.2050
  238MOL   C11347987   7.052   7.787   2.629  0.2585 -0.0610 -0.2021
  238MOL   C11447988   7.013   7.705   2.724  0.3377  0.0003  0.0789
  238MOL   C11547989   7.026   7.725   2.873 -0.3951  0.3956 -0.1009
  238MOL   H11647990   6.977   7.710   2.437  0.6577 -0.7719 -0.5255
  238MOL   H11747991   7.144   7.688   2.444 -1.4719 -0.7694 -2.4939
  238MOL   H11847992   7.098   7.881   2.654 -0.7045  0.3185  0.1516
  238MOL   H11947993   6.978   7.605   2.702 -1.3906  0.7344 -0.6320
  238MOL   H12047994   6.948   7.673   2.929 -0.7142 -0.5722 -1.4221
  238MOL   H12147995   7.019   7.833   2.884 -0.6232  0.4321 -0.5981
  238MOL   C12247996   7.162   7.659   2.914 -0.0886 -0.3145 -0.0817
  238MOL   C12347997   7.176   7.684   3.062 -0.3313  0.0205  0.2824
  238MOL   C12447998   7.281   7.650   3.133  0.1471 -1.0976  0.2287
  238MOL   C12547999   7.281   7.645   3.281  0.9861  0.2643  0.1369
  238MOL   H12648000   7.168   7.552   2.895  3.7081 -0.4478  1.3406
  238MOL   H12748001   7.241   7.707   2.856 -0.5337 -0.0697 -0.4902
  238MOL   H12848002   7.106   7.757   3.102 -1.6645 -0.9200 -0.3073
  238MOL   H12948003   7.368   7.601   3.092  1.4348 -0.5659  2.2580
  238MOL   H13048004   7.270   7.537   3.295  3.0912 -0.0266 -0.4231
  238MOL   H13148005   7.196   7.696   3.327  0.0210  2.1501 -3.5424
  238MOL   C13248006   7.407   7.704   3.356 -0.3637  0.2429 -0.1635
  238MOL   C13348007   7.430   7.664   3.501 -0.0632 -0.0430  0.2811
  238MOL   C13448008   7.538   7.603   3.552  0.5255  0.7286 -0.1633
  238MOL   C13548009   7.568   7.575   3.698 -0.0919 -0.7321 -0.1092
  238MOL   H13648010   7.500   7.669   3.314 -1.0609 -0.9536 -0.7159
  238MOL   H13748011   7.400   7.813   3.354  0.1281  0.2717 -0.3268
  238MOL   H13848012   7.346   7.696   3.562 -0.7082  1.1122 -1.1694
  238MOL   H13948013   7.622   7.572   3.493  2.6574  1.4521  2.4094
  238MOL   H14048014   7.588   7.469   3.713 -0.3753 -0.6719  0.7593
  238MOL   H14148015   7.483   7.603   3.761  0.1759  1.5619 -0.7232
  238MOL   C14248016   7.689   7.644   3.750  0.0160  0.0072  0.0002
  238MOL   C14348017   7.813   7.588   3.698 -0.3339 -0.7183  0.6871
  238MOL   C14448018   7.883   7.643   3.597  0.4138  1.0400  0.4759
  238MOL   C14548019   0.036   7.594   3.540 -0.1431 -0.4558 -0.0847
  238MOL   H14648020   7.690   7.752   3.729  0.4991 -0.1063 -0.5846
  238MOL   H14748021   7.692   7.625   3.857 -0.3668 -1.4114 -0.2373
  238MOL   H14848022   7.834   7.493   3.744 -1.1945 -0.6790  1.1724
  238MOL   H14948023   7.834   7.728   3.554 -2.8924 -0.3845  1.2732
  238MOL   H15048024   0.082   7.518   3.603 -1.5391 -0.0676  1.4634
  238MOL   H15148025   0.101   7.681   3.544  0.2105 -0.7956  2.2715
  238MOL   C15248026   0.032   7.549   3.395 -0.2540 -0.6618 -0.3067
  238MOL   C15348027   0.172   7.542   3.345  0.3008  0.0624 -0.2076
  238MOL   C15448028   0.228   7.615   3.251 -0.4850  0.6256  0.1750
  238MOL   C15548029   0.375   7.608   3.214  0.5981  0.3075 -0.4465
  238MOL   H15648030   7.958   7.453   3.387 -0.8356 -0.3372 -0.4966
  238MOL   H15748031   7.952   7.615   3.330  0.4698  1.1137  0.8344
  238MOL   H15848032   0.240   7.477   3.399  1.0111  2.5725  2.0408
  238MOL   H15948033   0.165   7.681   3.194 -2.6042 -0.1706  1.5528
  238MOL   H16048034   0.408   7.516   3.262 -3.2903 -1.3068 -0.6642
  238MOL   H16148035   0.415   7.700   3.256  1.7986  0.5544 -2.1136
  238MOL   C16248036   0.390   7.606   3.063 -0.1195 -0.8256 -0.0128
  238MOL   C16348037   0.527   7.573   3.020 -0.1846  0.1802  0.0477
  238MOL   C16448038   0.567   7.450   2.977 -0.6399  0.3504  0.4254
  238MOL   C16548039   0.713   7.427   2.929  0.0606  0.4254 -0.6717
  238MOL   H16648040   0.330   7.526   3.021  0.6819 -2.0522  1.1276
  238MOL   H16748041   0.359   7.701   3.019  0.1595  0.1556  1.8243
  238MOL   H16848042   0.597   7.656   3.020 -0.5960  0.5550 -1.5681
  238MOL   H16948043   0.502   7.365   2.965  0.3358 -0.2320 -0.8696
  238MOL   H17048044   0.761   7.364   3.004 -0.2918  1.9564  0.8830
  238MOL   H17148045   0.774   7.517   2.918 -0.6046  0.9554 -0.1081
  238MOL   C17248046   0.719   7.356   2.794 -0.0828  0.0317  0.4112
  238MOL   C17348047   0.854   7.309   2.760 -0.9497  0.3111  0.4451
  238MOL   C17448048   0.934   7.360   2.663  0.4295 -0.5505  0.5306
  238MOL   C17548049   1.084   7.329   2.651  0.0518  0.5984 -0.2861
  238MOL   H17648050   0.648   7.273   2.791  0.5402 -0.4702 -2.4856
  238MOL   H17748051   0.691   7.428   2.717  0.6354  2.2180  2.1473
  238MOL   H17848052   0.892   7.241   2.836  1.4649  0.4348 -0.5897
  238MOL   H17948053   0.897   7.441   2.602  0.5495 -0.3100  0.7783
  238MOL   H18048054   1.085   7.268   2.561 -1.3547 -1.2304  0.8907
  238MOL   H18148055   1.126   7.269   2.732 -2.4375  1.3858  1.6361
  238MOL   C18248056   1.152   7.468   2.643 -0.1681 -0.2957  0.0916
  238MOL   C18348057   1.301   7.449   2.621 -0.0260 -0.2703  0.4865
  238MOL   C18448058   1.395   7.542   2.656  0.1463 -0.2398 -0.4407
  238MOL   C18548059   1.540   7.542   2.628  0.1177 -0.9735 -0.1834
  238MOL   H18648060   1.106   7.515   2.557 -0.0339  1.8998  1.1750
  238MOL   H18748061   1.122   7.524   2.732 -2.7534 -1.4571 -0.0295
  238MOL   H18848062   1.341   7.366   2.565  1.2947  0.7783 -0.1452
  238MOL   H18948063   1.352   7.628   2.703 -1.9241 -3.0119  2.9371
  238MOL   H19048064   1.575   7.458   2.568 -0.7012 -0.7126 -1.0441
  238MOL   H19148065   1.590   7.538   2.724  1.3773 -1.9762 -0.8608
  238MOL   C19248066   1.590   7.673   2.564  0.5118 -0.6461 -0.1003
  238MOL   C19348067   1.726   7.680   2.509 -0.4697  0.2640  0.2010
  238MOL   C19448068   1.830   7.762   2.549 -0.0212  0.3744  0.0840
  238MOL   C19548069   1.968   7.771   2.494  0.2892 -0.2637  0.4591
  238MOL   H19648070   1.522   7.696   2.482  1.3445 -2.4678 -1.3371
  238MOL   H19748071   1.573   7.756   2.633  3.1319 -1.3551  1.4819
  238MOL   H19848072   1.743   7.607   2.431 -1.9945  1.4197 -1.2680
  238MOL   H19948073   1.810   7.833   2.627  0.3481  0.3212  0.2241
  238MOL   H20048074   1.978   7.870   2.447  0.9640 -0.2318  0.6609
  238MOL   H20148075   1.990   7.697   2.418  3.0853  0.0358  0.9003
  238MOL   H20248076   2.042   7.759   2.573  0.1377  0.3506  0.6957
  239MOL     C148077   2.863   2.771   0.526  0.0247  0.1239  0.1233
  239MOL     C248078   2.754   2.864   0.539 -0.6091  0.4546  0.2979
  239MOL     C348079   2.674   2.876   0.430  0.3031  0.0633  0.3781
  239MOL     C448080   2.564   2.979   0.421  0.0106  0.8265 -0.1647
  239MOL     H548081   2.873   2.708   0.615  2.3512  1.7485  1.0592
  239MOL     H648082   2.961   2.817   0.512  0.8317 -1.4610  0.4076
  239MOL     H748083   2.748   2.926   0.627 -2.5817  1.7993 -0.7630
  239MOL     H848084   2.668   2.807   0.348  2.4372 -0.2750  0.4838
  239MOL     H948085   2.602   3.056   0.353  2.3364 -0.0225  0.1359
  239MOL    H1048086   2.546   3.032   0.516 -1.9452  0.7061 -0.4496
  239MOL    H1148087   2.847   2.710   0.438 -0.5077  0.6666 -0.1518
  239MOL    C1248088   2.427   2.926   0.365  0.3678  0.2506 -0.6106
  239MOL    C1348089   2.302   3.011   0.373  0.2232  0.5183 -1.2453
  239MOL    C1448090   2.297   3.146   0.395 -0.0043 -0.5930  0.5966
  239MOL    C1548091   2.175   3.237   0.406  0.3683  0.1443  0.0242
  239MOL    H1648092   2.428   2.871   0.271  0.6213 -0.1412 -0.3839
  239MOL    H1748093   2.412   2.852   0.444  2.1267 -1.7010 -2.0531
  239MOL    H1848094   2.214   2.954   0.348  0.7310  0.0431 -1.9610
  239MOL    H1948095   2.391   3.197   0.412 -1.0310  2.0088 -1.1420
  239MOL    H2048096   2.090   3.175   0.379 -0.3107  2.1889 -2.6930
  239MOL    H2148097   2.180   3.314   0.329 -2.3839 -0.2655 -0.6008
  239MOL    C2248098   2.146   3.294   0.544 -0.1200 -0.3162  0.7458
  239MOL    C2348099   2.192   3.438   0.559  0.5315 -0.3246 -0.1108
  239MOL    C2448100   2.265   3.480   0.658  0.8005 -0.0338 -0.4693
  239MOL    C2548101   2.319   3.615   0.691  0.6018  0.2321 -0.4959
  239MOL    H2648102   2.037   3.289   0.544 -0.0857 -1.3933 -0.6326
  239MOL    H2748103   2.166   3.233   0.632  0.3501  2.1325  2.3678
  239MOL    H2848104   2.163   3.503   0.478 -0.6687 -1.6015 -0.7237
  239MOL    H2948105   2.281   3.407   0.736 -0.0334 -1.6442 -1.7722
  239MOL    H3048106   2.278   3.691   0.625  3.5811  1.9567 -0.4833
  239MOL    H3148107   2.424   3.618   0.662  0.2418 -2.8330 -2.2849
  239MOL    C3248108   2.298   3.654   0.839 -0.6225  0.0012 -0.4741
  239MOL    C3348109   2.349   3.798   0.839  0.2336  0.7923 -0.0564
  239MOL    C3448110   2.285   3.904   0.879 -0.0348 -0.4570  0.5409
  239MOL    C3548111   2.338   4.045   0.865 -0.4754 -0.8178  0.0767
  239MOL    H3648112   2.193   3.648   0.869 -0.7345 -0.7912 -1.0101
  239MOL    H3748113   2.367   3.593   0.897 -0.7651  0.1929 -0.1040
  239MOL    H3848114   2.448   3.803   0.798 -1.0655  0.4671 -3.3799
  239MOL    H3948115   2.184   3.899   0.918  0.5049  1.9218  2.3820
  239MOL    H4048116   2.276   4.093   0.789  0.0297 -0.2268  0.0337
  239MOL    H4148117   2.436   4.058   0.819 -0.7291 -1.0657 -0.5491
  239MOL    C4248118   2.343   4.115   1.005 -0.6603 -0.3827 -0.1473
  239MOL    C4348119   2.355   4.267   0.989  0.4349 -0.1458  0.3754
  239MOL    C4448120   2.253   4.353   1.005 -0.1438  0.0119 -0.5092
  239MOL    C4548121   2.258   4.507   1.002  0.2667 -0.3739 -0.5410
  239MOL    H4648122   2.247   4.105   1.056 -1.2351  0.7232 -0.9719
  239MOL    H4748123   2.428   4.073   1.059  1.3484  1.6408 -1.6267
  239MOL    H4848124   2.457   4.293   0.965  0.6634 -1.8535 -0.5488
  239MOL    H4948125   2.152   4.315   1.009  0.1306 -0.8490 -1.5299
  239MOL    H5048126   2.208   4.555   1.086 -1.1275 -1.6890 -0.6175
  239MOL    H5148127   2.203   4.522   0.909  0.0321 -0.9745 -0.4988
  239MOL    C5248128   2.394   4.560   0.968 -0.6173 -0.1034  0.2564
  239MOL    C5348129   2.410   4.710   0.967 -0.0361 -0.2313  0.4035
  239MOL    C5448130   2.493   4.777   1.047  0.9011 -0.6375 -0.3992
  239MOL    C5548131   2.522   4.925   1.063  0.7043  0.3300  0.1498
  239MOL    H5648132   2.466   4.520   1.040 -0.2918 -0.3439 -0.2048
  239MOL    H5748133   2.429   4.528   0.870  1.9121 -3.0726  2.0234
  239MOL    H5848134   2.348   4.760   0.894 -0.7977 -0.6219  0.7733
  239MOL    H5948135   2.563   4.720   1.106  1.1568  1.2518  1.1522
  239MOL    H6048136   2.623   4.931   1.024 -0.1129  0.6370 -2.0223
  239MOL    H6148137   2.523   4.960   1.166 -3.1135 -1.4571  0.8918
  239MOL    C6248138   2.439   5.024   0.979  0.5908  0.8323 -0.1389
  239MOL    C6348139   2.490   5.163   1.011 -0.0973 -0.1174 -0.0247
  239MOL    C6448140   2.406   5.262   1.042  0.0697 -0.3748 -0.2000
  239MOL    C6548141   2.449   5.399   1.090  0.0048  0.0823 -0.8905
  239MOL    H6648142   2.456   5.006   0.873 -1.4038  0.2812 -0.3828
  239MOL    H6748143   2.337   5.012   1.015  0.9300  2.0077  1.2738
  239MOL    H6848144   2.598   5.173   1.005  0.0423 -1.4776 -0.0827
  239MOL    H6948145   2.299   5.247   1.046  0.2793 -1.5104  1.1367
  239MOL    H7048146   2.555   5.380   1.107 -0.2628 -0.9391 -0.3623
  239MOL    H7148147   2.413   5.423   1.190  0.7673  0.2794 -0.6618
  239MOL    C7248148   2.407   5.518   1.000  0.7192 -0.6979  0.0964
  239MOL    C7348149   2.264   5.501   0.954 -0.0902 -0.5822  0.0639
  239MOL    C7448150   2.230   5.462   0.833  0.5104  0.1406 -0.6479
  239MOL    C7548151   2.086   5.433   0.787 -0.6212 -0.1093 -0.4411
  239MOL    H7648152   2.418   5.607   1.062 -2.9514 -0.6908  0.8599
  239MOL    H7748153   2.475   5.518   0.914 -0.1560  2.0652 -0.6544
  239MOL    H7848154   2.186   5.517   1.027 -0.6608 -0.2465 -0.6043
  239MOL    H7948155   2.306   5.427   0.765  0.5655  0.7892 -0.9291
  239MOL    H8048156   2.063   5.327   0.793 -0.5187 -0.1129 -0.0696
  239MOL    H8148157   2.079   5.470   0.685  1.8309  0.6501 -0.3860
  239MOL    C8248158   1.984   5.517   0.871 -0.1606  0.6691 -0.8598
  239MOL    C8348159   1.841   5.506   0.833  0.3305 -0.5245  1.1249
  239MOL    C8448160   1.761   5.609   0.839  0.9565 -0.6003  0.1714
  239MOL    C8548161   1.607   5.606   0.812 -0.1678 -0.4944  0.1511
  239MOL    H8648162   1.983   5.476   0.971 -0.4629  0.3888 -0.9790
  239MOL    H8748163   2.020   5.619   0.882 -0.0304  0.2260  3.6117
  239MOL    H8848164   1.805   5.409   0.805 -0.6964 -0.1802  1.2408
  239MOL    H8948165   1.798   5.706   0.870 -0.6977  0.0776  0.0580
  239MOL    H9048166   1.564   5.506   0.803 -0.4768 -0.4734  1.2402
  239MOL    H9148167   1.593   5.653   0.716  0.0176  0.1152  0.4222
  239MOL    C9248168   1.526   5.700   0.907  0.0326  0.1730 -0.3696
  239MOL    C9348169   1.389   5.724   0.846 -0.6454 -0.5151  0.7102
  239MOL    C9448170   1.346   5.847   0.808 -0.6329  0.0769  0.7646
  239MOL    C9548171   1.207   5.872   0.756  0.0730  0.2474 -0.6413
  239MOL    H9648172   1.514   5.650   1.003  1.2574  0.2875 -0.1512
  239MOL    H9748173   1.583   5.791   0.927 -1.3301  1.1525 -0.8430
  239MOL    H9848174   1.315   5.647   0.829 -0.4819 -0.1668 -1.6861
  239MOL    H9948175   1.412   5.933   0.807  1.0622 -1.1740 -2.1032
  239MOL   H10048176   1.151   5.942   0.818 -0.3549 -0.1741 -0.5490
  239MOL   H10148177   1.154   5.778   0.766  0.8429  0.0260  1.5558
  239MOL   C10248178   1.217   5.912   0.616 -0.3904 -0.7699 -0.0785
  239MOL   C10348179   1.074   5.950   0.561  0.2836  0.6120  0.2017
  239MOL   C10448180   1.023   5.898   0.447 -0.7599  0.5341  0.8537
  239MOL   C10548181   0.892   5.927   0.384  0.2940  0.5858 -0.8505
  239MOL   H10648182   1.282   5.999   0.621 -1.0777 -0.3210  1.4738
  239MOL   H10748183   1.263   5.837   0.551  0.5584 -0.1446 -0.1411
  239MOL   H10848184   1.009   6.029   0.597  0.7287  0.5809  1.0912
  239MOL   H10948185   1.073   5.817   0.395  0.0314  1.2660  0.4653
  239MOL   H11048186   0.857   6.027   0.411  0.9707  0.7977 -0.7518
  239MOL   H11148187   0.838   5.850   0.439  0.3787  0.9634 -0.2417
  239MOL   C11248188   0.881   5.910   0.236 -0.7767  0.0947  0.0301
  239MOL   C11348189   0.733   5.898   0.202  0.2026  0.4495  0.4992
  239MOL   C11448190   0.685   5.801   0.133  0.4739 -0.1422  0.0318
  239MOL   C11548191   0.542   5.780   0.098  0.1040  0.5407 -0.3835
  239MOL   H11648192   0.932   5.996   0.191  3.5958 -1.2535  2.0855
  239MOL   H11748193   0.928   5.815   0.209  0.8801  0.8983 -0.0210
  239MOL   H11848194   0.664   5.975   0.233 -0.0789 -0.1902  1.4743
  239MOL   H11948195   0.754   5.725   0.099  0.8923  0.9166 -1.5284
  239MOL   H12048196   0.543   5.799   7.968 -1.1714  1.1476 -0.3028
  239MOL   H12148197   0.480   5.857   0.145  3.0457  2.2083  0.8496
  239MOL   C12248198   0.502   5.636   0.128 -0.4803 -0.1001  0.2180
  239MOL   C12348199   0.512   5.618   0.279 -0.5134 -0.2071  0.1060
  239MOL   C12448200   0.420   5.582   0.377  0.0640 -0.5466  0.3066
  239MOL   C12548201   0.454   5.549   0.524  0.3351 -0.0923  0.2041
  239MOL   H12648202   0.402   5.610   0.093 -0.7816  1.6663 -0.2979
  239MOL   H12748203   0.566   5.571   0.068 -2.2345  0.3819 -2.2414
  239MOL   H12848204   0.611   5.605   0.320 -0.0156 -0.6156 -1.1827
  239MOL   H12948205   0.313   5.574   0.360  0.2060 -0.2943 -0.7422
  239MOL   H13048206   0.385   5.610   0.583  2.0598  1.8753  0.2601
  239MOL   H13148207   0.558   5.578   0.539  0.9055 -2.6133  1.3278
  239MOL   C13248208   0.430   5.397   0.556 -0.5613  0.7287 -0.0071
  239MOL   C13348209   0.531   5.307   0.483  0.1333 -0.0827  0.2771
  239MOL   C13448210   0.652   5.339   0.439  0.7459 -0.4270  0.5494
  239MOL   C13548211   0.747   5.240   0.385 -0.3218 -0.5148 -0.2066
  239MOL   H13648212   0.434   5.376   0.663 -1.2265  0.8105  0.0351
  239MOL   H13748213   0.328   5.371   0.528 -0.4126  0.3718 -0.2221
  239MOL   H13848214   0.496   5.206   0.472  0.2620 -0.0232 -0.7408
  239MOL   H13948215   0.687   5.441   0.444 -0.8160  0.2208 -1.2896
  239MOL   H14048216   0.712   5.137   0.389 -2.3528  0.0865 -1.9669
  239MOL   H14148217   0.820   5.243   0.466 -0.2845 -3.3377 -0.0643
  239MOL   C14248218   0.826   5.268   0.258  0.5728  0.3915 -0.3668
  239MOL   C14348219   0.948   5.183   0.234  0.3155 -0.1897 -0.1325
  239MOL   C14448220   0.987   5.134   0.118 -0.0659  0.5529  0.6677
  239MOL   C14548221   1.109   5.030   0.101  0.1110 -0.2339  0.2324
  239MOL   H14648222   0.763   5.264   0.169  1.3350  0.0385 -0.9005
  239MOL   H14748223   0.856   5.372   0.275 -3.1293  1.4193  0.3517
  239MOL   H14848224   1.002   5.166   0.326 -1.2858 -0.2505  0.8091
  239MOL   H14948225   0.942   5.159   0.023  0.2740 -0.7502  0.1578
  239MOL   H15048226   1.076   4.966   0.020  0.6034 -2.2477  1.6063
  239MOL   H15148227   1.155   4.971   0.180  2.5613  1.6969  0.2998
  239MOL   C15248228   1.216   5.114   0.035  0.0060  0.2166 -0.0742
  239MOL   C15348229   1.333   5.032   7.977  0.0747 -0.5592  0.8838
  239MOL   C15448230   1.361   4.998   7.850 -0.4341  0.7306 -0.5720
  239MOL   C15548231   1.479   4.913   7.817 -0.2771  0.3868 -0.1659
  239MOL   H15648232   1.179   5.177   7.931 -0.0495  2.3820  1.5881
  239MOL   H15748233   1.265   5.185   0.102  1.3170 -2.1064  1.5077
  239MOL   H15848234   1.397   5.019   0.086 -1.1176  0.6524  1.9793
  239MOL   H15948235   1.282   4.997   7.777 -2.3442 -1.8708  1.4266
  239MOL   H16048236   1.442   4.828   7.760 -1.4310  0.8360 -0.0949
  239MOL   H16148237   1.530   4.881   7.908  0.2079  0.5865 -0.3658
  239MOL   C16248238   1.578   4.991   7.734  0.5177 -0.0993  0.6821
  239MOL   C16348239   1.702   4.921   7.681  0.0134 -0.6008  0.5004
  239MOL   C16448240   1.817   4.909   7.751  1.0654  0.4178 -0.8631
  239MOL   C16548241   1.936   4.830   7.709  0.4016 -0.7477 -0.5275
  239MOL   H16648242   1.523   5.053   7.663 -0.9234 -2.1791 -0.0563
  239MOL   H16748243   1.613   5.068   7.803  0.3764  1.1855 -0.6464
  239MOL   H16848244   1.684   4.870   7.587 -0.2633 -0.2376  0.3555
  239MOL   H16948245   1.826   4.948   7.851 -0.6751  0.7674 -0.8246
  239MOL   H17048246   1.919   4.795   7.607  3.2317 -0.7055 -1.0790
  239MOL   H17148247   1.953   4.751   7.781  0.0626 -2.2099 -2.0192
  239MOL   C17248248   2.056   4.913   7.710 -0.6171  0.0132 -0.5072
  239MOL   C17348249   2.159   4.841   7.626  0.2399 -0.1820  0.2319
  239MOL   C17448250   2.207   4.889   7.513 -0.0922  1.2396  1.3183
  239MOL   C17548251   2.312   4.818   7.437  0.2071 -0.0930  0.6499
  239MOL   H17648252   2.038   5.009   7.661 -3.0600 -0.8928 -1.4380
  239MOL   H17748253   2.091   4.935   7.811 -1.6265  1.7649 -0.5146
  239MOL   H17848254   2.195   4.745   7.659 -2.7483 -2.1627 -1.9840
  239MOL   H17948255   2.170   4.984   7.476 -3.4529 -0.0012  1.2922
  239MOL   H18048256   2.283   4.781   7.339 -1.9432  3.1431 -0.0078
  239MOL   H18148257   2.350   4.740   7.503  0.6237 -1.9164 -1.6943
  239MOL   C18248258   2.432   4.914   7.414  0.3379  0.7027  0.5091
  239MOL   C18348259   2.536   4.857   7.311 -0.1912 -0.3470  0.3153
  239MOL   C18448260   2.569   4.912   7.191 -0.0098 -0.3145  0.0593
  239MOL   C18548261   2.671   4.855   7.094  0.2985 -0.1029 -0.5856
  239MOL   H18648262   2.394   5.008   7.374  0.6721  0.3308 -0.7050
  239MOL   H18748263   2.500   4.927   7.498  0.8266 -0.0061  0.2294
  239MOL   H18848264   2.601   4.778   7.346 -1.0724 -1.3326 -0.2530
  239MOL   H18948265   2.510   4.996   7.157 -1.8926 -0.9247  1.7246
  239MOL   H19048266   2.713   4.762   7.132  1.5963 -0.2552 -2.3433
  239MOL   H19148267   2.752   4.927   7.084 -1.3204  1.7140 -0.9763
  239MOL   C19248268   2.604   4.829   6.964 -0.7135 -0.0518 -0.5448
  239MOL   C19348269   2.683   4.731   6.883  0.0062  0.2146 -0.3628
  239MOL   C19448270   2.645   4.613   6.840  0.1413  0.0966 -0.1796
  239MOL   C19548271   2.727   4.498   6.771 -0.2323 -0.1506 -0.2463
  239MOL   H19648272   2.511   4.774   6.984 -1.2816  0.5498 -1.4655
  239MOL   H19748273   2.579   4.928   6.926 -2.7446 -0.1281  0.5225
  239MOL   H19848274   2.786   4.758   6.865 -0.1186 -0.0498 -1.5036
  239MOL   H19948275   2.546   4.588   6.875 -0.5719  2.4442 -0.4477
  239MOL   H20048276   2.828   4.537   6.763 -0.9564  1.4842 -2.0551
  239MOL   H20148277   2.676   4.470   6.678  0.5613 -0.2196 -0.6655
  239MOL   H20248278   2.730   4.420   6.847  1.3428 -2.4799 -2.5786
  240MOL     C148279   2.138   7.809   3.592 -0.1791 -0.0484 -0.4112
  240MOL     C248280   2.133   7.671   3.535  0.2004  0.3620 -0.2243
  240MOL     C348281   2.048   7.633   3.442  0.1046  0.2389  0.1260
  240MOL     C448282   2.039   7.493   3.379  0.2467  0.2015 -0.6596
  240MOL     H548283   2.118   7.832   3.696  1.7941 -1.9570  0.4387
  240MOL     H648284   2.060   7.863   3.537  0.1484 -1.0524 -1.9095
  240MOL     H748285   2.199   7.603   3.586 -1.0892 -1.3308 -0.7778
  240MOL     H848286   1.965   7.698   3.417 -1.5903 -1.5180  1.0325
  240MOL     H948287   2.058   7.414   3.452 -2.3021 -0.9182 -1.1534
  240MOL    H1048288   2.111   7.479   3.298  0.5660  2.6381 -0.8357
  240MOL    H1148289   2.234   7.858   3.578  0.5469 -1.1198  0.7125
  240MOL    C1248290   1.892   7.484   3.318  0.4387 -0.4684  0.3306
  240MOL    C1348291   1.876   7.573   3.190 -0.2501  0.0821  0.2305
  240MOL    C1448292   1.767   7.641   3.150  0.1369  0.2659 -0.4334
  240MOL    C1548293   1.737   7.686   3.017  0.4411 -0.3392 -0.6971
  240MOL    H1648294   1.866   7.380   3.304 -3.5019  0.0736  2.9171
  240MOL    H1748295   1.821   7.520   3.393 -0.3791 -2.1566  0.3719
  240MOL    H1848296   1.950   7.564   3.112  0.1398 -0.0958  0.6258
  240MOL    H1948297   1.684   7.647   3.219 -0.7445  0.5892 -1.5089
  240MOL    H2048298   1.693   7.600   2.967  0.4550  0.9515 -3.0353
  240MOL    H2148299   1.838   7.700   2.978  0.7457 -0.2267  0.1226
  240MOL    C2248300   1.652   7.812   3.017 -0.3728  0.3567  0.2769
  240MOL    C2348301   1.519   7.790   3.068  0.2901 -0.0903 -0.7603
  240MOL    C2448302   1.411   7.774   2.988 -0.4120 -0.4210  0.1461
  240MOL    C2548303   1.274   7.751   3.039  0.1374 -0.3949  0.0412
  240MOL    H2648304   1.700   7.902   3.057 -0.2198  2.1578 -3.6307
  240MOL    H2748305   1.643   7.831   2.910 -0.1695 -0.3517  0.1343
  240MOL    H2848306   1.515   7.800   3.175 -0.4038  0.3297 -0.8189
  240MOL    H2948307   1.420   7.779   2.880 -2.4149  3.8828  0.0691
  240MOL    H3048308   1.260   7.769   3.145 -1.6588  0.9093 -0.3948
  240MOL    H3148309   1.262   7.643   3.043 -2.9015 -0.1192 -0.6154
  240MOL    C3248310   1.167   7.815   2.950 -0.6198  0.6781  0.1785
  240MOL    C3348311   1.024   7.786   3.004  0.0869 -1.1961 -0.4204
  240MOL    C3448312   0.934   7.888   3.013 -0.5174 -1.0371  0.1209
  240MOL    C3548313   0.789   7.864   3.055 -0.2178  0.1668 -0.7819
  240MOL    H3648314   1.197   7.919   2.937  0.2772  0.3465 -0.4229
  240MOL    H3748315   1.167   7.767   2.852 -1.7290  2.5080 -0.7364
  240MOL    H3848316   0.982   7.688   3.022 -1.4261 -0.7145 -1.2909
  240MOL    H3948317   0.962   0.012   2.987 -0.2959 -1.3751 -0.9794
  240MOL    H4048318   0.787   7.759   3.082  0.8189  0.6728  1.3533
  240MOL    H4148319   0.723   7.894   2.973  0.9975  1.8445 -1.1797
  240MOL    C4248320   0.744   7.943   3.174  0.1090 -0.1613 -0.0720
  240MOL    C4348321   0.730   0.117   3.144 -0.3985  0.2778  0.0709
  240MOL    C4448322   0.630   0.179   3.081 -0.1520  0.0381  0.0257
  240MOL    C4548323   0.623   0.331   3.061 -0.1016 -0.2726  0.1766
  240MOL    H4648324   0.646   7.903   3.201  0.4232 -0.9644 -0.1102
  240MOL    H4748325   0.794   7.936   3.271  0.8545  0.1623 -0.4232
  240MOL    H4848326   0.815   0.172   3.184  0.5999 -0.0445 -1.5696
  240MOL    H4948327   0.548   0.117   3.045  0.5678 -2.1056  1.9234
  240MOL    H5048328   0.689   0.379   3.133  0.7448 -1.0550 -0.0561
  240MOL    H5148329   0.526   0.373   3.085 -0.5832 -1.1647 -0.2033
  240MOL    C5248330   0.676   0.370   2.920  0.2660  0.3173 -0.5545
  240MOL    C5348331   0.600   0.302   2.803  0.3804 -0.1019  0.1195
  240MOL    C5448332   0.485   0.339   2.751  0.1062  0.0349 -0.1968
  240MOL    C5548333   0.425   0.254   2.638 -0.5762  0.5740 -0.1698
  240MOL    H5648334   0.655   0.477   2.915 -0.4438  0.1240 -1.8894
  240MOL    H5748335   0.783   0.350   2.913 -0.2297 -2.5830 -0.5855
  240MOL    H5848336   0.649   0.214   2.765  0.5213  1.4210 -3.3762
  240MOL    H5948337   0.427   0.425   2.780 -0.8961 -0.4378 -0.7702
  240MOL    H6048338   0.339   0.204   2.683  0.1888 -1.7899 -1.2176
  240MOL    H6148339   0.481   0.162   2.619 -1.1264  0.1828  0.0551
  240MOL    C6248340   0.374   0.333   2.513  0.5381  0.0995 -0.1701
  240MOL    C6348341   0.353   0.235   2.404 -0.2032  0.2118  0.9333
  240MOL    C6448342   0.237   0.218   2.340 -0.1341  0.2232 -0.3782
  240MOL    C6548343   0.215   0.127   2.216  0.2567  0.0029  0.4437
  240MOL    H6648344   0.285   0.389   2.539 -0.4020 -0.3373 -2.3931
  240MOL    H6748345   0.457   0.398   2.485  0.5820 -0.0231 -0.3321
  240MOL    H6848346   0.444   0.184   2.377  0.3373  2.1887 -1.1139
  240MOL    H6948347   0.146   0.265   2.375  0.1991  0.8159 -0.2966
  240MOL    H7048348   0.131   0.060   2.236  0.5368  0.0411  1.8237
  240MOL    H7148349   0.305   0.075   2.186  0.3499  1.0110 -1.0481
  240MOL    C7248350   0.183   0.212   2.098 -0.3112 -0.4212  0.4444
  240MOL    C7348351   0.137   0.138   1.984  0.5088  0.3610  0.4444
  240MOL    C7448352   0.177   0.151   1.861 -0.4114  0.3069 -0.2833
  240MOL    C7548353   0.117   0.089   1.738 -0.6824 -0.0237 -0.1928
  240MOL    H7648354   0.105   0.287   2.108 -0.8888 -0.7431 -1.4570
  240MOL    H7748355   0.265   0.277   2.068 -0.1734 -1.3674 -1.3144
  240MOL    H7848356   0.043   0.089   2.005  0.3824  1.1728  1.8312
  240MOL    H7948357   0.262   0.217   1.849  1.3980 -1.4477  2.3069
  240MOL    H8048358   0.107   0.172   1.669  0.4294  1.1277  0.9860
  240MOL    H8148359   0.016   0.054   1.757 -1.0439  1.4873  0.7757
  240MOL    C8248360   0.207   7.961   1.671 -0.9091 -0.6534  0.2171
  240MOL    C8348361   0.145   7.905   1.543  0.1345 -1.0114 -0.3782
  240MOL    C8448362   0.145   7.778   1.507 -0.1146 -0.0403  0.4902
  240MOL    C8548363   0.077   7.732   1.381 -0.4782 -0.4370 -0.0842
  240MOL    H8648364   0.302   0.023   1.633 -0.6751 -1.9766 -0.5931
  240MOL    H8748365   0.228   7.874   1.734  3.3347  1.6995  2.2390
  240MOL    H8848366   0.105   0.013   1.489  1.1320 -0.7345 -0.6938
  240MOL    H8948367   0.184   7.692   1.558  1.5268  1.8298  2.4792
  240MOL    H9048368   0.151   7.686   1.314  0.5780  0.7945  0.2295
  240MOL    H9148369   0.036   7.813   1.322 -2.6035 -1.1088  0.4504
  240MOL    C9248370   7.938   7.637   1.413 -0.0783  0.0110 -0.1286
  240MOL    C9348371   7.839   7.705   1.502  1.4056  0.1723  0.5362
  240MOL    C9448372   7.706   7.705   1.478 -0.5291  0.4638 -0.9307
  240MOL    C9548373   7.600   7.776   1.563  0.2571 -0.4341  0.2090
  240MOL    H9648374   7.885   7.605   1.323  0.3986  2.0948 -1.1911
  240MOL    H9748375   7.970   7.549   1.468 -0.2203  0.6487  0.9940
  240MOL    H9848376   7.881   7.750   1.591  0.4477  1.0740  0.5506
  240MOL    H9948377   7.655   7.654   1.398  1.8472  0.4782 -2.5051
  240MOL   H10048378   7.635   7.791   1.665  0.7316 -0.6483  0.0782
  240MOL   H10148379   7.513   7.710   1.573  0.3823 -0.6457 -0.1093
  240MOL   C10248380   7.568   7.918   1.512  0.2158  0.3043  0.1747
  240MOL   C10348381   7.689   0.029   1.493  0.1155  0.7462 -0.3076
  240MOL   C10448382   7.727   0.078   1.374  0.4946  0.4482 -0.2306
  240MOL   C10548383   7.856   0.145   1.341  0.0892 -0.8928 -0.1365
  240MOL   H10648384   7.517   7.910   1.416  0.5346 -3.6689  0.2305
  240MOL   H10748385   7.503   7.976   1.577  0.2563  2.8752 -2.0068
  240MOL   H10848386   7.731   0.047   1.591 -0.4787  2.5144 -0.3500
  240MOL   H10948387   7.662   0.058   1.290 -0.4515 -0.7012  0.7619
  240MOL   H11048388   7.902   0.090   1.260  0.0041 -1.3744  0.1428
  240MOL   H11148389   7.927   0.138   1.423 -0.6003  1.2463  0.6986
  240MOL   C11248390   7.826   0.293   1.302 -0.2396  0.0164  0.5063
  240MOL   C11348391   7.954   0.368   1.287  0.4570  0.3841 -0.3317
  240MOL   C11448392   0.039   0.439   1.382  0.4278 -0.4946 -0.0580
  240MOL   C11548393   0.176   0.495   1.371  0.1173 -0.2848  0.3657
  240MOL   H11648394   7.774   0.297   1.206 -2.4851  0.1533  1.6824
  240MOL   H11748395   7.766   0.339   1.381 -1.4850  2.1004 -1.5829
  240MOL   H11848396   0.021   0.356   1.189  1.1131 -0.2521  0.0425
  240MOL   H11948397   7.971   0.457   1.478  1.4242 -1.0730  0.5276
  240MOL   H12048398   0.166   0.595   1.327 -0.0089  0.2048  1.4917
  240MOL   H12148399   0.236   0.430   1.308  2.3289  1.3930  0.6615
  240MOL   C12248400   0.245   0.502   1.504  0.3175  1.0707 -0.3124
  240MOL   C12348401   0.385   0.548   1.498  0.0267 -0.5399  0.3275
  240MOL   C12448402   0.421   0.664   1.551 -1.0478 -0.1121 -0.9105
  240MOL   C12548403   0.561   0.716   1.548  0.2298 -0.0994  0.5804
  240MOL   H12648404   0.184   0.552   1.580 -1.6596 -0.5800 -0.7436
  240MOL   H12748405   0.247   0.401   1.547 -0.9621  0.3866 -1.7930
  240MOL   H12848406   0.459   0.491   1.445 -1.1987 -1.7431 -0.1037
  240MOL   H12948407   0.353   0.734   1.599 -0.4426  0.3512 -0.7127
  240MOL   H13048408   0.628   0.648   1.496  1.1871 -0.1772  1.8654
  240MOL   H13148409   0.604   0.724   1.648  1.0841  2.9571  0.0350
  240MOL   C13248410   0.585   0.847   1.474 -0.7700  0.1862 -0.0502
  240MOL   C13348411   0.539   0.970   1.544 -0.1194  0.3880  0.0410
  240MOL   C13448412   0.529   1.087   1.484 -0.1850 -0.4514  0.0877
  240MOL   C13548413   0.492   1.218   1.552  0.1297 -0.1484 -0.7224
  240MOL   H13648414   0.693   0.849   1.471 -0.8151  1.3120 -1.4228
  240MOL   H13748415   0.549   0.839   1.371  1.8544  0.5672 -1.0214
  240MOL   H13848416   0.519   0.950   1.648 -1.1816 -1.4962 -0.4870
  240MOL   H13948417   0.536   1.081   1.377  1.5113 -0.6231  0.1882
  240MOL   H14048418   0.567   1.294   1.528  0.7653 -0.6418 -0.2805
  240MOL   H14148419   0.505   1.202   1.659 -2.1178 -0.1663 -0.4153
  240MOL   C14248420   0.350   1.272   1.521 -0.5386 -0.0533  0.0608
  240MOL   C14348421   0.330   1.403   1.591 -0.8108  0.1794 -0.4713
  240MOL   C14448422   0.312   1.518   1.525 -0.0070 -0.0679 -0.1968
  240MOL   C14548423   0.286   1.645   1.599  0.3948 -0.1060  0.1657
  240MOL   H14648424   0.341   1.288   1.414 -0.9500  0.7137  0.2090
  240MOL   H14748425   0.274   1.195   1.537  0.1959 -1.1450 -1.6182
  240MOL   H14848426   0.332   1.393   1.698  2.1745  0.2430 -0.4959
  240MOL   H14948427   0.309   1.515   1.417  0.2076 -1.6066 -0.1703
  240MOL   H15048428   0.360   1.722   1.576  0.3631 -0.2471 -0.4217
  240MOL   H15148429   0.307   1.626   1.704 -0.5989  0.5081  0.4802
  240MOL   C15248430   0.148   1.708   1.576  0.4313 -0.2267 -0.5622
  240MOL   C15348431   0.147   1.770   1.441 -0.4695  0.7230 -0.4093
  240MOL   C15448432   0.152   1.897   1.404  0.1556  0.0713 -0.1276
  240MOL   C15548433   0.158   1.947   1.262 -0.1214  0.2429  1.0875
  240MOL   H15648434   0.058   1.646   1.578  0.7578 -0.6894 -0.0340
  240MOL   H15748435   0.135   1.788   1.650  1.0777  1.1404 -1.8981
  240MOL   H15848436   0.161   1.692   1.367 -0.5586  0.3260 -0.0120
  240MOL   H15948437   0.158   1.973   1.481  0.8095 -1.8371  1.7344
  240MOL   H16048438   0.242   1.909   1.205 -1.1289 -2.2375  1.1935
  240MOL   H16148439   0.180   2.054   1.266  0.9723  0.2476 -3.0655
  240MOL   C16248440   0.028   1.919   1.183 -0.0107 -0.3829  0.1032
  240MOL   C16348441   0.013   1.968   1.032  0.3430 -0.4311 -0.1289
  240MOL   C16448442   7.890   2.039   0.987  0.5859 -0.5267 -0.2447
  240MOL   C16548443   7.857   2.074   0.851  0.5070 -0.5819  0.1152
  240MOL   H16648444   0.021   1.811   1.173  1.5976 -0.4375 -0.5881
  240MOL   H16748445   7.915   1.956   1.233  0.4071  1.5016 -0.4795
  240MOL   H16848446   0.099   1.934   0.975  0.8544 -0.1393  0.4631
  240MOL   H16948447   7.808   2.046   1.058  0.1861  3.0201 -0.9597
  240MOL   H17048448   7.769   2.017   0.820  0.9627 -0.5809 -1.2113
  240MOL   H17148449   7.940   2.041   0.788  1.4940 -0.8109  1.5293
  240MOL   C17248450   7.835   2.229   0.831 -0.1118  0.2252  0.9606
  240MOL   C17348451   7.827   2.265   0.689 -0.2112  0.1096  0.2788
  240MOL   C17448452   7.908   2.351   0.628 -0.1936 -0.4540  0.8118
  240MOL   C17548453   7.910   2.390   0.480 -0.1494  0.0431  0.3378
  240MOL   H17648454   7.745   2.265   0.882  0.5432  1.7787  1.0293
  240MOL   H17748455   7.910   2.288   0.883  0.3922  1.1865 -0.8288
  240MOL   H17848456   7.744   2.213   0.645  0.0160 -0.3466  0.3921
  240MOL   H17948457   0.014   2.390   0.685 -0.4385 -1.2929  1.7680
  240MOL   H18048458   7.912   2.498   0.463  2.3659 -0.2268 -1.2643
  240MOL   H18148459   7.815   2.355   0.439 -1.1926  1.0002  1.9072
  240MOL   C18248460   0.042   2.321   0.403  0.7279  0.2243  0.2783
  240MOL   C18348461   0.065   2.389   0.265  0.0381 -0.7220 -0.5314
  240MOL   C18448462   0.187   2.425   0.221  0.9681  0.1697  0.2076
  240MOL   C18548463   0.217   2.494   0.087  0.1443 -0.1477  0.0639
  240MOL   H18648464   0.136   2.320   0.458  0.8231  1.1322  0.1258
  240MOL   H18748465   0.005   2.220   0.385  0.0005  0.7224 -1.1143
  240MOL   H18848466   7.954   2.408   0.205 -0.3617  1.3786  0.6607
  240MOL   H18948467   0.272   2.415   0.287  1.0689  0.6245  0.1487
  240MOL   H19048468   0.286   2.577   0.101  1.4248 -0.6709 -2.6909
  240MOL   H19148469   0.124   2.528   0.041  0.3523 -0.8190 -0.8636
  240MOL   C19248470   0.278   2.389   7.970  0.3925  0.3250  0.6789
  240MOL   C19348471   0.348   2.461   7.858  0.1738  0.4031  0.3674
  240MOL   C19448472   0.476   2.438   7.820 -0.2293 -0.5728  0.0422
  240MOL   C19548473   0.548   2.510   7.701  0.3149 -0.2939 -1.0482
  240MOL   H19648474   0.349   2.327   0.049  0.4306  0.4879  0.8127
  240MOL   H19748475   0.202   2.322   7.931  0.3097  1.3178 -0.9036
  240MOL   H19848476   0.288   2.542   7.820 -1.2715 -0.2161  1.3236
  240MOL   H19948477   0.531   2.356   7.864 -1.1486 -1.6630 -0.8195
  240MOL   H20048478   0.482   2.554   7.626  0.3443  0.0533 -0.8748
  240MOL   H20148479   0.598   2.430   7.647 -0.6978 -1.8559  0.2591
  240MOL   H20248480   0.623   2.587   7.717 -0.7900  0.7753 -0.8665
  241MOL     C148481   0.315   0.429   5.347 -0.3107  0.1530 -0.0783
  241MOL     C248482   0.183   0.395   5.278  0.0764  0.9402  0.6115
  241MOL     C348483   0.153   0.275   5.237 -0.4375  0.1265  0.9034
  241MOL     C448484   0.017   0.253   5.178  0.0847  0.4960  0.5256
  241MOL     H548485   0.300   0.491   5.435  0.3210  0.1726  0.0227
  241MOL     H648486   0.369   0.485   5.271 -1.4032  3.2430  1.3648
  241MOL     H748487   0.104   0.467   5.262  1.2077  2.2940  1.0111
  241MOL     H848488   0.223   0.192   5.238 -2.9566 -2.1086 -1.4298
  241MOL     H948489   7.919   0.332   5.181 -0.4526  0.0303 -0.2721
  241MOL    H1048490   7.947   0.175   5.239 -0.6102 -2.0191 -3.0270
  241MOL    H1148491   0.367   0.336   5.373 -0.6601 -0.1494 -0.4643
  241MOL    C1248492   0.031   0.196   5.035 -0.0460  0.1382  1.2640
  241MOL    C1348493   0.003   0.298   4.929  0.1962 -0.9277 -0.2914
  241MOL    C1448494   7.904   0.279   4.812  0.3958 -0.3629 -0.1982
  241MOL    C1548495   7.871   0.390   4.720  0.4423  0.0185 -0.1010
  241MOL    H1648496   0.131   0.155   5.019 -0.7176 -0.8891 -0.3445
  241MOL    H1748497   7.936   0.116   5.017 -0.3423  1.0601 -1.9203
  241MOL    H1848498   0.044   0.395   4.950  2.6801 -1.4927 -2.2161
  241MOL    H1948499   7.863   0.182   4.790  0.3958  0.1352 -2.6215
  241MOL    H2048500   7.912   0.357   4.624  0.5765 -0.4767  0.1283
  241MOL    H2148501   7.928   0.478   4.751 -0.2964 -0.2662  2.1533
  241MOL    C2248502   7.722   0.412   4.703  0.4429 -1.0619  0.4489
  241MOL    C2348503   7.692   0.549   4.640  0.4057 -0.5348  0.5718
  241MOL    C2448504   7.626   0.579   4.525  0.6092 -0.2454 -0.1004
  241MOL    C2548505   7.620   0.723   4.479  0.5111  0.3782  0.1785
  241MOL    H2648506   7.671   0.328   4.657 -1.4093 -0.4260  1.2809
  241MOL    H2748507   7.683   0.430   4.804  0.2195 -2.7223  0.6702
  241MOL    H2848508   7.741   0.628   4.694 -0.2519 -0.0994  0.5400
  241MOL    H2948509   7.584   0.495   4.472  0.1492 -0.1698  0.1427
  241MOL    H3048510   7.651   0.790   4.558  0.1940 -0.6120  1.1618
  241MOL    H3148511   7.516   0.752   4.464  0.2207 -0.3666  0.6959
  241MOL    C3248512   7.706   0.744   4.351 -0.7900  0.5511  0.2418
  241MOL    C3348513   7.684   0.891   4.305  0.4454 -0.8142 -0.1293
  241MOL    C3448514   7.764   0.991   4.323 -0.6522  0.4151 -0.4089
  241MOL    C3548515   7.724   1.129   4.280 -0.7753 -0.2229 -0.0098
  241MOL    H3648516   7.803   0.721   4.395 -0.9637  0.7160  0.7074
  241MOL    H3748517   7.677   0.670   4.276 -1.2743  1.4553 -0.4717
  241MOL    H3848518   7.588   0.915   4.262  1.3931  0.0813 -1.7507
  241MOL    H3948519   7.861   0.978   4.369  0.1208  1.8416 -1.5712
  241MOL    H4048520   7.744   1.195   4.364 -0.4769 -0.7086  0.3011
  241MOL    H4148521   7.621   1.149   4.249 -0.2993  0.5251 -1.1566
  241MOL    C4248522   7.813   1.178   4.165 -0.4613  0.5494  0.5685
  241MOL    C4348523   7.771   1.129   4.028 -0.2212  0.7856 -0.1987
  241MOL    C4448524   7.748   1.215   3.925  0.9090  0.0900  0.2173
  241MOL    C4548525   7.684   1.165   3.792  0.9020 -0.4324 -0.2906
  241MOL    H4648526   7.805   1.286   4.169 -1.5158  0.5095 -0.2748
  241MOL    H4748527   7.917   1.151   4.187 -0.3086  0.4406 -0.2612
  241MOL    H4848528   7.748   1.025   4.014 -0.6980  0.6864  1.2711
  241MOL    H4948529   7.765   1.322   3.930  0.8588  0.1331 -0.4506
  241MOL    H5048530   7.607   1.091   3.815  0.0096 -0.4351 -3.1068
  241MOL    H5148531   7.772   1.117   3.748  0.1052 -0.1281 -2.2998
  241MOL    C5248532   7.627   1.281   3.716  0.0308 -0.3347 -0.3713
  241MOL    C5348533   7.550   1.258   3.592  0.7749 -0.1768 -0.5362
  241MOL    C5448534   7.440   1.321   3.554  0.8759 -0.2531  0.1938
  241MOL    C5548535   7.381   1.317   3.418 -0.1154  0.0803  0.4410
  241MOL    H5648536   7.556   1.333   3.780 -0.0485  0.4420 -1.0818
  241MOL    H5748537   7.709   1.347   3.687 -0.1453  0.4251  0.7869
  241MOL    H5848538   7.597   1.192   3.521  1.0851 -0.3834 -0.1444
  241MOL    H5948539   7.401   1.387   3.630  0.5663  0.4035 -0.5238
  241MOL    H6048540   7.454   1.276   3.348  0.5707  0.9176  0.6551
  241MOL    H6148541   7.359   1.416   3.378 -1.5246  0.1661  1.3728
  241MOL    C6248542   7.243   1.240   3.423 -0.7654  0.6081  0.0888
  241MOL    C6348543   7.184   1.229   3.281  0.1138 -0.3855 -0.6188
  241MOL    C6448544   7.097   1.320   3.236 -0.2713 -0.3423  0.1303
  241MOL    C6548545   7.029   1.320   3.096 -0.3353 -0.1065 -0.0247
  241MOL    H6648546   7.250   1.140   3.466  0.4700  0.1860 -1.0497
  241MOL    H6748547   7.176   1.310   3.474 -0.3449  0.6565  0.5833
  241MOL    H6848548   7.220   1.153   3.213 -2.1848 -1.1415 -1.0438
  241MOL    H6948549   7.048   1.390   3.302  2.1188  2.7172 -1.1852
  241MOL    H7048550   7.091   1.267   3.025 -0.7622 -1.0568  0.3108
  241MOL    H7148551   7.034   1.427   3.074  1.9754 -0.2860 -0.4154
  241MOL    C7248552   6.892   1.252   3.100 -0.0868 -0.2609 -0.2674
  241MOL    C7348553   6.836   1.247   2.960 -0.7098  0.5192 -0.0852
  241MOL    C7448554   6.781   1.143   2.909 -0.2006  0.5358  0.8595
  241MOL    C7548555   6.732   1.139   2.760 -0.3330 -0.5027  0.5786
  241MOL    H7648556   6.884   1.152   3.142 -0.5640 -0.4115 -0.7096
  241MOL    H7748557   6.831   1.327   3.151  0.5913  0.4254 -0.4563
  241MOL    H7848558   6.866   1.334   2.904  2.3334 -0.3358  0.1648
  241MOL    H7948559   6.768   1.059   2.975 -1.4328 -1.0738 -1.3739
  241MOL    H8048560   6.684   1.233   2.733 -0.3796 -0.5947  0.3364
  241MOL    H8148561   6.655   1.061   2.760 -2.8315  1.8832  1.1500
  241MOL    C8248562   6.832   1.091   2.661  0.3648  0.4481 -0.4096
  241MOL    C8348563   6.774   1.059   2.525 -0.1777  0.6283 -0.3664
  241MOL    C8448564   6.643   1.063   2.494  0.0380  0.1181 -0.2679
  241MOL    C8548565   6.575   1.026   2.363  0.7922  0.7147 -0.3471
  241MOL    H8648566   6.918   1.157   2.650  0.0335  1.0089  0.3446
  241MOL    H8748567   6.868   0.998   2.706 -3.0792 -1.2483 -1.0313
  241MOL    H8848568   6.842   1.027   2.447  0.6804  1.4716  0.0141
  241MOL    H8948569   6.575   1.104   2.567 -0.5335 -0.6684 -0.3521
  241MOL    H9048570   6.650   1.040   2.285 -1.0103  0.3534 -2.1958
  241MOL    H9148571   6.495   1.095   2.336  0.4934  1.0763  1.3676
  241MOL    C9248572   6.528   0.877   2.352 -0.2102 -0.0898 -0.2496
  241MOL    C9348573   6.460   0.866   2.217  0.3756  0.7379  0.3321
  241MOL    C9448574   6.524   0.816   2.108 -0.0314 -0.6359 -0.1996
  241MOL    C9548575   6.461   0.818   1.971  0.0129  0.2953  0.0288
  241MOL    H9648576   6.606   0.802   2.365  0.6676  1.2000  2.3059
  241MOL    H9748577   6.453   0.866   2.431 -1.0363 -0.4661 -1.0692
  241MOL    H9848578   6.365   0.915   2.201  0.5594  0.3844 -2.0115
  241MOL    H9948579   6.624   0.776   2.119  0.1166 -0.4145 -0.7104
  241MOL   H10048580   6.508   0.900   1.916  2.0763 -0.6742  0.3061
  241MOL   H10148581   6.354   0.839   1.976 -0.7053 -2.7151 -1.6025
  241MOL   C10248582   6.477   0.682   1.887  0.5489  0.3121  0.1131
  241MOL   C10348583   6.406   0.687   1.747  0.2185  0.0861  0.3025
  241MOL   C10448584   6.480   0.670   1.632  0.7457 -0.7513 -0.3527
  241MOL   C10548585   6.434   0.672   1.483  0.2216 -0.1219 -0.2107
  241MOL   H10648586   6.584   0.675   1.868  0.8361  0.3474  1.6486
  241MOL   H10748587   6.451   0.593   1.943  0.4558  0.2471 -0.0331
  241MOL   H10848588   6.300   0.705   1.746 -0.0506 -1.4770 -0.7932
  241MOL   H10948589   6.584   0.641   1.640  0.6247 -1.1981 -0.3538
  241MOL   H11048590   6.495   0.747   1.432  0.6244 -0.7527 -0.6599
  241MOL   H11148591   6.332   0.707   1.470  0.1300  0.0218  0.8925
  241MOL   C11248592   6.465   0.545   1.406 -0.1002  0.8914  0.2314
  241MOL   C11348593   6.419   0.544   1.259 -0.7077 -0.0232  0.2011
  241MOL   C11448594   6.405   0.655   1.185 -0.5137 -0.0233 -0.0172
  241MOL   C11548595   6.360   0.653   1.044  0.4121  0.1291  0.9676
  241MOL   H11648596   6.572   0.526   1.414  0.0772  0.2808 -3.1839
  241MOL   H11748597   6.406   0.467   1.453  0.6272  0.0438 -0.2583
  241MOL   H11848598   6.393   0.451   1.211 -0.1182 -0.6433  1.0598
  241MOL   H11948599   6.426   0.754   1.223  2.9060 -0.9817  0.8068
  241MOL   H12048600   6.412   0.569   0.999 -0.0735 -0.0609  0.7659
  241MOL   H12148601   6.395   0.745   0.996 -0.8780  0.4884  0.7008
  241MOL   C12248602   6.212   0.632   1.033  0.0728  0.3829 -0.6162
  241MOL   C12348603   6.179   0.589   0.896  0.1518  0.0038  0.1560
  241MOL   C12448604   6.082   0.643   0.814  0.0586  0.7983 -0.9277
  241MOL   C12548605   6.036   0.588   0.677 -0.0868 -0.1336  0.0635
  241MOL   H12648606   6.163   0.561   1.099 -1.0625 -1.1296 -2.9969
  241MOL   H12748607   6.163   0.729   1.043  1.4676  0.8015  2.5839
  241MOL   H12848608   6.234   0.504   0.858 -0.3524 -0.4431  0.4074
  241MOL   H12948609   6.011   0.713   0.855  0.8828  0.9845  0.2020
  241MOL   H13048610   6.125   0.579   0.616  0.2542  0.8602  0.4025
  241MOL   H13148611   5.974   0.662   0.626 -1.7274 -0.0761  2.0840
  241MOL   C13248612   5.963   0.452   0.694  1.0188  0.5846 -0.3234
  241MOL   C13348613   5.927   0.411   0.554 -0.1332 -0.1052  0.2195
  241MOL   C13448614   5.980   0.297   0.502 -0.1085 -0.4091 -0.0802
  241MOL   C13548615   5.929   0.236   0.373  0.1452  0.3395 -0.0619
  241MOL   H13648616   6.028   0.386   0.751  1.0484  1.1201  0.2753
  241MOL   H13748617   5.874   0.471   0.755  2.2487  1.5721  1.2046
  241MOL   H13848618   5.843   0.458   0.505 -0.0220 -0.7293 -0.5857
  241MOL   H13948619   6.059   0.246   0.555  0.1558  1.6379  1.5561
  241MOL   H14048620   5.840   0.294   0.350 -0.1045 -0.0486 -0.0713
  241MOL   H14148621   5.902   0.132   0.391  0.7580  0.4710  1.6878
  241MOL   C14248622   6.027   0.258   0.254 -0.1223 -0.1067 -0.3546
  241MOL   C14348623   5.974   0.190   0.135  0.5589  0.0258  0.8213
  241MOL   C14448624   6.035   0.088   0.080  0.0911  0.4137  0.3062
  241MOL   C14548625   5.976   0.019   7.932  0.3188  0.2390  0.4893
  241MOL   H14648626   6.052   0.364   0.249  0.5273 -0.3367 -2.3758
  241MOL   H14748627   6.125   0.218   0.280 -0.3842 -1.3945 -1.3224
  241MOL   H14848628   5.883   0.232   0.095 -0.5281 -1.4337  1.7135
  241MOL   H14948629   6.123   0.044   0.125 -1.2703 -0.7734  1.8955
  241MOL   H15048630   6.039   7.914   7.897  1.3423  1.3612 -0.3104
  241MOL   H15148631   5.967   0.103   7.863 -0.6363 -0.3123 -0.0743
  241MOL   C15248632   5.842   7.933   7.957  0.5799  0.1313 -0.1912
  241MOL   C15348633   5.787   7.882   7.824  0.0808 -0.6015 -0.3048
  241MOL   C15448634   5.748   7.753   7.803 -0.1229  0.4863  0.1405
  241MOL   C15548635   5.703   7.690   7.673 -0.4599 -0.9568 -0.2947
  241MOL   H15648636   5.821   7.861   0.059  0.2937 -0.6512 -0.9649
  241MOL   H15748637   5.758   0.025   7.972 -1.2066 -2.0211  0.0323
  241MOL   H15848638   5.773   7.945   7.737 -1.1596  0.0708  0.3627
  241MOL   H15948639   5.765   7.695   7.893 -3.2358  0.4159  0.7385
  241MOL   H16048640   5.611   7.635   7.694 -1.1991  0.2234 -0.3882
  241MOL   H16148641   5.779   7.616   7.648  0.2466 -0.7632  1.2160
  241MOL   C16248642   5.692   7.791   7.554  0.1679  0.0921  0.1697
  241MOL   C16348643   5.655   7.748   7.414  0.3568  0.6078  0.2620
  241MOL   C16448644   5.564   7.654   7.371  0.1703  0.0296 -0.3743
  241MOL   C16548645   5.532   7.628   7.222 -0.5820  0.2744  0.9739
  241MOL   H16648646   5.623   7.870   7.583  1.0838  1.3310 -0.9778
  241MOL   H16748647   5.788   7.844   7.558 -0.4644  1.1415  2.7003
  241MOL   H16848648   5.719   7.775   7.331  0.0951 -1.1932 -0.5471
  241MOL   H16948649   5.499   7.600   7.438 -0.4235  0.6142 -0.4701
  241MOL   H17048650   5.569   7.715   7.169  0.6021 -0.2430  0.9186
  241MOL   H17148651   5.426   7.607   7.207 -0.0981 -1.3884 -0.3385
  241MOL   C17248652   5.611   7.507   7.164 -0.6724  0.4713  0.0464
  241MOL   C17348653   5.583   7.484   7.015  0.6291  0.4039  0.6945
  241MOL   C17448654   5.501   7.390   6.971 -0.2586  0.6048 -0.1119
  241MOL   C17548655   5.468   7.358   6.829 -0.0734 -0.1105 -0.5538
  241MOL   H17648656   5.716   7.531   7.175 -1.1367  3.5867 -1.9333
  241MOL   H17748657   5.595   7.423   7.232 -0.2395  1.0484  0.8727
  241MOL   H17848658   5.635   7.543   6.941  1.7346  0.2923  1.3754
  241MOL   H17948659   5.455   7.320   7.040 -1.9263  1.1499 -0.6392
  241MOL   H18048660   5.491   7.449   6.774 -0.9400  0.6368  0.2934
  241MOL   H18148661   5.363   7.345   6.803 -0.7586 -2.1232  2.9371
  241MOL   C18248662   5.548   7.248   6.771 -0.1593 -0.0939  0.2513
  241MOL   C18348663   5.536   7.249   6.623 -0.2342  0.0100  0.5840
  241MOL   C18448664   5.546   7.138   6.552  0.2809  0.0190  0.5088
  241MOL   C18548665   5.539   7.125   6.402  0.3781  0.5475  1.0441
  241MOL   H18648666   5.654   7.259   6.794 -0.1607  2.2952 -0.6996
  241MOL   H18748667   5.516   7.148   6.803 -0.0293  0.0703  0.9069
  241MOL   H18848668   5.535   7.347   6.579 -3.3771  0.3334  1.2348
  241MOL   H18948669   5.555   7.043   6.602  1.1292 -1.1028 -1.7049
  241MOL   H19048670   5.641   7.100   6.372 -0.9433 -1.8721 -1.6517
  241MOL   H19148671   5.530   7.225   6.360  1.4518 -0.4063 -1.6055
  241MOL   C19248672   5.434   7.031   6.348  0.1056 -0.0744  0.0236
  241MOL   C19348673   5.464   6.884   6.376 -0.8466  0.1831 -0.2445
  241MOL   C19448674   5.430   6.776   6.300  0.4213  0.0317 -0.4024
  241MOL   C19548675   5.480   6.644   6.337  0.2448 -0.1615  0.1979
  241MOL   H19648676   5.333   7.055   6.380 -0.5682  0.4365 -2.3766
  241MOL   H19748677   5.451   7.035   6.240 -2.5551  1.7215 -0.3864
  241MOL   H19848678   5.526   6.869   6.463  0.7854 -1.6268 -1.6830
  241MOL   H19948679   5.363   6.794   6.217  0.5006  0.1675 -0.4370
  241MOL   H20048680   5.487   6.593   6.241  1.7848 -0.3880  0.4100
  241MOL   H20148681   5.410   6.584   6.396 -0.8758  0.8486 -0.0914
  241MOL   H20248682   5.579   6.634   6.383  0.0518  2.2754  1.1991
  242MOL     C148683   6.718   6.342   3.460 -0.2349  0.4781 -0.6497
  242MOL     C248684   6.638   6.469   3.460  0.4566 -0.8614  0.1192
  242MOL     C348685   6.665   6.572   3.380 -0.1091  0.4836  0.4211
  242MOL     C448686   6.590   6.702   3.380 -0.5922  0.1088 -0.7749
  242MOL     H548687   6.667   6.268   3.398 -0.7855 -2.1912  2.8125
  242MOL     H648688   6.727   6.298   3.560 -0.9402  1.2545 -0.2430
  242MOL     H748689   6.572   6.486   3.544  0.0313 -4.2040  0.5548
  242MOL     H848690   6.738   6.563   3.301 -1.0010  2.2747 -0.6363
  242MOL     H948691   6.656   6.774   3.429 -3.2216  0.8293  1.8795
  242MOL    H1048692   6.499   6.700   3.440 -0.5098  2.5169 -0.5084
  242MOL    H1148693   6.815   6.355   3.411 -1.3279  1.6016 -2.5598
  242MOL    C1248694   6.556   6.749   3.228  0.3099 -0.2350  0.0111
  242MOL    C1348695   6.498   6.888   3.239  0.5101  0.2763 -0.4208
  242MOL    C1448696   6.555   7.001   3.203 -0.4140  0.0483 -0.4141
  242MOL    C1548697   6.486   7.136   3.232 -0.3681 -0.0590 -0.3278
  242MOL    H1648698   6.654   6.754   3.180  0.2872  0.7010  0.0610
  242MOL    H1748699   6.494   6.675   3.176  1.5101 -2.2556  1.3840
  242MOL    H1848700   6.402   6.893   3.288  1.6862 -0.5894  2.0598
  242MOL    H1948701   6.657   7.001   3.166  0.7237  0.2322  2.5429
  242MOL    H2048702   6.526   7.175   3.326 -1.5513 -0.9809  0.5764
  242MOL    H2148703   6.389   7.113   3.276 -0.5782 -2.3410 -1.8918
  242MOL    C2248704   6.471   7.235   3.110  0.3333  0.0482 -0.2259
  242MOL    C2348705   6.404   7.377   3.136 -0.7403 -0.1785  0.0972
  242MOL    C2448706   6.471   7.489   3.108  0.4282 -0.4818 -0.6865
  242MOL    C2548707   6.403   7.630   3.121  0.0713  0.0169 -0.1460
  242MOL    H2648708   6.567   7.255   3.062  1.1226  0.1229  1.3268
  242MOL    H2748709   6.407   7.193   3.032 -0.3903  0.6055  0.0569
  242MOL    H2848710   6.302   7.379   3.173 -0.3155 -0.1954  1.2892
  242MOL    H2948711   6.572   7.487   3.070  0.0922  1.5120 -1.7376
  242MOL    H3048712   6.308   7.609   3.169 -0.5886  1.2271 -0.9051
  242MOL    H3148713   6.373   7.667   3.023  0.7850  0.9777 -0.0097
  242MOL    C3248714   6.496   7.735   3.196 -0.2339 -0.1385 -0.4074
  242MOL    C3348715   6.603   7.801   3.120 -0.4775 -0.5088 -0.1492
  242MOL    C3448716   6.606   7.822   2.989  0.1975 -0.2662  0.3115
  242MOL    C3548717   6.720   7.870   2.905 -0.4680  0.4433  0.1123
  242MOL    H3648718   6.438   7.818   3.236  0.2854  0.2489 -0.4609
  242MOL    H3748719   6.549   7.683   3.276 -1.7631  2.5894  2.5129
  242MOL    H3848720   6.687   7.838   3.178 -1.4265 -0.6305  1.3337
  242MOL    H3948721   6.523   7.792   2.927  1.1357  0.0610 -1.1361
  242MOL    H4048722   6.758   7.793   2.837  1.3833  0.4241  1.1541
  242MOL    H4148723   6.788   7.921   2.972 -1.5743  1.3940  0.5250
  242MOL    C4248724   6.667   7.974   2.807 -0.4824  1.0817 -0.0851
  242MOL    C4348725   6.774   0.083   2.739 -0.0460  0.5414 -0.8774
  242MOL    C4448726   6.772   0.219   2.733 -0.5562 -0.6159 -0.6501
  242MOL    C4548727   6.881   0.296   2.654 -0.7245  0.0529  0.6762
  242MOL    H4648728   6.604   7.935   2.727  0.4142  1.1530 -0.8430
  242MOL    H4748729   6.597   0.066   2.854 -1.0336  0.5263 -0.0978
  242MOL    H4848730   6.859   0.026   2.704  1.3793  0.9969  1.7306
  242MOL    H4948731   6.684   0.269   2.772 -1.2103 -1.5544 -0.9115
  242MOL    H5048732   6.911   0.373   2.725  3.1546 -0.8798  0.1345
  242MOL    H5148733   6.823   0.339   2.572 -0.0511  2.5921  1.4723
  242MOL    C5248734   7.003   0.213   2.597  0.2276  0.0597 -0.7624
  242MOL    C5348735   7.119   0.309   2.567  0.3747  0.2289  0.2070
  242MOL    C5448736   7.156   0.361   2.446 -0.6370  1.1249  1.2145
  242MOL    C5548737   7.264   0.464   2.419 -0.7220 -0.0684  0.4072
  242MOL    H5648738   7.040   0.138   2.667  1.5862  0.1028 -1.4235
  242MOL    H5748739   6.967   0.163   2.507 -1.5800  1.9834 -1.1457
  242MOL    H5848740   7.178   0.346   2.650  2.6958 -1.3299 -0.7103
  242MOL    H5948741   7.104   0.333   2.355 -1.3167 -0.6469  2.1211
  242MOL    H6048742   7.278   0.511   2.516 -1.6800 -0.5556  0.7900
  242MOL    H6148743   7.223   0.534   2.347 -0.9945 -0.1318  0.4987
  242MOL    C6248744   7.395   0.399   2.360  0.5232 -0.4581 -0.2398
  242MOL    C6348745   7.511   0.498   2.350 -0.2646  0.0943 -0.3370
  242MOL    C6448746   7.635   0.466   2.382  0.2508  0.3047 -0.0779
  242MOL    C6548747   7.752   0.566   2.372  0.4282 -0.5036 -0.2535
  242MOL    H6648748   7.441   0.311   2.404  0.9075  0.0806  0.4557
  242MOL    H6748749   7.359   0.379   2.259  0.0517  1.0252 -0.3782
  242MOL    H6848750   7.487   0.592   2.304  0.9872 -0.6336 -2.5370
  242MOL    H6948751   7.658   0.367   2.419  0.3008 -0.2441 -1.5589
  242MOL    H7048752   7.802   0.563   2.469  2.0488  0.7099 -1.0376
  242MOL    H7148753   7.717   0.668   2.361  0.0454 -0.5320  0.6055
  242MOL    C7248754   7.840   0.531   2.255 -0.1222 -0.2162  0.3381
  242MOL    C7348755   0.008   0.568   2.261  0.8621 -0.6881 -0.0816
  242MOL    C7448756   0.085   0.582   2.371  0.2837  0.4872 -0.0058
  242MOL    C7548757   0.232   0.614   2.366 -0.0665  0.3835  0.3548
  242MOL    H7648758   7.836   0.422   2.257 -0.9417 -0.1817  0.9232
  242MOL    H7748759   7.798   0.575   2.165  3.6086 -1.7080 -2.2716
  242MOL    H7848760   0.056   0.572   2.164 -0.8391 -1.6153 -0.9938
  242MOL    H7948761   0.040   0.556   2.465  1.7225 -0.2944  0.4721
  242MOL    H8048762   0.255   0.673   2.278  1.8526 -1.1668 -0.2272
  242MOL    H8148763   0.299   0.528   2.358 -0.7356 -0.2572  1.4834
  242MOL    C8248764   0.275   0.678   2.490 -0.5108  0.6151  0.0908
  242MOL    C8348765   0.424   0.688   2.485  0.4993  0.0319 -0.8672
  242MOL    C8448766   0.506   0.679   2.589  0.1462  0.6619  0.4341
  242MOL    C8548767   0.659   0.694   2.578 -0.1769 -0.6386  0.3183
  242MOL    H8648768   0.214   0.767   2.507 -1.9435 -0.4607  0.6351
  242MOL    H8748769   0.254   0.622   2.580  1.5798 -1.0137 -0.4017
  242MOL    H8848770   0.467   0.715   2.389 -0.2970 -1.1390 -1.5531
  242MOL    H8948771   0.471   0.664   2.690 -0.8629 -1.2367 -0.1732
  242MOL    H9048772   0.695   0.736   2.484  1.7642 -2.3450  0.2561
  242MOL    H9148773   0.698   0.593   2.592  1.5835  0.3394  2.8804
  242MOL    C9248774   0.725   0.779   2.695  0.0858 -0.8084 -0.0215
  242MOL    C9348775   0.877   0.783   2.691 -0.3566  0.4279 -0.4470
  242MOL    C9448776   0.959   0.706   2.766 -0.2088 -0.1754 -0.5282
  242MOL    C9548777   1.109   0.716   2.776 -0.0652  0.2235  0.7062
  242MOL    H9648778   0.679   0.878   2.690  0.7827 -0.4550  0.4612
  242MOL    H9748779   0.711   0.740   2.796  0.3434 -0.8179  0.0118
  242MOL    H9848780   0.917   0.859   2.625 -1.3507  0.3365 -1.1804
  242MOL    H9948781   0.916   0.647   2.845  1.2117  0.1258  0.4867
  242MOL   H10048782   1.150   0.620   2.746 -0.4740  0.7210 -1.5264
  242MOL   H10148783   1.139   0.736   2.879  1.8346  3.2909 -0.3922
  242MOL   C10248784   1.181   0.814   2.677  0.7247  0.1834  0.2050
  242MOL   C10348785   1.147   0.957   2.696  0.1693  0.0329  0.2929
  242MOL   C10448786   1.109   1.040   2.597  0.0861 -0.1482  0.1287
  242MOL   C10548787   1.087   1.190   2.604  0.2420  0.4470 -1.1716
  242MOL   H10648788   1.288   0.793   2.682  0.6357 -0.9193 -1.7296
  242MOL   H10748789   1.159   0.789   2.573  0.5519  0.5841  0.1433
  242MOL   H10848790   1.157   1.008   2.790  4.6778 -1.0851  0.5204
  242MOL   H10948791   1.086   0.998   2.501  1.6364 -1.3654  0.2751
  242MOL   H11048792   1.096   1.222   2.707 -0.9555 -1.3310 -0.4805
  242MOL   H11148793   0.982   1.208   2.580 -0.0839 -0.3516 -0.3955
  242MOL   C11248794   1.184   1.272   2.519  0.5458  0.3698 -0.6527
  242MOL   C11348795   1.317   1.242   2.563  0.2216  0.6015 -0.2338
  242MOL   C11448796   1.404   1.333   2.618 -0.5842  0.0917  0.4112
  242MOL   C11548797   1.549   1.288   2.667  0.4730 -0.6295  0.9747
  242MOL   H11648798   1.170   1.241   2.416 -2.8535 -1.5146  0.3029
  242MOL   H11748799   1.162   1.378   2.527 -3.7984 -0.6436  3.0580
  242MOL   H11848800   1.354   1.142   2.544  0.7700  0.7994 -0.2092
  242MOL   H11948801   1.363   1.432   2.631 -1.4893 -0.1679 -0.3454
  242MOL   H12048802   1.545   1.181   2.687 -1.3977 -0.9007 -0.7585
  242MOL   H12148803   1.565   1.332   2.765  2.6227 -1.2174  0.9251
  242MOL   C12248804   1.673   1.304   2.572  0.1018 -0.6020  0.5979
  242MOL   C12348805   1.799   1.228   2.626  0.6643 -1.0097  0.0209
  242MOL   C12448806   1.924   1.281   2.618  0.2868 -0.5844 -0.2763
  242MOL   C12548807   2.055   1.220   2.652 -0.3642 -0.8443 -0.4632
  242MOL   H12648808   1.662   1.263   2.471  2.5355  0.2380 -0.0361
  242MOL   H12748809   1.692   1.410   2.555  1.9138 -1.0972 -0.5685
  242MOL   H12848810   1.794   1.123   2.650  1.2627 -1.2747 -0.9923
  242MOL   H12948811   1.935   1.382   2.581 -1.7382 -0.8596 -1.6925
  242MOL   H13048812   2.047   1.121   2.698 -0.8365 -0.3476  0.5206
  242MOL   H13148813   2.105   1.282   2.727 -1.8590  0.1727 -0.2985
  242MOL   C13248814   2.147   1.226   2.523  0.2155 -0.1634  0.2525
  242MOL   C13348815   2.088   1.136   2.415 -0.4506  0.2080  0.0374
  242MOL   C13448816   2.163   1.062   2.329  0.1761  0.3716  0.0932
  242MOL   C13548817   2.096   0.980   2.220 -0.3040  0.0257 -0.0148
  242MOL   H13648818   2.142   1.330   2.490 -0.8888 -0.6670 -1.2791
  242MOL   H13748819   2.253   1.208   2.538  0.8881  1.3513 -2.3829
  242MOL   H13848820   1.981   1.132   2.400 -0.5288  0.7133  0.4558
  242MOL   H13948821   2.270   1.050   2.331  0.0931 -0.3924 -0.0398
  242MOL   H14048822   2.148   0.996   2.126 -0.1299 -4.5226 -0.8096
  242MOL   H14148823   1.996   1.014   2.193  0.3066  1.6844 -0.2011
  242MOL   C14248824   2.098   0.831   2.261  0.9412 -0.0109  0.3960
  242MOL   C14348825   2.066   0.738   2.149  0.2719 -0.8999 -0.4894
  242MOL   C14448826   2.158   0.661   2.085 -0.1450 -0.4165 -0.1216
  242MOL   C14548827   2.124   0.561   1.975 -0.1009 -0.1160 -0.5725
  242MOL   H14648828   2.194   0.802   2.304  1.0401 -1.9435 -1.0633
  242MOL   H14748829   2.029   0.821   2.344  1.1075  0.2950  0.5728
  242MOL   H14848830   1.961   0.736   2.124 -0.0224  2.2008  0.2537
  242MOL   H14948831   2.262   0.679   2.105 -0.1829 -0.1350 -0.1750
  242MOL   H15048832   2.184   0.584   1.887 -0.8420 -0.7465 -1.2525
  242MOL   H15148833   2.021   0.581   1.944  0.5141  0.8024 -2.0819
  242MOL   C15248834   2.150   0.424   2.028 -0.2726 -0.7776  0.0069
  242MOL   C15348835   2.099   0.324   1.929 -0.7594  0.9988  0.0767
  242MOL   C15448836   1.983   0.256   1.933 -0.4414  0.4623 -0.1478
  242MOL   C15548837   1.943   0.156   1.823  0.6617 -0.2899 -0.2316
  242MOL   H15648838   2.258   0.415   2.041  0.2381  0.8761 -2.7785
  242MOL   H15748839   2.097   0.395   2.119  0.4076 -0.7572  0.4191
  242MOL   H15848840   2.160   0.313   1.841  0.4932  1.3756  0.8899
  242MOL   H15948841   1.925   0.263   2.023  0.7981  1.5750  0.5885
  242MOL   H16048842   1.934   0.053   1.858  0.7205 -0.3865 -0.4998
  242MOL   H16148843   2.020   0.162   1.747  0.5206  0.2591 -0.3298
  242MOL   C16248844   1.813   0.214   1.756  0.3001 -0.1726  0.9503
  242MOL   C16348845   1.779   0.143   1.625  0.2897 -0.0289  0.1922
  242MOL   C16448846   1.853   0.060   1.545 -0.6721 -0.4761  0.6150
  242MOL   C16548847   1.791   7.960   1.430  0.0929  0.0749  0.4468
  242MOL   H16648848   1.732   0.213   1.828  1.4598  0.3308  2.2853
  242MOL   H16748849   1.823   0.320   1.734  1.3561 -1.0741 -3.4630
  242MOL   H16848850   1.681   0.167   1.588  0.1663 -1.7970 -0.6728
  242MOL   H16948851   1.955   0.039   1.572 -0.9972 -1.4890  1.0992
  242MOL   H17048852   1.684   0.003   1.427 -0.2436 -1.5439  1.4236
  242MOL   H17148853   1.796   7.854   1.455  2.2712  0.0922  0.1925
  242MOL   C17248854   1.852   0.003   1.292 -0.2649 -0.0649 -0.1827
  242MOL   C17348855   1.812   7.881   1.190  0.2320  0.3275 -1.1214
  242MOL   C17448856   1.884   7.781   1.142  0.1217 -0.1402  0.0874
  242MOL   C17548857   1.830   7.674   1.041 -0.2781  0.2737 -0.1627
  242MOL   H17648858   1.831   0.105   1.258  0.3990  0.4992  1.0795
  242MOL   H17748859   1.960   0.000   1.307 -0.3504 -2.5371  0.1183
  242MOL   H17848860   1.710   7.897   1.159 -0.3186  2.4954  1.5856
  242MOL   H17948861   1.986   7.774   1.176  0.3821 -2.1429 -1.0189
  242MOL   H18048862   1.724   7.692   1.022 -1.1678 -1.6392  2.5339
  242MOL   H18148863   1.825   7.573   1.083 -0.2317 -1.1706 -3.4519
  242MOL   C18248864   1.901   7.682   0.903 -0.0560 -0.2291 -0.2048
  242MOL   C18348865   2.043   7.632   0.916  0.5845 -0.1825  0.0077
  242MOL   C18448866   2.091   7.540   0.835 -0.0840  0.0366 -0.2319
  242MOL   C18548867   2.244   7.491   0.836  0.0086 -0.2081 -0.2673
  242MOL   H18648868   1.839   7.642   0.823  0.4942  3.1804 -2.4596
  242MOL   H18748869   1.908   7.790   0.884  1.2579 -0.1576  0.6708
  242MOL   H18848870   2.098   7.676   0.998  0.0139 -1.0861  0.8895
  242MOL   H18948871   2.031   7.490   0.761 -1.6866  2.8280 -0.8984
  242MOL   H19048872   2.241   7.382   0.841 -1.0881 -0.2556 -1.5084
  242MOL   H19148873   2.295   7.533   0.923 -0.0719 -1.4226  0.3693
  242MOL   C19248874   2.319   7.549   0.724 -1.2129  0.4913 -0.3163
  242MOL   C19348875   2.467   7.508   0.729  0.2225  0.6101  0.2600
  242MOL   C19448876   2.555   7.573   0.801 -0.1767 -0.7711  0.0890
  242MOL   C19548877   2.703   7.539   0.803  0.2458  0.1543  0.2741
  242MOL   H19648878   2.283   7.517   0.626 -1.9259  2.2965 -0.6556
  242MOL   H19748879   2.308   7.657   0.723  0.4472  0.6879 -2.1917
  242MOL   H19848880   2.494   7.428   0.662 -0.1745  1.3037 -0.7387
  242MOL   H19948881   2.528   7.662   0.856 -0.6827  0.6484 -2.3669
  242MOL   H20048882   2.768   7.625   0.791 -1.4205  1.1828 -1.6984
  242MOL   H20148883   2.717   7.451   0.740 -1.0153  1.1517 -1.4231
  242MOL   H20248884   2.713   7.507   0.907 -0.8951 -0.7227  0.1279
  243MOL     C148885   3.641   5.152   3.411 -0.1864 -0.3515  0.5888
  243MOL     C248886   3.694   5.296   3.392  0.9455  0.2488 -0.1833
  243MOL     C348887   3.648   5.398   3.465  0.2143  0.2580 -0.1761
  243MOL     C448888   3.696   5.538   3.429 -0.4950  0.4826  0.0175
  243MOL     H548889   3.700   5.074   3.364  1.8849  1.8527 -0.6254
  243MOL     H648890   3.541   5.150   3.369 -0.2794 -3.1234  0.8917
  243MOL     H748891   3.759   5.322   3.309  1.4910  2.0881  0.8084
  243MOL     H848892   3.576   5.382   3.543  0.6455  1.0623  0.3949
  243MOL     H948893   3.778   5.526   3.358  0.2479 -0.0441  0.9576
  243MOL    H1048894   3.741   5.587   3.515  0.9384  0.2896 -0.5949
  243MOL    H1148895   3.638   5.133   3.518 -1.9643  0.4479  0.6950
  243MOL    C1248896   3.585   5.639   3.386  0.8248  0.3256  0.5425
  243MOL    C1348897   3.636   5.757   3.310 -0.2055 -0.2835 -0.1961
  243MOL    C1448898   3.598   5.882   3.345  0.0989  0.0349 -0.3079
  243MOL    C1548899   3.662   6.009   3.298 -0.4750  0.3938 -0.0041
  243MOL    H1648900   3.509   5.590   3.325  1.5534 -1.3854  0.9707
  243MOL    H1748901   3.534   5.680   3.473  1.3691  1.3010  0.4034
  243MOL    H1848902   3.719   5.742   3.242 -1.2997 -0.7574 -1.4442
  243MOL    H1948903   3.509   5.891   3.406  0.7220  0.2838  0.5846
  243MOL    H2048904   3.753   5.988   3.240 -1.4972  1.8896 -2.2257
  243MOL    H2148905   3.693   6.068   3.384 -0.2841  0.0736  0.1482
  243MOL    C2248906   3.570   6.101   3.214 -0.2176  0.0885  0.0143
  243MOL    C2348907   3.451   6.163   3.291 -0.4404  0.0969  0.4779
  243MOL    C2448908   3.422   6.293   3.298 -0.3791 -0.0749  0.5178
  243MOL    C2548909   3.301   6.346   3.366  0.3696 -0.6801  0.5872
  243MOL    H2648910   3.624   6.188   3.174  1.0500  0.1165  1.7423
  243MOL    H2748911   3.519   6.052   3.131  0.7643  2.4847 -2.1185
  243MOL    H2848912   3.376   6.093   3.324 -0.3132  0.0659  0.7039
  243MOL    H2948913   3.485   6.365   3.247  0.9171 -0.9921  0.8165
  243MOL    H3048914   3.228   6.280   3.413 -1.3733  0.6324 -0.1860
  243MOL    H3148915   3.232   6.399   3.299  1.2904  1.3129  1.1682
  243MOL    C3248916   3.340   6.454   3.467 -0.1702 -0.1755  0.3904
  243MOL    C3348917   3.355   6.387   3.608 -0.1820  0.2786  0.3591
  243MOL    C3448918   3.473   6.335   3.661 -0.0365  0.0399  0.1183
  243MOL    C3548919   3.485   6.283   3.800 -0.6004 -0.2471  0.3590
  243MOL    H3648920   3.432   6.502   3.434 -1.2152  1.7736  0.2430
  243MOL    H3748921   3.252   6.517   3.474 -1.3488 -1.7805  0.3822
  243MOL    H3848922   3.265   6.380   3.668 -0.2137  0.2531  0.3085
  243MOL    H3948923   3.565   6.341   3.604 -1.9321 -0.1439 -3.1411
  243MOL    H4048924   3.397   6.301   3.862 -0.9861 -1.4183  0.1510
  243MOL    H4148925   3.566   6.344   3.841  0.5605 -0.0589 -2.1132
  243MOL    C4248926   3.507   6.128   3.809  0.3338 -0.3455 -0.8463
  243MOL    C4348927   3.587   6.095   3.927 -0.3200 -0.0999  0.4000
  243MOL    C4448928   3.550   6.008   4.028  0.4455  0.1376  0.5502
  243MOL    C4548929   3.636   5.961   4.142 -0.4182  0.7289  0.4384
  243MOL    H4648930   3.410   6.078   3.806 -0.0000 -0.0229  2.6744
  243MOL    H4748931   3.567   6.094   3.725 -0.7113  0.3441 -1.8912
  243MOL    H4848932   3.683   6.143   3.941 -1.0912  1.2471  1.2339
  243MOL    H4948933   3.454   5.958   4.021 -1.3022  3.0877  2.3990
  243MOL    H5048934   3.590   5.986   4.237 -0.4803 -1.1822  0.9295
  243MOL    H5148935   3.729   6.013   4.121 -0.2340  0.5031  0.6914
  243MOL    C5248936   3.670   5.814   4.135 -0.0175  0.2219 -0.3652
  243MOL    C5348937   3.763   5.768   4.238  0.0856  0.1075 -0.7450
  243MOL    C5448938   3.733   5.701   4.353 -1.0488  0.0614 -0.2779
  243MOL    C5548939   3.835   5.682   4.470 -0.0682 -0.1431 -0.2520
  243MOL    H5648940   3.580   5.759   4.163 -0.3183  0.2310 -1.3049
  243MOL    H5748941   3.703   5.787   4.034  0.0718  0.2103 -0.3328
  243MOL    H5848942   3.863   5.807   4.223 -0.0992 -0.1634 -2.7818
  243MOL    H5948943   3.637   5.662   4.382 -0.3006  0.4683  2.9162
  243MOL    H6048944   3.811   5.741   4.559  0.3362 -0.3711  0.0083
  243MOL    H6148945   3.934   5.718   4.442  1.4935 -2.7551  1.6637
  243MOL    C6248946   3.855   5.536   4.506 -0.0239 -0.0187  0.1552
  243MOL    C6348947   3.899   5.450   4.389  0.3705  0.1165 -0.1888
  243MOL    C6448948   3.820   5.345   4.347  0.2413  0.6508 -0.0463
  243MOL    C6548949   3.860   5.252   4.229  0.2750  0.4031  0.2694
  243MOL    H6648950   3.912   5.520   4.598  1.8983 -1.7001 -1.2810
  243MOL    H6748951   3.754   5.506   4.533  0.6073 -1.2304  1.2822
  243MOL    H6848952   3.994   5.466   4.341  0.4075 -3.9947 -1.7566
  243MOL    H6948953   3.740   5.311   4.410  0.7888 -1.1854 -0.3002
  243MOL    H7048954   3.888   5.160   4.281 -2.5434 -0.3259  0.5869
  243MOL    H7148955   3.948   5.291   4.178  0.1300  3.7843  2.4458
  243MOL    C7248956   3.743   5.212   4.143  0.4716 -0.5645  0.0264
  243MOL    C7348957   3.689   5.314   4.055  0.5448  0.5067 -0.4467
  243MOL    C7448958   3.691   5.308   3.922 -0.4552 -0.7141 -0.4592
  243MOL    C7548959   3.644   5.421   3.835  0.7251  0.6368  0.1235
  243MOL    H7648960   3.769   5.119   4.091 -0.9536 -0.8624 -0.1808
  243MOL    H7748961   3.653   5.200   4.203  0.6176  2.1398  0.8391
  243MOL    H7848962   3.637   5.392   4.109 -0.0172  0.3913 -0.8170
  243MOL    H7948963   3.733   5.227   3.864  1.4090 -0.0530 -0.0456
  243MOL    H8048964   3.579   5.400   3.751  3.0926 -2.2616 -1.0618
  243MOL    H8148965   3.739   5.433   3.783  0.7266 -0.0278 -0.0186
  243MOL    C8248966   3.602   5.563   3.883 -0.0711 -0.1551  0.2139
  243MOL    C8348967   3.504   5.616   3.779  0.2056 -0.2977 -0.6377
  243MOL    C8448968   3.370   5.592   3.791 -0.9162  0.4515  0.0833
  243MOL    C8548969   3.283   5.652   3.684 -0.0428 -0.6488  0.0982
  243MOL    H8648970   3.553   5.543   3.979  1.1877 -0.7729  0.7440
  243MOL    H8748971   3.676   5.640   3.904 -0.6458  0.9738 -1.8153
  243MOL    H8848972   3.557   5.658   3.694  0.8014  0.2937  0.0186
  243MOL    H8948973   3.323   5.556   3.881  0.9734 -1.4163  0.3727
  243MOL    H9048974   3.219   5.576   3.638  1.9134 -2.0120 -0.4498
  243MOL    H9148975   3.354   5.676   3.605 -0.6951  0.2656 -0.2132
  243MOL    C9248976   3.202   5.771   3.725  0.3584  0.1647  0.2320
  243MOL    C9348977   3.124   5.823   3.611  0.3127  0.4003 -0.1301
  243MOL    C9448978   3.129   5.948   3.562 -0.6378 -0.3870  0.0711
  243MOL    C9548979   3.047   6.011   3.453  0.2313  0.7060 -0.1384
  243MOL    H9648980   3.120   5.744   3.792  0.8929  1.4644  1.4306
  243MOL    H9748981   3.269   5.841   3.775  1.4846  0.3223 -1.4600
  243MOL    H9848982   3.056   5.759   3.558 -0.0598  1.7946 -1.3992
  243MOL    H9948983   3.179   6.028   3.615 -0.8221  1.2264 -2.1210
  243MOL   H10048984   3.124   6.033   3.380  1.7014 -0.2236  1.1186
  243MOL   H10148985   3.013   6.114   3.465  0.4374  0.7181  0.3754
  243MOL   C10248986   2.939   5.923   3.385  0.2555 -0.2904 -0.1911
  243MOL   C10348987   2.798   5.931   3.442 -0.4050  0.0208  0.5097
  243MOL   C10448988   2.771   5.988   3.563  0.2283 -0.4540  0.2874
  243MOL   C10548989   2.635   5.994   3.629 -0.5151 -0.3351  0.0884
  243MOL   H10648990   2.924   5.954   3.282  1.6034  0.1721 -0.2553
  243MOL   H10748991   2.980   5.823   3.380  1.7094  0.3513 -1.5829
  243MOL   H10848992   2.725   5.892   3.372  0.5321 -0.7143 -0.0570
  243MOL   H10948993   2.850   6.032   3.622  0.8883  0.7235 -1.4266
  243MOL   H11048994   2.563   5.960   3.554  0.3499 -0.2173 -0.7956
  243MOL   H11148995   2.610   6.095   3.660  1.0622 -0.7048  2.7353
  243MOL   C11248996   2.622   5.895   3.750  0.2807  1.2071 -0.5132
  243MOL   C11348997   2.640   5.747   3.712  0.3879 -0.1613  0.1748
  243MOL   C11448998   2.575   5.645   3.768  0.1245  0.6291 -0.1558
  243MOL   C11548999   2.613   5.505   3.728  0.2771  0.2285 -0.3229
  243MOL   H11649000   2.694   5.907   3.831 -1.1905 -0.5354  1.1083
  243MOL   H11749001   2.526   5.900   3.802 -0.2878  0.1163 -1.4247
  243MOL   H11849002   2.711   5.732   3.632  0.6979 -0.3401  0.4799
  243MOL   H11949003   2.513   5.659   3.856 -0.9924  1.5061 -1.0662
  243MOL   H12049004   2.704   5.486   3.785 -0.3455 -0.6370  0.3927
  243MOL   H12149005   2.628   5.494   3.620 -2.6198 -0.0833 -0.7348
  243MOL   C12249006   2.511   5.396   3.775 -0.8130 -0.0273 -0.4489
  243MOL   C12349007   2.390   5.404   3.687 -0.5272 -0.4299  0.6088
  243MOL   C12449008   2.334   5.305   3.624 -1.2727 -0.8816 -0.1736
  243MOL   C12549009   2.192   5.291   3.569  0.3186 -0.0233  0.2157
  243MOL   H12649010   2.557   5.300   3.751  0.2209  0.3210  0.1269
  243MOL   H12749011   2.480   5.397   3.880  0.9840  0.8320  0.0804
  243MOL   H12849012   2.346   5.503   3.684  1.2674  0.3599 -0.3077
  243MOL   H12949013   2.383   5.211   3.643 -0.8071 -0.0725  2.8664
  243MOL   H13049014   2.145   5.389   3.567 -3.0119 -1.5121  1.1790
  243MOL   H13149015   2.134   5.219   3.628  0.2438 -1.7207 -1.8618
  243MOL   C13249016   2.195   5.250   3.421 -0.0284  0.0813  0.1095
  243MOL   C13349017   2.067   5.243   3.354  0.2665 -0.0898  0.0373
  243MOL   C13449018   2.039   5.315   3.247 -0.1250  0.1545 -0.6238
  243MOL   C13549019   1.911   5.315   3.163  0.0356  0.1435 -0.0551
  243MOL   H13649020   2.262   5.312   3.361  0.8142 -2.3036 -1.4561
  243MOL   H13749021   2.242   5.152   3.419  1.3075  0.7145 -0.2129
  243MOL   H13849022   1.985   5.184   3.393  0.7588 -0.7406  0.0878
  243MOL   H13949023   2.111   5.381   3.203 -0.1533  0.6292  0.0338
  243MOL   H14049024   1.838   5.244   3.203 -0.4591  0.0450 -1.1404
  243MOL   H14149025   1.944   5.270   3.070  1.3634 -0.0215  0.4826
  243MOL   C14249026   1.846   5.452   3.156 -0.2120  0.7237 -0.0866
  243MOL   C14349027   1.735   5.451   3.060  0.0509  0.6444  0.1515
  243MOL   C14449028   1.607   5.435   3.093 -0.2381  0.3568  1.2381
  243MOL   C14549029   1.498   5.443   2.987 -0.1716 -0.5296  0.6056
  243MOL   H14649030   1.799   5.473   3.252  1.7119 -0.8344  1.2451
  243MOL   H14749031   1.918   5.528   3.127  0.1370  0.1974 -0.6092
  243MOL   H14849032   1.756   5.469   2.956 -0.4911  0.1538 -0.0460
  243MOL   H14949033   1.570   5.424   3.194  0.8500 -1.7859  1.4242
  243MOL   H15049034   1.530   5.507   2.905  0.2412  1.0562  1.9818
  243MOL   H15149035   1.417   5.486   3.045  2.4254 -0.6996  4.6180
  243MOL   C15249036   1.467   5.301   2.921 -0.4459 -0.1221 -1.0742
  243MOL   C15349037   1.377   5.209   3.012 -0.6979  0.3100  0.8091
  243MOL   C15449038   1.255   5.168   2.979 -0.1525  0.3409  0.1620
  243MOL   C15549039   1.163   5.070   3.057 -0.2139 -0.0736  0.1425
  243MOL   H15649040   1.402   5.330   2.838 -1.9869  1.0632  0.5160
  243MOL   H15749041   1.563   5.263   2.885  0.4565 -0.4566  1.5973
  243MOL   H15849042   1.410   5.185   3.112  0.4982 -0.7987  0.1587
  243MOL   H15949043   1.216   5.209   2.886  1.7999 -0.1893 -0.9245
  243MOL   H16049044   1.155   4.977   3.001 -0.1377 -0.0947  0.1653
  243MOL   H16149045   1.069   5.121   3.075 -0.1055  0.3452 -0.4295
  243MOL   C16249046   1.227   5.012   3.187  0.6878  0.3227 -0.4955
  243MOL   C16349047   1.201   5.108   3.304  0.2650  0.2435 -0.1146
  243MOL   C16449048   1.304   5.157   3.380  0.1722  0.7666  0.3570
  243MOL   C16549049   1.286   5.248   3.500 -0.3311  0.2358 -0.2320
  243MOL   H16649050   1.189   4.914   3.214  0.3287  0.7469  0.5882
  243MOL   H16749051   1.333   4.994   3.173  1.2109  1.8439  1.1650
  243MOL   H16849052   1.095   5.119   3.324  0.4096  2.0561 -0.2545
  243MOL   H16949053   1.408   5.146   3.354 -0.3915 -2.8706 -0.6690
  243MOL   H17049054   1.218   5.192   3.564 -2.0675  3.6833  1.0980
  243MOL   H17149055   1.232   5.338   3.470  1.0687  1.1365 -0.0911
  243MOL   C17249056   1.424   5.268   3.563  0.0677  0.7006 -0.1646
  243MOL   C17349057   1.413   5.338   3.695 -0.0372  0.3940  0.0790
  243MOL   C17449058   1.464   5.464   3.710  0.4242  0.2805 -0.0502
  243MOL   C17549059   1.467   5.531   3.843 -0.0559  0.3176 -0.1645
  243MOL   H17649060   1.478   5.175   3.581  0.8538  1.1477 -0.1715
  243MOL   H17749061   1.492   5.323   3.497  0.0328  1.6992  0.6245
  243MOL   H17849062   1.356   5.290   3.773 -2.6048  0.0827 -1.8988
  243MOL   H17949063   1.520   5.513   3.632  1.6566 -0.2476  0.4939
  243MOL   H18049064   1.378   5.491   3.892  0.0708  0.0339 -0.1629
  243MOL   H18149065   1.459   5.640   3.840  0.1112  0.3086 -1.1782
  243MOL   C18249066   1.593   5.515   3.925 -0.3658 -0.2432  0.1518
  243MOL   C18349067   1.587   5.579   4.063  0.0882  0.4085 -0.2181
  243MOL   C18449068   1.610   5.525   4.184 -0.5135  0.3239 -0.3186
  243MOL   C18549069   1.581   5.604   4.306  0.0090 -0.1119 -0.5929
  243MOL   H18649070   1.619   5.410   3.937 -3.2156 -1.0444 -0.1793
  243MOL   H18749071   1.668   5.575   3.873  0.2956 -1.0754  0.1362
  243MOL   H18849072   1.552   5.681   4.062  0.6136  0.5897 -0.2666
  243MOL   H18949073   1.660   5.430   4.200  1.3837  1.5052  0.9794
  243MOL   H19049074   1.653   5.685   4.319  0.5580 -0.6978  0.0714
  243MOL   H19149075   1.606   5.536   4.388  1.8798  1.3151  0.0461
  243MOL   C19249076   1.426   5.637   4.311  0.8847  0.1068  0.0360
  243MOL   C19349077   1.388   5.682   4.452 -0.1068  0.0733  0.3301
  243MOL   C19449078   1.341   5.805   4.478  0.7372  0.0858  0.1429
  243MOL   C19549079   1.305   5.866   4.615  0.1513 -0.3875  0.1162
  243MOL   H19649080   1.411   5.710   4.232  1.2299 -1.9587 -2.0186
  243MOL   H19749081   1.364   5.555   4.274 -0.9513  3.0457 -3.7321
  243MOL   H19849082   1.422   5.618   4.531 -0.0746 -2.2784 -1.5345
  243MOL   H19949083   1.310   5.868   4.396 -2.5912  0.6107  1.7438
  243MOL   H20049084   1.333   5.794   4.692 -1.1394  0.5387  1.4855
  243MOL   H20149085   1.199   5.889   4.625  0.0705 -0.3904 -0.7518
  243MOL   H20249086   1.359   5.960   4.625 -1.9640  1.1040 -1.9500
  244MOL     C149087   0.475   6.728   2.193  0.2280  0.9973 -0.8627
  244MOL     C249088   0.613   6.690   2.231  0.3644  0.1597  0.2215
  244MOL     C349089   0.675   6.734   2.340  0.6246  0.1247  0.5297
  244MOL     C449090   0.809   6.685   2.380 -0.3034 -0.3715 -0.0892
  244MOL     H549091   0.466   6.831   2.160 -1.7960  0.5860 -1.6358
  244MOL     H649092   0.418   6.736   2.285  0.0601  1.9438 -1.0476
  244MOL     H749093   0.668   6.621   2.169 -2.4183 -1.2048 -0.8483
  244MOL     H849094   0.630   6.808   2.405 -1.6656 -0.1270 -0.7254
  244MOL     H949095   0.866   6.778   2.377 -1.7616  0.6238  1.7909
  244MOL    H1049096   0.842   6.617   2.301  2.4058 -0.4305  1.0361
  244MOL    H1149097   0.430   6.661   2.119 -2.2699 -1.1383  2.4841
  244MOL    C1249098   0.804   6.608   2.506 -0.1720  0.1039  0.2019
  244MOL    C1349099   0.746   6.679   2.624 -0.0819 -0.7057  0.2719
  244MOL    C1449100   0.817   6.708   2.734 -0.4743  0.3658 -0.1650
  244MOL    C1549101   0.779   6.797   2.852 -0.6608  0.2424  0.1738
  244MOL    H1649102   0.756   6.514   2.478 -1.0436  0.9576 -1.2169
  244MOL    H1749103   0.905   6.591   2.541 -0.5753  1.6943  2.2928
  244MOL    H1849104   0.643   6.709   2.614  0.1915  0.1843  0.1304
  244MOL    H1949105   0.922   6.684   2.735  0.0720  2.5048 -1.2200
  244MOL    H2049106   0.805   6.747   2.946  1.9238  0.9610 -0.1370
  244MOL    H2149107   0.670   6.800   2.856 -0.7441  0.1676 -1.6602
  244MOL    C2249108   0.848   6.930   2.846 -0.4688 -0.1499  0.5318
  244MOL    C2349109   0.986   6.933   2.889 -0.2465 -0.3079 -0.3099
  244MOL    C2449110   1.081   6.975   2.802 -0.8305  0.3158 -0.6762
  244MOL    C2549111   1.220   7.007   2.843  0.3819  0.0395  0.0972
  244MOL    H2649112   0.837   6.979   2.749  0.3680  0.6638  0.8414
  244MOL    H2749113   0.807   6.997   2.922 -1.3423 -0.4220  0.3079
  244MOL    H2849114   0.995   6.930   2.996 -3.6412  1.5844  0.1070
  244MOL    H2949115   1.052   6.993   2.700 -1.8016  0.8516 -0.3212
  244MOL    H3049116   1.261   6.945   2.922  1.0000 -1.1134 -1.1177
  244MOL    H3149117   1.206   7.102   2.895 -0.4070  0.1546 -0.3171
  244MOL    C3249118   1.308   7.006   2.718  0.1667 -0.5787  0.5601
  244MOL    C3349119   1.317   6.868   2.651  0.3510 -0.5144 -0.1470
  244MOL    C3449120   1.230   6.827   2.555  0.1129  0.6457  0.4693
  244MOL    C3549121   1.256   6.703   2.471  0.7232 -0.2190  0.6969
  244MOL    H3649122   1.269   7.073   2.641  0.0230 -0.9214  0.3347
  244MOL    H3749123   1.406   7.042   2.752  0.8293 -1.0332 -0.8572
  244MOL    H3849124   1.408   6.816   2.675  0.7172  0.3290  0.3165
  244MOL    H3949125   1.141   6.886   2.535  0.0070  1.2814  2.7046
  244MOL    H4049126   1.321   6.730   2.389 -0.2976  1.6166  0.4660
  244MOL    H4149127   1.158   6.677   2.431  1.9819 -1.0996 -1.8570
  244MOL    C4249128   1.320   6.581   2.545 -0.4387  0.2266  0.2880
  244MOL    C4349129   1.240   6.541   2.665  0.6121 -0.1299 -0.4316
  244MOL    C4449130   1.278   6.496   2.785 -0.4790  0.7018  0.8956
  244MOL    C4549131   1.183   6.479   2.904 -0.1589 -0.0471  0.1474
  244MOL    H4649132   1.313   6.506   2.467  0.8292  1.3130 -0.8882
  244MOL    H4749133   1.424   6.601   2.567 -0.5343  1.7396 -0.5355
  244MOL    H4849134   1.134   6.559   2.651  0.3207  0.3437  2.2887
  244MOL    H4949135   1.383   6.489   2.808 -0.5918  1.5513  1.6982
  244MOL    H5049136   1.230   6.404   2.967 -0.3957  0.0863  0.4839
  244MOL    H5149137   1.090   6.435   2.867  0.4562  0.3856 -1.9872
  244MOL    C5249138   1.172   6.613   2.974  0.7865  0.0755  0.3625
  244MOL    C5349139   1.044   6.629   3.060  0.8222 -0.1586  0.1867
  244MOL    C5449140   1.047   6.690   3.179  0.3175  0.3264  0.0316
  244MOL    C5549141   0.924   6.712   3.257 -0.1347  1.0408 -0.2922
  244MOL    H5649142   1.258   6.620   3.041 -0.6324  1.4695  2.0973
  244MOL    H5749143   1.167   6.691   2.898  0.0833  0.9006  1.2392
  244MOL    H5849144   0.957   6.589   3.011 -0.0343 -0.0496  1.5966
  244MOL    H5949145   1.140   6.723   3.222  1.5679 -3.2930  0.2681
  244MOL    H6049146   0.871   6.784   3.194 -2.1192 -1.3555 -1.4518
  244MOL    H6149147   0.941   6.757   3.354  0.8553  0.2115 -0.0696
  244MOL    C6249148   0.842   6.579   3.277  0.1252 -0.1605 -0.3281
  244MOL    C6349149   0.725   6.588   3.372 -0.5589  0.2176 -0.1956
  244MOL    C6449150   0.674   6.705   3.419 -0.5009  0.0879 -0.6709
  244MOL    C6549151   0.560   6.706   3.520 -0.1656  0.0984  0.6020
  244MOL    H6649152   0.806   6.545   3.179  1.6338  0.4018 -1.0886
  244MOL    H6749153   0.901   6.502   3.327  0.8070  1.0697  0.7915
  244MOL    H6849154   0.680   6.495   3.403 -0.2158 -0.6023 -2.0997
  244MOL    H6949155   0.700   6.804   3.385  0.2212 -0.2741 -1.2039
  244MOL    H7049156   0.601   6.765   3.603  3.1042 -2.3389  0.8130
  244MOL    H7149157   0.538   6.607   3.560 -0.7607 -0.4260 -0.9751
  244MOL    C7249158   0.420   6.764   3.483  0.4230 -0.0967  0.0630
  244MOL    C7349159   0.376   6.737   3.342 -0.6655 -0.0040 -0.0211
  244MOL    C7449160   0.256   6.708   3.296 -0.3031 -0.3995 -0.7818
  244MOL    C7549161   0.229   6.684   3.150  0.3787 -0.0880 -1.2256
  244MOL    H7649162   0.347   6.722   3.552  0.0979 -0.4311 -0.4768
  244MOL    H7749163   0.404   6.870   3.501  1.3928  0.1801 -0.6505
  244MOL    H7849164   0.456   6.747   3.270  0.1554  0.3851  0.9241
  244MOL    H7949165   0.171   6.701   3.361 -0.8263 -0.9704 -1.5232
  244MOL    H8049166   0.312   6.661   3.083  0.9562 -1.8902  0.0842
  244MOL    H8149167   0.181   6.775   3.115 -1.4167 -0.2340  0.7990
  244MOL    C8249168   0.129   6.567   3.141 -0.7655  0.2898 -0.0955
  244MOL    C8349169   0.103   6.524   3.000  0.6241 -0.9400  0.0463
  244MOL    C8449170   7.956   6.517   2.944  0.6384  0.0814  0.0420
  244MOL    C8549171   7.935   6.461   2.807 -0.0362 -0.5666 -1.0514
  244MOL    H8649172   0.166   6.480   3.195 -0.6620 -1.2080 -2.5420
  244MOL    H8749173   0.032   6.586   3.186 -1.3926 -0.8923 -0.9433
  244MOL    H8849174   0.188   6.490   2.942 -0.0893 -1.1843 -0.8699
  244MOL    H8949175   7.874   6.559   2.999 -0.2841  1.5334 -2.3375
  244MOL    H9049176   0.033   6.383   2.797  1.4245  0.4444  1.6402
  244MOL    H9149177   7.965   6.532   2.730 -0.3267  0.2652 -0.4031
  244MOL    C9249178   7.792   6.404   2.779  0.0781 -0.1552  0.9842
  244MOL    C9349179   7.768   6.381   2.636  0.2697 -0.3944  0.2081
  244MOL    C9449180   7.656   6.422   2.568  0.4514 -0.5364 -0.7368
  244MOL    C9549181   7.614   6.380   2.422  0.1567  0.3895 -0.3208
  244MOL    H9649182   7.790   6.308   2.830  0.5734  0.2161  1.7090
  244MOL    H9749183   7.716   6.465   2.825  0.2847  0.8839 -0.0219
  244MOL    H9849184   7.844   6.317   2.594  0.2257 -1.0768  1.1416
  244MOL    H9949185   7.581   6.482   2.617  0.7525 -0.3488 -0.5026
  244MOL   H10049186   7.510   6.349   2.424  0.3233 -0.3062 -1.8795
  244MOL   H10149187   7.669   6.295   2.382  1.0554  1.0434 -0.4832
  244MOL   C10249188   7.620   6.498   2.322 -0.2936  0.3951 -0.6572
  244MOL   C10349189   7.556   6.628   2.374  0.1041 -0.0171 -0.3292
  244MOL   C10449190   7.618   6.746   2.405 -0.7280 -0.8841  0.2983
  244MOL   C10549191   7.544   6.875   2.452 -0.8056  0.4206  0.5721
  244MOL   H10649192   7.719   6.509   2.278 -0.1811 -1.2945 -0.8659
  244MOL   H10749193   7.554   6.478   2.237 -1.1526 -1.7330  0.4635
  244MOL   H10849194   7.450   6.627   2.393  0.2726  0.6717  0.7035
  244MOL   H10949195   7.725   6.756   2.392 -0.6987 -2.8480 -1.2351
  244MOL   H11049196   7.594   6.919   2.539 -0.3591 -0.7283  0.8994
  244MOL   H11149197   7.446   6.844   2.488  0.1369 -3.0843  0.2723
  244MOL   C11249198   7.556   6.984   2.347 -0.7020 -0.6452  0.7067
  244MOL   C11349199   7.480   7.115   2.368  0.2436 -0.2611  0.3867
  244MOL   C11449200   7.379   7.130   2.450  0.2911  0.2152  0.5125
  244MOL   C11549201   7.303   7.256   2.475  0.3897 -0.4015  0.7067
  244MOL   H11649202   7.664   7.002   2.349 -0.3819 -2.5273  1.1050
  244MOL   H11749203   7.534   6.937   2.252 -0.0666  4.1286 -1.9993
  244MOL   H11849204   7.511   7.200   2.309  0.4990 -0.8672 -0.3673
  244MOL   H11949205   7.352   7.048   2.516 -0.5910  1.6212  1.9244
  244MOL   H12049206   7.365   7.346   2.480  0.6167 -0.3389 -2.0367
  244MOL   H12149207   7.266   7.236   2.575 -1.3418  1.0090  0.3678
  244MOL   C12249208   7.173   7.286   2.391 -0.2492 -0.0167 -0.2137
  244MOL   C12349209   7.200   7.334   2.255 -0.4152  0.2293 -0.5331
  244MOL   C12449210   7.139   7.428   2.182 -0.2601  1.1665 -0.1972
  244MOL   C12549211   7.174   7.464   2.045 -0.0671 -0.5470  0.2769
  244MOL   H12649212   7.119   7.192   2.385  2.2017 -1.4119 -1.0471
  244MOL   H12749213   7.092   7.341   2.439  0.7509  0.5589  0.8342
  244MOL   H12849214   7.274   7.282   2.197 -0.6361 -3.1921  2.1034
  244MOL   H12949215   7.067   7.495   2.227 -0.7537 -0.4695  1.5131
  244MOL   H13049216   7.221   7.385   1.985 -0.0535 -1.4150  1.4061
  244MOL   H13149217   7.245   7.547   2.053 -0.4716 -0.0033 -1.5592
  244MOL   C13249218   7.052   7.524   1.979  0.8287 -0.4216 -0.2249
  244MOL   C13349219   7.091   7.560   1.843  0.2697 -0.3866 -0.2558
  244MOL   C13449220   7.028   7.514   1.737  0.9085 -0.8003  0.8546
  244MOL   C13549221   7.072   7.525   1.591 -0.6720 -0.5370 -0.2568
  244MOL   H13649222   6.973   7.449   1.981 -0.9782  1.3529 -1.8572
  244MOL   H13749223   7.017   7.617   2.023  0.2883  1.4144 -4.2336
  244MOL   H13849224   7.180   7.620   1.830 -0.3154  0.2085 -1.5016
  244MOL   H13949225   6.946   7.445   1.747  0.8511 -0.4706  2.9753
  244MOL   H14049226   7.177   7.554   1.587 -1.0880  0.7759 -5.4662
  244MOL   H14149227   7.025   7.606   1.535  0.2585  0.2532  0.0931
  244MOL   C14249228   7.065   7.387   1.524  0.2124 -0.6171 -0.5713
  244MOL   C14349229   7.119   7.391   1.385 -0.1553  0.2330  0.1353
  244MOL   C14449230   7.235   7.324   1.350 -0.4394  0.5517 -0.0275
  244MOL   C14549231   7.289   7.324   1.211  0.5075  0.4841  0.7347
  244MOL   H14649232   7.109   7.307   1.583  2.5266 -0.3829 -1.9027
  244MOL   H14749233   6.960   7.358   1.517  0.4685 -1.5472 -0.5447
  244MOL   H14849234   7.067   7.452   1.313 -0.4787  0.6857  0.7492
  244MOL   H14949235   7.290   7.267   1.423 -0.7233 -1.3153 -1.2227
  244MOL   H15049236   7.204   7.369   1.159 -0.8358 -1.7509  0.9338
  244MOL   H15149237   7.306   7.222   1.180 -2.6860  1.1634 -3.7432
  244MOL   C15249238   7.418   7.407   1.209 -0.3340 -0.4100  0.1971
  244MOL   C15349239   7.537   7.322   1.248 -1.2585 -0.5306 -0.2297
  244MOL   C15449240   7.573   7.302   1.377 -0.5522  0.0098  0.1774
  244MOL   C15549241   7.676   7.209   1.434 -0.0375 -0.5324  0.1699
  244MOL   H15649242   7.442   7.454   1.114  1.7723  0.2355  1.0097
  244MOL   H15749243   7.412   7.488   1.283  2.3257 -1.3129  1.4509
  244MOL   H15849244   7.582   7.280   1.160 -0.7475  0.4624 -0.4459
  244MOL   H15949245   7.515   7.346   1.456 -1.3562 -1.1850  0.2764
  244MOL   H16049246   7.710   7.158   1.344  0.3146  0.0976 -0.0609
  244MOL   H16149247   7.625   7.128   1.486 -0.4033 -1.3226 -1.3863
  244MOL   C16249248   7.785   7.273   1.513  0.2754 -0.7275 -0.3509
  244MOL   C16349249   7.916   7.192   1.526 -0.2622 -0.4567 -0.5106
  244MOL   C16449250   7.940   7.064   1.481 -0.2391  0.4239 -0.4359
  244MOL   C16549251   0.098   7.003   1.470 -0.2802  0.5834  0.1870
  244MOL   H16649252   7.816   7.366   1.468 -1.3265  0.5121  1.0215
  244MOL   H16749253   7.751   7.297   1.614 -2.2852  0.9681 -1.5435
  244MOL   H16849254   0.027   7.245   1.558 -1.0137  0.8393 -0.5369
  244MOL   H16949255   7.862   7.007   1.432  1.3762 -0.6422 -1.8355
  244MOL   H17049256   0.177   7.068   1.504 -0.7082  0.3132  1.7270
  244MOL   H17149257   0.105   6.979   1.364  2.2291 -2.9153  1.0703
  244MOL   C17249258   0.100   6.862   1.545 -0.4180 -0.1660 -0.2199
  244MOL   C17349259   0.086   6.861   1.697 -0.3116 -0.5590 -0.1214
  244MOL   C17449260   0.158   6.783   1.780  0.3777  0.2559 -0.2073
  244MOL   C17549261   0.146   6.792   1.928 -0.1558 -0.3677 -0.3727
  244MOL   H17649262   0.020   6.797   1.511 -0.5179  0.1185 -0.5332
  244MOL   H17749263   0.197   6.816   1.524 -0.1663 -0.3988  1.3607
  244MOL   H17849264   0.005   6.925   1.729  0.5171  0.4752 -0.0783
  244MOL   H17949265   0.230   6.709   1.748 -0.9962 -1.2470  0.0589
  244MOL   H18049266   0.106   6.888   1.959  0.0354 -0.4863  0.2571
  244MOL   H18149267   0.249   6.795   1.965  0.6091  0.3978 -2.5010
  244MOL   C18249268   0.070   6.679   1.998 -0.4366  0.5398 -0.1281
  244MOL   C18349269   0.040   6.683   2.146 -0.6585  0.7272  0.6189
  244MOL   C18449270   0.109   6.748   2.236 -0.0932 -0.0010 -0.6047
  244MOL   C18549271   0.076   6.742   2.383 -0.2574 -0.3805 -0.0922
  244MOL   H18649272   7.948   6.684   1.953 -1.8421 -0.2994  2.7182
  244MOL   H18749273   0.113   6.580   1.983 -0.7660  0.3294  0.2855
  244MOL   H18849274   7.926   6.634   2.179 -1.1067  0.6965 -0.6299
  244MOL   H18949275   0.194   6.804   2.201 -0.2773  1.4222  1.1817
  244MOL   H19049276   0.173   6.726   2.431 -0.5395  0.8516  0.9353
  244MOL   H19149277   0.006   6.663   2.410 -0.6577 -1.3823 -3.8290
  244MOL   C19249278   0.007   6.873   2.426 -0.2748  0.1050  0.2307
  244MOL   C19349279   7.923   6.854   2.570  0.8421  0.8184  0.1276
  244MOL   C19449280   7.930   6.942   2.670  0.1099 -0.1945 -0.3947
  244MOL   C19549281   7.865   6.912   2.802  0.0058  0.7105 -0.9103
  244MOL   H19649282   0.075   6.958   2.414  0.1794 -0.3757 -0.5935
  244MOL   H19749283   7.903   6.890   2.355  0.5527  0.4824 -0.6260
  244MOL   H19849284   7.873   6.760   2.587  0.0881  1.3697  1.0048
  244MOL   H19949285   0.005   7.034   2.647 -0.2030 -0.0399 -0.4858
  244MOL   H20049286   7.826   6.810   2.807  0.0338  0.6592 -1.6746
  244MOL   H20149287   7.777   6.975   2.816 -0.5214 -0.5771  1.9770
  244MOL   H20249288   7.939   6.923   2.882 -0.3098  0.1264 -0.5326
  245MOL     C149289   1.311   6.372   1.428 -0.1196  0.8884  0.6327
  245MOL     C249290   1.438   6.382   1.351  0.9488 -0.3023 -0.1012
  245MOL     C349291   1.505   6.498   1.335  0.2786  0.4316 -0.3385
  245MOL     C449292   1.634   6.502   1.258 -0.2192 -0.3142  0.8554
  245MOL     H549293   1.262   6.469   1.443  0.2506  1.7254 -3.0341
  245MOL     H649294   1.330   6.326   1.524 -1.2626 -0.2038  0.3517
  245MOL     H749295   1.473   6.291   1.304  0.3234 -1.1527  1.0615
  245MOL     H849296   1.464   6.585   1.385 -3.1839 -2.0491  1.3385
  245MOL     H949297   1.602   6.555   1.168 -2.5439 -1.0145  1.2239
  245MOL    H1049298   1.664   6.404   1.220  2.0175  0.6300  0.0996
  245MOL    H1149299   1.236   6.310   1.379  0.0958 -0.1300  1.5855
  245MOL    C1249300   1.747   6.558   1.349  0.5782 -0.0267 -1.1217
  245MOL    C1349301   1.876   6.547   1.279 -0.3902 -0.1814 -0.5062
  245MOL    C1449302   1.988   6.503   1.340  0.3273  0.5757  0.2410
  245MOL    C1549303   2.125   6.512   1.272  0.0420 -0.5147  0.3869
  245MOL    H1649304   1.730   6.661   1.382 -0.7564 -0.5816 -0.0437
  245MOL    H1749305   1.764   6.495   1.437 -2.1064 -1.1953 -1.4058
  245MOL    H1849306   1.885   6.597   1.184  1.7631  0.1478 -0.1630
  245MOL    H1949307   1.980   6.462   1.439  1.0627 -1.1198 -0.3793
  245MOL    H2049308   2.179   6.591   1.324 -0.3212  0.4099 -0.6325
  245MOL    H2149309   2.104   6.549   1.172  0.2363  2.3605  1.3773
  245MOL    C2249310   2.204   6.381   1.257 -0.9587 -0.5100 -0.3480
  245MOL    C2349311   2.349   6.407   1.242  0.0042 -0.2548 -0.3260
  245MOL    C2449312   2.437   6.385   1.343 -0.4747 -0.2558  0.7837
  245MOL    C2549313   2.590   6.388   1.335 -0.3368  0.4433  0.4007
  245MOL    H2649314   2.184   6.328   1.350  2.1054 -0.2768  0.4825
  245MOL    H2749315   2.162   6.310   1.186 -1.2884 -2.0211  1.3155
  245MOL    H2849316   2.385   6.442   1.146  0.1904  0.2212 -0.0857
  245MOL    H2949317   2.405   6.352   1.441 -0.2152 -4.0134 -0.3171
  245MOL    H3049318   2.630   6.459   1.408  1.8681  0.1720 -0.4923
  245MOL    H3149319   2.628   6.407   1.235 -1.6126 -0.9991 -0.3772
  245MOL    C3249320   2.654   6.252   1.373 -0.2169 -0.8394 -0.2826
  245MOL    C3349321   2.804   6.258   1.373  0.0824 -0.6778  0.3406
  245MOL    C3449322   2.878   6.318   1.281  0.5560 -0.4720  0.4985
  245MOL    C3549323   3.030   6.316   1.280  0.6217 -0.5605  0.6885
  245MOL    H3649324   2.630   6.242   1.479  1.2163 -1.3768  0.0048
  245MOL    H3749325   2.619   6.168   1.314 -0.1493  1.3999 -3.6897
  245MOL    H3849326   2.843   6.192   1.450 -1.1674 -2.8312 -0.8435
  245MOL    H3949327   2.828   6.383   1.211 -3.4345 -1.2070  2.5726
  245MOL    H4049328   3.060   6.225   1.332  1.8583  0.1320  1.2090
  245MOL    H4149329   3.069   6.407   1.324 -0.0160  0.8839 -1.6290
  245MOL    C4249330   3.076   6.300   1.135  0.0158  0.6979  0.3827
  245MOL    C4349331   3.055   6.167   1.069  0.3557  0.1670 -0.9562
  245MOL    C4449332   3.143   6.073   1.057  0.8579 -0.7861 -0.3674
  245MOL    C4549333   3.106   5.945   0.996 -0.1540  0.7722  0.7504
  245MOL    H4649334   3.016   6.366   1.072 -0.5733 -0.5430 -0.3718
  245MOL    H4749335   3.181   6.325   1.120 -0.0202 -1.0619 -3.4048
  245MOL    H4849336   2.953   6.158   1.036 -0.3750  0.8740  1.0449
  245MOL    H4949337   3.239   6.084   1.106  0.0404  1.7821  0.7255
  245MOL    H5049338   2.999   5.932   0.976 -0.5395 -0.1149  3.2055
  245MOL    H5149339   3.140   5.866   1.063  1.4847  0.3476 -0.5697
  245MOL    C5249340   3.172   5.913   0.859  0.0155  0.5468 -0.4136
  245MOL    C5349341   3.138   5.775   0.805  0.2473 -0.5177  0.5123
  245MOL    C5449342   3.229   5.675   0.787 -0.1541  0.4656  0.7285
  245MOL    C5549343   3.203   5.542   0.724 -0.1782  0.0751  0.3990
  245MOL    H5649344   3.142   5.981   0.780  1.2636  0.3560 -1.0615
  245MOL    H5749345   3.281   5.914   0.868 -0.0276 -0.0250  0.1782
  245MOL    H5849346   3.034   5.767   0.778  0.7106  0.4725 -1.6427
  245MOL    H5949347   3.333   5.685   0.815 -0.0492  0.0756  0.4847
  245MOL    H6049348   3.262   5.538   0.632 -1.8595 -0.2430 -0.6882
  245MOL    H6149349   3.101   5.533   0.687 -0.0091  1.2817 -0.3602
  245MOL    C6249350   3.235   5.429   0.821 -0.1485 -0.2928  0.1672
  245MOL    C6349351   3.270   5.302   0.751  0.2395 -0.3200  0.8531
  245MOL    C6449352   3.201   5.185   0.771  0.6947  0.8659 -0.0737
  245MOL    C6549353   3.223   5.047   0.709 -0.4076 -0.3076 -0.2283
  245MOL    H6649354   3.325   5.462   0.873 -1.4050  0.8337  1.6548
  245MOL    H6749355   3.156   5.416   0.895  0.8769 -0.8187  1.1779
  245MOL    H6849356   3.362   5.291   0.695 -0.4961 -0.0512 -0.4213
  245MOL    H6949357   3.121   5.183   0.843  0.3036 -3.0464 -0.4926
  245MOL    H7049358   3.218   4.977   0.792 -3.4791 -2.1581 -1.8671
  245MOL    H7149359   3.321   5.055   0.662 -0.9676  0.7674 -1.2586
  245MOL    C7249360   3.132   5.023   0.587  0.2282  0.1931  0.2344
  245MOL    C7349361   3.154   4.885   0.527  0.1835  0.1870 -0.5025
  245MOL    C7449362   3.059   4.813   0.460  0.8072  0.3027 -0.4132
  245MOL    C7549363   3.072   4.669   0.410 -0.1028 -0.0454 -0.4090
  245MOL    H7649364   3.027   5.040   0.607 -0.1610 -0.3670 -1.2400
  245MOL    H7749365   3.143   5.100   0.510  2.6248 -0.9110 -0.5778
  245MOL    H7849366   3.242   4.834   0.564  1.7879  2.3285 -1.2609
  245MOL    H7949367   2.963   4.861   0.449 -0.7982 -2.7051 -0.1874
  245MOL    H8049368   3.177   4.641   0.407  0.0455  0.5499 -0.7750
  245MOL    H8149369   3.028   4.653   0.312  0.9589 -0.4885 -0.8068
  245MOL    C8249370   2.991   4.578   0.508 -0.3342  0.1241 -0.1172
  245MOL    C8349371   2.995   4.440   0.446  0.2431 -0.3133 -0.0776
  245MOL    C8449372   3.105   4.372   0.410 -0.3913 -1.0198 -0.0803
  245MOL    C8549373   3.105   4.226   0.362 -0.3680 -0.1995  0.3225
  245MOL    H8649374   3.011   4.582   0.615 -1.7906 -1.7279  0.2617
  245MOL    H8749375   2.886   4.606   0.498 -0.1415  0.5743 -0.9015
  245MOL    H8849376   2.901   4.387   0.460  1.1273 -2.4666 -1.9764
  245MOL    H8949377   3.200   4.422   0.423 -0.8247 -0.2413  0.1090
  245MOL    H9049378   3.096   4.230   0.253 -0.6264  1.3599  0.3844
  245MOL    H9149379   3.022   4.163   0.396  0.1786 -0.9698  0.2396
  245MOL    C9249380   3.234   4.155   0.410  0.8109  0.5696  0.4268
  245MOL    C9349381   3.368   4.223   0.382 -0.1614 -0.2506 -0.3208
  245MOL    C9449382   3.400   4.266   0.262  0.1973 -0.1380  0.4196
  245MOL    C9549383   3.527   4.323   0.218  0.0928 -0.1571  0.7610
  245MOL    H9649384   3.227   4.135   0.517  1.8573 -1.0199  0.2134
  245MOL    H9749385   3.245   4.057   0.364  0.9880 -0.0667  1.8203
  245MOL    H9849386   3.433   4.234   0.467 -0.2068  4.2829 -0.7211
  245MOL    H9949387   3.332   4.256   0.179  1.3706 -0.8136 -0.4781
  245MOL   H10049388   3.499   4.398   0.144  3.6020  0.1856 -0.3124
  245MOL   H10149389   3.590   4.252   0.164  0.7280  1.6544 -0.9426
  245MOL   C10249390   3.605   4.395   0.338 -0.4419 -0.1269  0.5098
  245MOL   C10349391   3.731   4.458   0.276  0.3094  0.3883  0.0352
  245MOL   C10449392   3.857   4.425   0.313 -0.4587  0.1679 -0.0386
  245MOL   C10549393   3.981   4.503   0.276  0.2266  0.3775  0.1203
  245MOL   H10649394   3.550   4.479   0.380  0.1246  1.8732 -2.6014
  245MOL   H10749395   3.639   4.320   0.410  2.5543  0.1412 -0.5453
  245MOL   H10849396   3.702   4.535   0.207  1.7808 -2.3272 -3.7792
  245MOL   H10949397   3.872   4.344   0.382  1.0655  0.5158  0.0446
  245MOL   H11049398   3.967   4.601   0.230 -1.4336 -0.6238 -1.6221
  245MOL   H11149399   4.039   4.452   0.199  1.0701  1.7414 -0.1547
  245MOL   C11249400   4.075   4.515   0.407 -0.5063  0.1178  0.0317
  245MOL   C11349401   4.192   4.606   0.372  0.7641 -0.6657 -0.0022
  245MOL   C11449402   4.296   4.585   0.284 -0.4777  0.3208  0.8459
  245MOL   C11549403   4.403   4.690   0.270  0.3360  0.2975  0.2406
  245MOL   H11649404   4.033   4.559   0.498 -0.8936  0.8127 -0.4766
  245MOL   H11749405   4.126   4.421   0.427 -0.7199  0.3748  1.8737
  245MOL   H11849406   4.192   4.698   0.428  0.1712 -1.0083  0.5670
  245MOL   H11949407   4.299   4.501   0.216 -1.1181 -0.4090  1.7171
  245MOL   H12049408   4.381   4.779   0.330  0.2957  1.0462 -0.8804
  245MOL   H12149409   4.393   4.729   0.169  1.2011 -0.1622 -0.0300
  245MOL   C12249410   4.537   4.634   0.311  0.2408 -0.1930 -0.2803
  245MOL   C12349411   4.646   4.738   0.316 -0.3799 -0.2050  0.8771
  245MOL   C12449412   4.713   4.785   0.419  0.1469  0.2075  0.0582
  245MOL   C12549413   4.813   4.891   0.414  0.0019 -0.8095  0.2718
  245MOL   H12649414   4.531   4.585   0.408  1.9219 -1.1564 -0.6414
  245MOL   H12749415   4.582   4.564   0.241 -1.1025 -0.9524 -0.3950
  245MOL   H12849416   4.663   4.783   0.220 -0.7843 -0.9809  0.4407
  245MOL   H12949417   4.700   4.748   0.519  2.9436  0.5276  0.5853
  245MOL   H13049418   4.855   4.898   0.314  0.2848  2.3397  0.5436
  245MOL   H13149419   4.896   4.860   0.477  0.7437 -0.0095 -0.2992
  245MOL   C13249420   4.758   5.024   0.472  0.5330  0.6031 -0.1335
  245MOL   C13349421   4.865   5.132   0.506  0.4580 -0.3146 -1.0444
  245MOL   C13449422   4.992   5.134   0.460  0.7244 -0.1495  0.2042
  245MOL   C13549423   5.093   5.236   0.498 -0.2947 -0.2132 -0.2925
  245MOL   H13649424   4.694   5.070   0.397 -0.3912 -0.5874 -0.0698
  245MOL   H13749425   4.692   5.017   0.558 -1.3945 -1.4957 -1.7163
  245MOL   H13849426   4.827   5.212   0.567  0.5989 -0.3415 -0.9218
  245MOL   H13949427   5.037   5.062   0.392  0.4598  0.6376 -0.8124
  245MOL   H14049428   5.040   5.314   0.553 -1.7195  0.4744 -2.5880
  245MOL   H14149429   5.130   5.290   0.410  3.3292 -1.0750  0.5919
  245MOL   C14249430   5.207   5.170   0.585 -0.3323 -0.4872  0.1373
  245MOL   C14349431   5.296   5.074   0.508  0.3688 -0.5931 -0.9395
  245MOL   C14449432   5.340   4.962   0.556 -0.5018  0.7420  0.0167
  245MOL   C14549433   5.407   4.854   0.467  0.3679 -0.5698 -0.6806
  245MOL   H14649434   5.271   5.251   0.620 -0.7490 -0.7968  1.6948
  245MOL   H14749435   5.168   5.126   0.677  0.5749 -2.3766 -0.3541
  245MOL   H14849436   5.317   5.100   0.405  1.5786 -0.7930 -0.7490
  245MOL   H14949437   5.308   4.930   0.654  0.8659  0.7899  0.4826
  245MOL   H15049438   5.413   4.886   0.363  0.8401 -2.8888 -1.4142
  245MOL   H15149439   5.345   4.765   0.466 -1.2748  0.5392  0.9022
  245MOL   C15249440   5.545   4.810   0.522  0.1341 -0.5266 -0.1481
  245MOL   C15349441   5.658   4.899   0.476 -0.0760 -0.2894 -0.0579
  245MOL   C15449442   5.781   4.854   0.427 -0.0793  0.0158  0.2929
  245MOL   C15549443   5.907   4.937   0.388 -0.1162  0.5007 -0.1188
  245MOL   H15649444   5.547   4.795   0.630  1.5850 -1.1887 -0.2562
  245MOL   H15749445   5.557   4.711   0.477 -1.3358  0.3080 -2.4472
  245MOL   H15849446   5.644   5.006   0.480 -0.4897 -0.2931 -1.1610
  245MOL   H15949447   5.790   4.747   0.416  0.8568  0.2292 -1.1921
  245MOL   H16049448   5.894   5.045   0.392 -0.9199  0.3785  1.0158
  245MOL   H16149449   5.935   4.912   0.286  1.7337 -1.7699  0.8738
  245MOL   C16249450   6.021   4.895   0.479  0.4644 -0.6399  0.4134
  245MOL   C16349451   6.009   4.951   0.614  0.0105 -0.1802  0.1540
  245MOL   C16449452   6.023   4.882   0.728 -0.1840 -1.0449  0.0841
  245MOL   C16549453   6.010   4.949   0.864 -0.8007  0.7843 -0.4550
  245MOL   H16649454   6.036   4.787   0.480  0.1017 -0.7024 -0.2947
  245MOL   H16749455   6.117   4.930   0.440  0.2407 -1.3538 -0.8363
  245MOL   H16849456   5.992   5.057   0.613 -0.4721 -0.2551  0.2397
  245MOL   H16949457   6.048   4.777   0.728  1.7235 -0.6364 -2.0932
  245MOL   H17049458   5.932   4.891   0.914  0.7289 -1.6450 -0.8560
  245MOL   H17149459   5.959   5.046   0.866 -1.1386  0.6112 -0.6094
  245MOL   C17249460   6.139   4.960   0.945 -0.9056 -0.2304 -0.4304
  245MOL   C17349461   6.124   5.050   1.066 -0.5761  0.7193 -0.4846
  245MOL   C17449462   6.188   5.021   1.178 -0.0236  0.8317  0.0891
  245MOL   C17549463   6.187   5.092   1.313 -0.1826 -0.6140  0.3232
  245MOL   H17649464   6.158   4.861   0.984 -0.8396  0.0613  0.2769
  245MOL   H17749465   6.227   4.997   0.893 -1.8277 -1.1679 -2.7179
  245MOL   H17849466   6.061   5.133   1.036 -1.0198  0.1867 -1.0164
  245MOL   H17949467   6.259   4.940   1.183 -1.9194 -0.9351 -1.2439
  245MOL   H18049468   6.145   5.019   1.382  2.6015 -2.8414 -0.3098
  245MOL   H18149469   6.116   5.174   1.298  0.8235 -0.1774 -2.4950
  245MOL   C18249470   6.319   5.156   1.347 -0.5437  0.0504 -0.1572
  245MOL   C18349471   6.324   5.244   1.470 -0.4963 -0.3655 -0.0091
  245MOL   C18449472   6.327   5.376   1.479  0.3654  0.2190 -0.0102
  245MOL   C18549473   6.304   5.455   1.609  0.2957 -0.3605  0.4799
  245MOL   H18649474   6.386   5.073   1.370 -0.2942  0.4140  0.4218
  245MOL   H18749475   6.368   5.213   1.268 -1.6377  0.5304 -0.4846
  245MOL   H18849476   6.309   5.182   1.557  0.4072 -2.5667 -1.3929
  245MOL   H18949477   6.336   5.428   1.385  1.0496 -0.3771 -0.2793
  245MOL   H19049478   6.297   5.383   1.691  0.7174 -1.5962 -0.5686
  245MOL   H19149479   6.207   5.502   1.596 -0.5378 -1.6355  1.9316
  245MOL   C19249480   6.414   5.556   1.636 -0.0572 -0.6487 -0.2143
  245MOL   C19349481   6.408   5.609   1.778  0.0200  0.0429  0.2429
  245MOL   C19449482   6.365   5.732   1.805  0.4831 -0.2165 -0.3030
  245MOL   C19549483   6.356   5.786   1.950  0.5663 -0.1928  0.3073
  245MOL   H19649484   6.513   5.511   1.637  0.8190  1.1787 -1.8403
  245MOL   H19749485   6.426   5.633   1.560 -0.6134  0.7717  1.0997
  245MOL   H19849486   6.440   5.541   1.855  0.2333  1.0884  1.0792
  245MOL   H19949487   6.324   5.793   1.726  0.2098 -2.5021 -1.9464
  245MOL   H20049488   6.366   5.894   1.963  0.4952 -0.1485 -0.0200
  245MOL   H20149489   6.418   5.732   2.021  0.8516  1.8033  1.6298
  245MOL   H20249490   6.257   5.764   1.990  0.7235 -1.7776 -0.1567
  246MOL     C149491   6.972   2.624   0.835  0.5670  0.6489  0.4707
  246MOL     C249492   6.851   2.669   0.765  0.2855  0.0160 -0.2224
  246MOL     C349493   6.843   2.703   0.634 -0.2779 -0.7403 -0.3566
  246MOL     C449494   6.710   2.747   0.569  0.2250  0.1844  0.3874
  246MOL     H549495   6.968   2.526   0.883 -1.4161  0.0276 -0.9239
  246MOL     H649496   7.010   2.693   0.910 -0.1307  0.9998  0.5047
  246MOL     H749497   6.756   2.673   0.817  0.6516  0.1490  0.4346
  246MOL     H849498   6.927   2.703   0.566 -0.7646 -0.7658 -0.9617
  246MOL     H949499   6.631   2.748   0.643  0.4494  0.1351  0.6272
  246MOL    H1049500   6.679   2.675   0.493 -1.1902  0.5091  0.6548
  246MOL    H1149501   7.057   2.616   0.767 -0.4930 -0.5879 -0.7505
  246MOL    C1249502   6.741   2.879   0.504 -0.2177 -0.4945  0.1251
  246MOL    C1349503   6.622   2.923   0.420  0.1890  0.0099 -0.0962
  246MOL    C1449504   6.609   2.909   0.290 -0.1883 -0.3615  0.5490
  246MOL    C1549505   6.487   2.955   0.204 -0.1173 -0.4539  0.0897
  246MOL    H1649506   6.762   2.955   0.579  0.2573  1.5654 -2.0369
  246MOL    H1749507   6.831   2.869   0.443 -0.3037 -2.9289  0.3301
  246MOL    H1849508   6.541   2.963   0.479 -0.6584 -2.5365  0.5277
  246MOL    H1949509   6.696   2.877   0.233 -1.5198 -2.3351 -0.4198
  246MOL    H2049510   6.426   2.873   0.166 -0.0818 -0.1442 -0.6440
  246MOL    H2149511   6.520   3.012   0.117 -2.4542  2.4229  1.0081
  246MOL    C2249512   6.389   3.047   0.290 -0.2338 -0.0955  0.0713
  246MOL    C2349513   6.296   3.128   0.201 -0.7841  0.0077  0.2628
  246MOL    C2449514   6.165   3.118   0.193  0.0385  0.1447  0.6336
  246MOL    C2549515   6.094   3.186   0.081 -0.1900 -0.5893  0.1467
  246MOL    H2649516   6.347   2.998   0.378 -0.2773 -0.3628 -0.0970
  246MOL    H2749517   6.442   3.131   0.335 -2.9486  1.6640  0.1065
  246MOL    H2849518   6.355   3.190   0.135 -1.0531  0.2142  0.2144
  246MOL    H2949519   6.115   3.048   0.259 -0.9715 -0.8119 -1.1177
  246MOL    H3049520   6.139   3.280   0.051 -0.9470 -0.1739  0.2890
  246MOL    H3149521   5.991   3.216   0.104 -0.9490 -0.8749 -2.6684
  246MOL    C3249522   6.089   3.091   7.935  0.5738  0.3719 -0.0912
  246MOL    C3349523   5.990   3.126   7.825 -0.9802  0.6294 -0.5518
  246MOL    C3449524   6.027   3.155   7.699  0.1890  0.2090 -0.0602
  246MOL    C3549525   5.931   3.186   7.592 -0.2532 -0.1412  0.6022
  246MOL    H3649526   6.190   3.092   7.893  0.2573  0.3049 -0.8546
  246MOL    H3749527   6.055   2.988   7.951  3.9418 -1.0282 -1.2870
  246MOL    H3849528   5.885   3.128   7.849 -0.7619 -0.0916  0.4669
  246MOL    H3949529   6.132   3.148   7.673  0.2155  0.6987 -0.0780
  246MOL    H4049530   5.836   3.148   7.629  0.5925 -1.1874  1.7225
  246MOL    H4149531   5.953   3.122   7.506 -1.1181 -2.4312  2.0428
  246MOL    C4249532   5.926   3.331   7.547  0.2313  0.0541  0.6390
  246MOL    C4349533   5.833   3.366   7.435  0.2772  0.6223  0.5778
  246MOL    C4449534   5.864   3.393   7.306  0.3620  0.3469 -0.5769
  246MOL    C4549535   5.754   3.415   7.206 -0.6333  0.1945 -0.8685
  246MOL    H4649536   5.910   3.402   7.628  2.8415 -0.2091  1.4471
  246MOL    H4749537   6.024   3.366   7.514  0.3625 -1.6551 -0.8894
  246MOL    H4849538   5.733   3.361   7.475 -1.4946 -0.8429 -3.7058
  246MOL    H4949539   5.965   3.410   7.273  0.4454  1.8960  0.4029
  246MOL    H5049540   5.784   3.512   7.165  1.5225  0.4851  1.2118
  246MOL    H5149541   5.660   3.420   7.260  0.7839  3.6478  1.5398
  246MOL    C5249542   5.751   3.315   7.093 -0.0477 -0.1256  0.1363
  246MOL    C5349543   5.870   3.329   7.001  0.0308 -0.7584 -0.4902
  246MOL    C5449544   5.864   3.373   6.871 -0.7464 -0.8147  0.3231
  246MOL    C5549545   5.965   3.386   6.762  0.0372  0.6502  0.3573
  246MOL    H5649546   5.715   3.217   7.123 -1.0835  0.3267  0.4312
  246MOL    H5749547   5.674   3.360   7.030  0.7524  0.8888 -0.1337
  246MOL    H5849548   5.966   3.313   7.049  0.4484 -1.4220 -1.5293
  246MOL    H5949549   5.767   3.401   6.832 -0.7019  0.5923  1.1517
  246MOL    H6049550   5.976   3.492   6.738  0.8987  0.7626  1.2242
  246MOL    H6149551   5.918   3.338   6.676  1.2065 -1.1778  0.7138
  246MOL    C6249552   6.096   3.312   6.785 -0.2061  0.9771 -0.1944
  246MOL    C6349553   6.208   3.341   6.686 -0.1790 -0.0720  0.1136
  246MOL    C6449554   6.318   3.421   6.714 -0.5125 -1.1717  0.3477
  246MOL    C6549555   6.426   3.455   6.616  0.1725  0.7085 -0.9509
  246MOL    H6649556   6.136   3.336   6.884  0.6988 -2.7597  0.4264
  246MOL    H6749557   6.079   3.205   6.799 -0.8179  1.3028  1.6745
  246MOL    H6849558   6.194   3.307   6.584  0.7567  2.6560 -0.9829
  246MOL    H6949559   6.327   3.457   6.815 -0.4860 -0.9247  0.2595
  246MOL    H7049560   6.400   3.417   6.517  2.5191 -2.2190 -0.5274
  246MOL    H7149561   6.519   3.412   6.653 -1.6043  0.1485  3.1393
  246MOL    C7249562   6.449   3.606   6.607  0.0361  0.1625 -0.2088
  246MOL    C7349563   6.493   3.659   6.477  0.3597  0.3095  0.5027
  246MOL    C7449564   6.610   3.723   6.453 -0.4669  0.3220  0.4577
  246MOL    C7549565   6.651   3.797   6.328  0.6552 -0.6117  0.3881
  246MOL    H7649566   6.353   3.651   6.630 -0.7579 -1.5080 -0.1773
  246MOL    H7749567   6.520   3.633   6.686 -1.3967  2.1338  0.4488
  246MOL    H7849568   6.426   3.645   6.393  2.1427 -3.2833 -0.4348
  246MOL    H7949569   6.668   3.737   6.543 -1.1250  0.5492  0.8575
  246MOL    H8049570   6.623   3.902   6.335  1.6146 -0.3463  0.3473
  246MOL    H8149571   6.596   3.740   6.254 -1.3141 -0.0549  1.3951
  246MOL    C8249572   6.800   3.778   6.296  0.8169 -0.0459  0.0745
  246MOL    C8349573   6.838   3.867   6.175  0.5695 -0.0338  0.6540
  246MOL    C8449574   6.965   3.883   6.130 -0.5116 -0.0658 -0.7201
  246MOL    C8549575   7.007   3.952   6.005 -0.3784 -0.2577 -0.5331
  246MOL    H8649576   6.865   3.802   6.380 -0.4701 -1.0359  1.3770
  246MOL    H8749577   6.812   3.671   6.279 -1.3341 -0.4150  0.7051
  246MOL    H8849578   6.757   3.900   6.110 -1.2552 -1.6368  2.0560
  246MOL    H8949579   7.049   3.845   6.188 -0.6439 -1.0799 -1.1853
  246MOL    H9049580   6.924   3.950   5.934 -0.5290  0.7503 -0.3879
  246MOL    H9149581   7.095   3.900   5.968  1.6813  2.7500  0.0043
  246MOL    C9249582   7.063   4.096   6.025 -0.1743 -0.1396 -0.3336
  246MOL    C9349583   7.117   4.155   5.898 -0.8904  0.3545  0.7000
  246MOL    C9449584   7.243   4.145   5.858  0.0813  0.4839  0.6020
  246MOL    C9549585   7.311   4.209   5.740 -0.6091 -0.1574 -0.3927
  246MOL    H9649586   6.990   4.169   6.059 -0.4934 -0.6501  0.0797
  246MOL    H9749587   7.144   4.091   6.098 -0.6734  1.8361  0.3685
  246MOL    H9849588   7.056   4.227   5.845 -0.4221  1.3110  1.4522
  246MOL    H9949589   7.310   4.079   5.911  0.5916 -2.5411 -3.5893
  246MOL   H10049590   7.231   4.257   5.684 -1.2599 -1.5259 -0.6656
  246MOL   H10149591   7.347   4.131   5.673 -0.8485  0.0925 -0.8180
  246MOL   C10249592   7.419   4.317   5.777 -0.4332  0.1001 -0.3360
  246MOL   C10349593   7.443   4.417   5.665  0.2785  0.2324 -0.1232
  246MOL   C10449594   7.565   4.453   5.633 -0.5197 -0.4108  0.2776
  246MOL   C10549595   7.596   4.553   5.523  0.1989 -0.3764 -0.5542
  246MOL   H10649596   7.384   4.375   5.863 -0.1638  1.0408 -0.8548
  246MOL   H10749597   7.514   4.271   5.801 -0.1925 -1.5672 -4.1144
  246MOL   H10849598   7.355   4.453   5.614 -1.6442 -0.6007  2.5530
  246MOL   H10949599   7.645   4.401   5.683  0.6324  2.1541  1.1704
  246MOL   H11049600   7.619   4.646   5.574  0.9682 -0.4455 -0.7684
  246MOL   H11149601   7.512   4.583   5.460  0.2581  0.0478 -0.4307
  246MOL   C11249602   7.716   4.498   5.441 -0.1948 -0.6925  0.1090
  246MOL   C11349603   7.820   4.609   5.413  0.1106 -0.1795  0.7133
  246MOL   C11449604   7.823   4.680   5.299 -0.1082 -0.5307  0.2311
  246MOL   C11549605   7.910   4.800   5.268 -0.2329  0.5895  0.3785
  246MOL   H11649606   7.770   4.418   5.490  0.2938  0.2385  1.0975
  246MOL   H11749607   7.676   4.455   5.349  0.5489 -2.5777  0.6346
  246MOL   H11849608   7.900   4.631   5.482  2.0988 -1.1683 -1.2101
  246MOL   H11949609   7.744   4.670   5.227 -1.3820  1.1481  1.3757
  246MOL   H12049610   7.840   4.882   5.250  1.2447  1.4348 -1.7769
  246MOL   H12149611   7.952   4.769   5.172  0.5948 -0.6386  1.1239
  246MOL   C12249612   0.045   4.832   5.374 -0.6904  0.3607 -0.3094
  246MOL   C12349613   0.167   4.908   5.317 -0.4315 -1.0364  0.2905
  246MOL   C12449614   0.160   5.007   5.221  0.1748  0.4159 -0.1212
  246MOL   C12549615   0.280   5.094   5.178 -0.6583 -0.2435  0.4046
  246MOL   H12649616   7.976   4.871   5.465 -1.0525 -1.0996  0.1379
  246MOL   H12749617   0.090   4.738   5.406 -0.6005  0.7518  0.7418
  246MOL   H12849618   0.256   4.889   5.375 -0.1687  0.5455  0.4353
  246MOL   H12949619   0.064   5.029   5.175  0.6488 -0.9267 -1.8409
  246MOL   H13049620   0.290   5.084   5.070  1.1560 -1.2562  0.6499
  246MOL   H13149621   0.373   5.061   5.224  0.7039  0.0760 -2.0212
  246MOL   C13249622   0.270   5.245   5.207  0.5588  0.1624  0.0985
  246MOL   C13349623   0.368   5.324   5.125  0.0832 -0.0571  0.1651
  246MOL   C13449624   0.337   5.382   5.014 -0.1355  0.3789  0.5536
  246MOL   C13549625   0.439   5.465   4.939  0.2636  0.1610 -0.2889
  246MOL   H13649626   0.170   5.277   5.180 -0.2592  0.3367  3.1956
  246MOL   H13749627   0.293   5.258   5.313 -2.0289  2.3121  0.4184
  246MOL   H13849628   0.470   5.313   5.160 -0.8880 -4.9523  1.8527
  246MOL   H13949629   0.236   5.389   4.975  0.1389 -1.4197 -0.5381
  246MOL   H14049630   0.464   5.431   4.839 -0.5507  1.6851 -1.0329
  246MOL   H14149631   0.538   5.453   4.983 -0.3851 -0.2324  1.0878
  246MOL   C14249632   0.391   5.613   4.925 -0.5820  0.4445 -0.0455
  246MOL   C14349633   0.493   5.697   4.853  0.1076  0.2958 -0.7301
  246MOL   C14449634   0.491   5.725   4.725 -0.1233 -0.6392  0.4057
  246MOL   C14549635   0.602   5.787   4.646 -0.7987  1.2507 -0.2604
  246MOL   H14649636   0.299   5.614   4.867  0.5327  1.8616 -1.8737
  246MOL   H14749637   0.367   5.659   5.021 -0.5969 -0.7666  0.5330
  246MOL   H14849638   0.577   5.722   4.917 -0.3992  0.8387 -0.2651
  246MOL   H14949639   0.410   5.697   4.660 -0.3761 -1.7796  1.1931
  246MOL   H15049640   0.633   5.715   4.570  0.2512 -0.1057  1.4328
  246MOL   H15149641   0.687   5.805   4.712 -1.6832  0.4238  1.1054
  246MOL   C15249642   0.562   5.923   4.579  0.6012  0.4671 -0.0083
  246MOL   C15349643   0.648   5.957   4.464  0.0263  0.5520  0.0948
  246MOL   C15449644   0.731   6.064   4.470 -0.1910  0.4921  0.3326
  246MOL   C15549645   0.794   6.126   4.346 -0.8860  0.1252 -0.0206
  246MOL   H15649646   0.458   5.925   4.544  0.4406  0.6536  0.4822
  246MOL   H15749647   0.572   5.998   4.657  2.5810 -0.9410  1.1227
  246MOL   H15849648   0.633   5.908   4.369  2.5438  0.9645 -0.5466
  246MOL   H15949649   0.752   6.114   4.564 -0.3566  1.5611 -0.1895
  246MOL   H16049650   0.735   6.217   4.332 -1.8935 -0.5487 -0.2015
  246MOL   H16149651   0.763   6.069   4.259  2.2451 -1.6717 -0.0025
  246MOL   C16249652   0.945   6.161   4.355 -0.3551 -0.2564 -0.4448
  246MOL   C16349653   0.978   6.241   4.483  0.2331  0.0124 -0.7039
  246MOL   C16449654   1.053   6.199   4.585  0.1041  0.8301 -0.3651
  246MOL   C16549655   1.071   6.275   4.718 -0.6064  0.3819  0.1691
  246MOL   H16649656   1.006   6.071   4.354 -0.7328 -0.5286 -2.8268
  246MOL   H16749657   0.982   6.217   4.269  2.9522 -0.6646  0.6346
  246MOL   H16849658   0.942   6.343   4.484 -3.2065 -1.1372 -2.3351
  246MOL   H16949659   1.089   6.098   4.591  0.9971  1.1771  0.2860
  246MOL   H17049660   1.051   6.382   4.715  0.8162  0.6319 -0.3612
  246MOL   H17149661   1.176   6.277   4.747  0.0095 -0.5240 -1.9009
  246MOL   C17249662   0.991   6.213   4.827 -0.4244  0.6863 -0.2845
  246MOL   C17349663   0.984   6.280   4.966  0.2514 -0.0403 -0.0594
  246MOL   C17449664   0.986   6.211   5.084  1.0637 -0.6398  0.6614
  246MOL   C17549665   0.961   6.266   5.224 -0.1364  0.4157  0.0484
  246MOL   H17649666   0.885   6.199   4.802 -1.2406  2.4323  2.0096
  246MOL   H17749667   1.031   6.113   4.843  1.9688  1.5332 -0.9134
  246MOL   H17849668   0.955   6.384   4.969  0.5776  0.0373  0.4485
  246MOL   H17949669   1.009   6.106   5.076  1.1139 -0.4949 -1.1664
  246MOL   H18049670   0.927   6.369   5.212 -1.7920 -0.2006 -0.7934
  246MOL   H18149671   1.055   6.273   5.279 -0.5347 -4.6488  1.6321
  246MOL   C18249672   0.858   6.179   5.307 -0.0579  0.9742 -0.1932
  246MOL   C18349673   0.813   6.246   5.438  0.2823  0.2588  0.8651
  246MOL   C18449674   0.712   6.205   5.515  0.5329  0.6508 -0.0003
  246MOL   C18549675   0.669   6.248   5.655 -0.1582 -0.2127 -0.1274
  246MOL   H18649676   0.767   6.159   5.249  0.5097 -1.4985 -0.2804
  246MOL   H18749677   0.897   6.078   5.320 -0.8859  0.6994  0.1912
  246MOL   H18849678   0.890   6.311   5.477  1.6560 -1.2640  0.7658
  246MOL   H18949679   0.652   6.126   5.471 -0.5323  1.3855  0.1089
  246MOL   H19049680   0.739   6.329   5.678  0.2457 -0.5126 -0.3076
  246MOL   H19149681   0.682   6.164   5.723 -0.6141 -1.6298 -1.7621
  246MOL   C19249682   0.533   6.314   5.666  0.5885  0.3942 -0.4479
  246MOL   C19349683   0.522   6.391   5.794 -0.1798  0.1416  0.9114
  246MOL   C19449684   0.498   6.522   5.797  0.0213 -0.6070 -0.6099
  246MOL   C19549685   0.496   6.615   5.914  0.1316 -0.6604 -0.4845
  246MOL   H19649686   0.510   6.386   5.587  1.7193  1.3835  0.1055
  246MOL   H19749687   0.453   6.239   5.672  1.5801 -0.6491 -0.1867
  246MOL   H19849688   0.550   6.342   5.886 -1.4924  1.1415  1.8723
  246MOL   H19949689   0.474   6.562   5.699 -4.5127  0.4298  0.7817
  246MOL   H20049690   0.404   6.613   5.972  0.1525 -1.6754 -0.4816
  246MOL   H20149691   0.500   6.716   5.874 -0.1522 -0.4637 -0.0212
  246MOL   H20249692   0.583   6.612   5.980  1.6481  1.9882 -2.2827
  247MOL     C149693   0.270   5.441   5.745 -0.0462  0.8520  0.0677
  247MOL     C249694   0.126   5.476   5.707 -0.2667 -0.4002  0.3154
  247MOL     C349695   0.075   5.450   5.580 -0.1181 -0.2603 -0.3625
  247MOL     C449696   7.918   5.484   5.536  0.3541 -0.8827 -0.1966
  247MOL     H549697   0.280   5.361   5.818 -0.0155  1.8261  1.1377
  247MOL     H649698   0.325   5.529   5.779  1.2783  0.9953 -2.3104
  247MOL     H749699   0.065   5.532   5.776  0.6582  1.8880 -0.6819
  247MOL     H849700   0.142   5.394   5.516 -0.7912 -2.4034  0.7381
  247MOL     H949701   7.928   5.569   5.468 -0.7820  0.5965  1.4380
  247MOL    H1049702   7.862   5.515   5.625 -0.3395 -0.0190 -0.9243
  247MOL    H1149703   0.315   5.412   5.650  0.4031 -0.9214  0.8084
  247MOL    C1249704   7.849   5.367   5.467  0.2030  0.3764  0.1692
  247MOL    C1349705   7.710   5.410   5.421  0.4972 -0.7466 -0.4933
  247MOL    C1449706   7.636   5.376   5.314  0.2270 -0.3882 -0.2813
  247MOL    C1549707   7.493   5.425   5.290 -0.2286 -0.1146  0.2773
  247MOL    H1649708   7.890   5.319   5.378 -0.5832 -1.7138  0.9288
  247MOL    H1749709   7.829   5.293   5.544  1.5195  1.4965  1.6054
  247MOL    H1849710   7.661   5.478   5.490 -1.6524 -1.0464 -1.6818
  247MOL    H1949711   7.675   5.312   5.236 -0.2263 -0.1722 -0.6852
  247MOL    H2049712   7.468   5.513   5.350  2.6755  1.9744 -1.4082
  247MOL    H2149713   7.414   5.353   5.309  0.2726 -0.7590 -0.0975
  247MOL    C2249714   7.478   5.466   5.146  0.2250 -0.6147 -0.9069
  247MOL    C2349715   7.346   5.526   5.102  0.2112  0.5566 -0.0840
  247MOL    C2449716   7.234   5.530   5.177 -0.1418 -0.1103 -0.4695
  247MOL    C2549717   7.109   5.609   5.140 -0.4592  0.8631  0.1465
  247MOL    H2649718   7.552   5.544   5.128 -1.3283  0.8139 -1.2313
  247MOL    H2749719   7.501   5.384   5.077 -1.7144 -1.0350 -1.0716
  247MOL    H2849720   7.357   5.569   5.003  0.4035  0.9793  0.1188
  247MOL    H2949721   7.244   5.499   5.280 -0.1344 -0.1909 -0.4947
  247MOL    H3049722   7.151   5.684   5.072  1.9234 -1.0278 -0.5549
  247MOL    H3149723   7.070   5.660   5.227  0.7209  2.7353 -0.3824
  247MOL    C3249724   6.994   5.527   5.085  0.9068  0.0556  0.0935
  247MOL    C3349725   6.867   5.609   5.086  0.3491 -0.1626  0.3743
  247MOL    C3449726   6.746   5.565   5.128 -0.8632 -0.7915  0.3002
  247MOL    C3549727   6.621   5.640   5.109  0.3521 -0.3601 -0.4231
  247MOL    H3649728   7.022   5.502   4.983 -0.6698 -0.7770 -0.1498
  247MOL    H3749729   6.986   5.434   5.142  1.3077  0.2853  0.5263
  247MOL    H3849730   6.868   5.702   5.031 -1.1390 -1.0037 -1.1221
  247MOL    H3949731   6.739   5.464   5.168  0.9530 -1.1607 -0.2725
  247MOL    H4049732   6.574   5.575   5.035  0.7505 -0.3744 -0.6642
  247MOL    H4149733   6.636   5.737   5.060 -0.1653 -0.7990 -1.4814
  247MOL    C4249734   6.538   5.658   5.236 -0.1633 -0.0273 -0.1647
  247MOL    C4349735   6.476   5.528   5.289 -0.2433  0.4041  0.6759
  247MOL    C4449736   6.352   5.524   5.346  0.3726 -0.3943 -0.0717
  247MOL    C4549737   6.298   5.400   5.419  0.1248 -0.0651 -0.1322
  247MOL    H4649738   6.610   5.687   5.311 -0.8953  2.5712 -0.4186
  247MOL    H4749739   6.470   5.743   5.233  0.8878  0.8523  1.0018
  247MOL    H4849740   6.537   5.439   5.277 -0.3906  0.2528  1.0513
  247MOL    H4949741   6.304   5.619   5.364 -0.4330 -0.9087  0.5445
  247MOL    H5049742   6.366   5.374   5.499 -1.1321 -1.7264  0.4260
  247MOL    H5149743   6.293   5.313   5.353  1.1867  0.3723 -0.8142
  247MOL    C5249744   6.156   5.420   5.475  0.3143 -0.1579  0.0266
  247MOL    C5349745   6.113   5.313   5.563  0.1444  0.4568 -0.8430
  247MOL    C5449746   6.063   5.332   5.688  0.0401 -0.5574 -0.0290
  247MOL    C5549747   6.022   5.228   5.784  0.5262  0.3911  0.2334
  247MOL    H5649748   6.159   5.509   5.539 -1.5202  0.0353 -0.1426
  247MOL    H5749749   6.086   5.432   5.392  0.0502  2.9634  0.6207
  247MOL    H5849750   6.108   5.212   5.525 -2.5614  0.4001 -0.4327
  247MOL    H5949751   6.047   5.435   5.718  1.5918  0.2320 -1.8009
  247MOL    H6049752   6.070   5.139   5.742 -0.5880 -0.5539  0.9546
  247MOL    H6149753   5.913   5.225   5.779  0.5312 -0.0002  0.3568
  247MOL    C6249754   6.079   5.263   5.915  0.5085  0.0315 -0.5891
  247MOL    C6349755   6.235   5.265   5.925 -0.8697 -0.2315 -0.4451
  247MOL    C6449756   6.305   5.362   5.987  0.8533  0.3647 -0.4199
  247MOL    C6549757   6.455   5.363   6.004  0.5058 -0.5998  0.2574
  247MOL    H6649758   6.037   5.359   5.944 -1.0645 -0.8837  0.2057
  247MOL    H6749759   6.036   5.196   5.989 -1.1737  1.1866 -0.4859
  247MOL    H6849760   6.287   5.183   5.878 -2.6808 -1.3670 -0.5472
  247MOL    H6949761   6.258   5.446   6.039  1.3186 -0.3344  1.1688
  247MOL    H7049762   6.496   5.455   5.962 -1.2981 -0.0246 -0.2962
  247MOL    H7149763   6.489   5.281   5.941 -0.2184  0.4270 -1.5198
  247MOL    C7249764   6.495   5.332   6.153 -0.1074 -0.2733 -0.3874
  247MOL    C7349765   6.456   5.191   6.201 -0.9054  0.0532  0.2915
  247MOL    C7449766   6.454   5.076   6.125 -1.0606  0.6987 -0.4783
  247MOL    C7549767   6.420   4.934   6.168 -0.5227  0.4325 -0.0977
  247MOL    H7649768   6.601   5.346   6.175 -0.1743  0.7591 -0.6938
  247MOL    H7749769   6.438   5.392   6.223 -0.1100 -2.6273  1.7077
  247MOL    H7849770   6.426   5.178   6.304  0.8727 -1.5046  0.6346
  247MOL    H7949771   6.489   5.084   6.023 -0.2510 -0.9155 -0.3418
  247MOL    H8049772   6.376   4.925   6.267  0.4496 -1.1110  0.2129
  247MOL    H8149773   6.519   4.889   6.175  1.3156  4.1557 -0.7364
  247MOL    C8249774   6.343   4.854   6.068  0.1041  0.8712 -0.2686
  247MOL    C8349775   6.288   4.718   6.124 -0.5206  0.4002  0.7535
  247MOL    C8449776   6.171   4.684   6.176  0.0950 -0.3631 -0.0605
  247MOL    C8549777   6.135   4.554   6.230  0.5324 -0.0565  0.7979
  247MOL    H8649778   6.254   4.910   6.040 -0.4678 -0.0361 -0.2976
  247MOL    H8749779   6.396   4.851   5.973 -1.5324  0.6209 -1.2000
  247MOL    H8849780   6.360   4.639   6.108  0.7223  1.7903 -0.6756
  247MOL    H8949781   6.098   4.763   6.187  0.1427 -0.3979  0.5285
  247MOL    H9049782   6.165   4.559   6.335  2.2112 -0.4854  0.3615
  247MOL    H9149783   6.192   4.476   6.180 -1.4324  0.1614 -1.8692
  247MOL    C9249784   5.985   4.525   6.206  0.1049 -0.8107  0.3060
  247MOL    C9349785   5.946   4.396   6.275  0.4897  0.1317  0.1744
  247MOL    C9449786   5.893   4.294   6.208  0.5386  0.2919  0.5262
  247MOL    C9549787   5.855   4.167   6.270  0.1203 -0.0107  0.4740
  247MOL    H9649788   5.916   4.601   6.244 -0.5427 -1.3721  0.2564
  247MOL    H9749789   5.963   4.518   6.099 -2.1756 -0.1004  0.7113
  247MOL    H9849790   5.965   4.391   6.381  0.9507  0.4885  0.1106
  247MOL    H9949791   5.875   4.302   6.102  0.3690  2.0746  0.6820
  247MOL   H10049792   5.914   4.155   6.361 -0.0386 -2.9777  0.2140
  247MOL   H10149793   5.875   4.097   6.189 -1.5703  1.3201 -1.1359
  247MOL   C10249794   5.706   4.159   6.303 -0.0118 -0.7387 -0.6815
  247MOL   C10349795   5.610   4.137   6.191 -0.0086  0.1291  0.1140
  247MOL   C10449796   5.543   4.228   6.126  0.2065  0.3916  0.3946
  247MOL   C10549797   5.453   4.210   6.002  0.1729  0.6070  0.0008
  247MOL   H10649798   5.699   4.070   6.365  1.4018 -0.8301 -0.6359
  247MOL   H10749799   5.672   4.245   6.362  2.9683  1.5594 -2.1923
  247MOL   H10849800   5.616   4.033   6.161 -0.7507  0.2110 -0.3361
  247MOL   H10949801   5.556   4.328   6.164  0.4553 -0.6270  3.0357
  247MOL   H11049802   5.446   4.105   5.973  0.3644  0.4457  0.5271
  247MOL   H11149803   5.506   4.267   5.926  2.6608 -1.6212 -0.0104
  247MOL   C11249804   5.317   4.257   6.042  0.1936 -0.0675 -0.3356
  247MOL   C11349805   5.266   4.210   6.183 -0.6012 -0.1191 -0.2678
  247MOL   C11449806   5.153   4.137   6.200  0.0220 -0.0594 -0.1140
  247MOL   C11549807   5.121   4.093   6.336  0.3353 -0.9321  1.5868
  247MOL   H11649808   5.313   4.366   6.044  0.0351 -0.0423 -1.5702
  247MOL   H11749809   5.260   4.227   5.954  0.7453  0.7399 -0.9771
  247MOL   H11849810   5.324   4.235   6.271 -0.7521  0.5007 -0.3395
  247MOL   H11949811   5.088   4.111   6.117  0.3952 -0.5679 -0.2575
  247MOL   H12049812   5.027   4.142   6.359  0.0855 -1.5234  1.8513
  247MOL   H12149813   5.197   4.135   6.401 -0.9924  4.0492  0.0917
  247MOL   C12249814   5.118   3.945   6.341  0.4160 -0.0928 -0.2361
  247MOL   C12349815   5.051   3.904   6.470  0.7676  0.5484 -0.8217
  247MOL   C12449816   5.118   3.831   6.562 -0.4470  0.3567  0.5126
  247MOL   C12549817   5.051   3.796   6.690 -0.1729 -0.6112  0.3985
  247MOL   H12649818   5.061   3.894   6.263 -1.8997  1.3305  0.4616
  247MOL   H12749819   5.223   3.917   6.339  0.9745  2.0150 -2.1200
  247MOL   H12849820   4.945   3.918   6.485  0.7466 -1.2860  0.9308
  247MOL   H12949821   5.220   3.796   6.559 -0.6031 -0.2535  1.7304
  247MOL   H13049822   4.998   3.701   6.679 -1.3350  0.1840 -1.0530
  247MOL   H13149823   4.973   3.871   6.705  0.1738 -0.4526  1.5098
  247MOL   C13249824   5.139   3.777   6.815 -0.1307 -0.5854 -0.0269
  247MOL   C13349825   5.081   3.824   6.947 -0.2820  0.4283  0.2203
  247MOL   C13449826   5.108   3.940   7.001 -0.1938  0.0772  0.6333
  247MOL   C13549827   5.051   3.996   7.133 -0.1890 -0.4816 -0.4316
  247MOL   H13649828   5.158   3.670   6.830 -2.0587 -0.9625 -0.1256
  247MOL   H13749829   5.230   3.836   6.808  0.3841 -0.8100  3.7781
  247MOL   H13849830   5.024   3.751   7.003 -1.1717  0.9387 -0.0025
  247MOL   H13949831   5.165   4.012   6.944 -1.8299  1.1790  0.3375
  247MOL   H14049832   5.001   3.914   7.185 -1.6497  0.7822  0.1859
  247MOL   H14149833   4.971   4.067   7.112 -0.1772  0.2285  1.7778
  247MOL   C14249834   5.149   4.061   7.228  0.1593  0.0511 -0.0593
  247MOL   C14349835   5.263   3.967   7.250  0.1274 -0.5042  0.1983
  247MOL   C14449836   5.313   3.946   7.374  0.3543  0.5735 -0.1154
  247MOL   C14549837   5.432   3.861   7.403  0.3233 -0.0392 -1.3023
  247MOL   H14649838   5.181   4.156   7.185  1.8634 -1.7637 -2.9582
  247MOL   H14749839   5.102   4.083   7.323 -0.0981  0.3608 -0.2587
  247MOL   H14849840   5.324   3.930   7.169 -0.6854  0.1612 -0.7280
  247MOL   H14949841   5.272   3.981   7.468  0.9281 -1.7149  1.0393
  247MOL   H15049842   5.451   3.811   7.308  1.8043 -0.9226 -0.5543
  247MOL   H15149843   5.394   3.790   7.476 -0.2514  0.4775 -1.0985
  247MOL   C15249844   5.550   3.941   7.454 -0.0282 -0.0272 -0.0540
  247MOL   C15349845   5.663   3.841   7.490  0.7423 -0.2885  0.2329
  247MOL   C15449846   5.736   3.838   7.600  0.5270  0.4032 -0.7332
  247MOL   C15549847   5.857   3.750   7.619 -0.0659 -0.2897  0.8703
  247MOL   H15649848   5.601   3.993   7.373  0.2088 -0.7690 -0.3885
  247MOL   H15749849   5.526   4.017   7.528  0.7308 -1.3769  1.6319
  247MOL   H15849850   5.669   3.771   7.408 -2.2822  2.7433 -2.7592
  247MOL   H15949851   5.726   3.916   7.675 -0.8384 -0.3272 -0.1335
  247MOL   H16049852   5.819   3.664   7.673 -1.8181  0.5906  1.0753
  247MOL   H16149853   5.929   3.813   7.672 -0.7294  1.7621 -0.5609
  247MOL   C16249854   5.927   3.697   7.487 -0.1150  0.0556 -0.1531
  247MOL   C16349855   6.020   3.793   7.428 -0.1498  0.5804 -0.6629
  247MOL   C16449856   5.994   3.877   7.324  0.1599  0.0385  0.2974
  247MOL   C16549857   6.085   3.982   7.275 -0.9559 -0.6243 -0.3045
  247MOL   H16649858   5.992   3.613   7.510  0.1139 -0.7612 -3.4774
  247MOL   H16749859   5.859   3.662   7.409 -1.4225  1.3566  0.3851
  247MOL   H16849860   6.116   3.793   7.479  0.3412 -1.7243 -1.5510
  247MOL   H16949861   5.897   3.865   7.278 -0.1268 -0.5360  1.0339
  247MOL   H17049862   6.115   3.970   7.171 -1.9737 -0.4100 -0.6323
  247MOL   H17149863   6.181   3.959   7.320  0.1103  1.1168 -1.6190
  247MOL   C17249864   6.041   4.118   7.322  0.1661 -0.5270 -0.2161
  247MOL   C17349865   5.945   4.190   7.238  0.1679  0.5925 -0.1091
  247MOL   C17449866   5.816   4.209   7.274  0.4289 -0.2013 -0.3330
  247MOL   C17549867   5.712   4.291   7.204  0.2341 -0.0914  0.2668
  247MOL   H17649868   6.017   4.121   7.429 -1.7111 -0.2143 -0.6264
  247MOL   H17749869   6.131   4.179   7.312 -0.2579  0.3928  1.3108
  247MOL   H17849870   5.978   4.241   7.149 -0.4514  0.8435 -0.1904
  247MOL   H17949871   5.775   4.173   7.367 -0.9103 -1.3807 -1.3564
  247MOL   H18049872   5.742   4.309   7.101 -2.3763  1.4342 -0.2653
  247MOL   H18149873   5.710   4.387   7.256  1.6722 -1.2505  2.6006
  247MOL   C18249874   5.573   4.225   7.206 -0.2557 -0.3118  0.2206
  247MOL   C18349875   5.477   4.318   7.139  0.0246  0.3722 -0.4751
  247MOL   C18449876   5.431   4.289   7.012 -0.6640 -0.5836  0.9782
  247MOL   C18549877   5.342   4.374   6.918 -0.4737 -0.1423 -0.0318
  247MOL   H18649878   5.585   4.127   7.161  2.7681 -0.3067  0.9194
  247MOL   H18749879   5.529   4.218   7.305  1.0043  1.1680  0.9174
  247MOL   H18849880   5.455   4.412   7.188  0.8289 -1.2883  3.2889
  247MOL   H18949881   5.468   4.201   6.962  1.5335  1.0163 -0.3048
  247MOL   H19049882   5.344   4.480   6.944 -2.0105  0.0207 -0.5370
  247MOL   H19149883   5.237   4.343   6.923 -0.5894 -0.3241 -2.7528
  247MOL   C19249884   5.385   4.375   6.771  0.4671 -0.4578 -0.0224
  247MOL   C19349885   5.383   4.244   6.707 -0.0616  0.1173  0.6370
  247MOL   C19449886   5.478   4.191   6.622 -0.1415  0.0333  0.4108
  247MOL   C19549887   5.476   4.057   6.554 -0.1739  0.2467  0.2840
  247MOL   H19649888   5.322   4.447   6.718  0.5474  0.4196  1.0624
  247MOL   H19749889   5.481   4.426   6.767 -0.3692  1.0684 -2.0367
  247MOL   H19849890   5.298   4.184   6.737  0.4872 -0.9395  0.1088
  247MOL   H19949891   5.565   4.253   6.612 -0.2038  0.1209  0.4162
  247MOL   H20049892   5.374   4.020   6.560 -0.3466  0.5763 -0.6191
  247MOL   H20149893   5.544   3.979   6.588  0.4211  0.4663 -0.3898
  247MOL   H20249894   5.488   4.086   6.450 -0.9933  0.3653  0.2153
   7.97694   7.97694   7.97694
