;
; Gromacs include topology (itp) file.
; For Molecular Group XYZ
; Force field scheme: opls2005
; Produced from DL_FIELD v4.11
;


[ moleculetype ]
; name    nrexcl
XYZ    3

[ atoms ]
; nr   type   resnr   residu    atom    cgnr    charge    mass
    1        CT    1  MOL      C1     1  -0.1800000   12.0115
    2       CME    1  MOL      C2     2  -0.1150000   12.0115
    3       CME    1  MOL      C3     3  -0.1150000   12.0115
    4        CT    1  MOL      C4     4  -0.1200000   12.0115
    5        HC    1  MOL      H5     5   0.0600000    1.0080
    6        HC    1  MOL      H6     6   0.0600000    1.0080
    7        HE    1  MOL      H7     7   0.1150000    1.0080
    8        HE    1  MOL      H8     8   0.1150000    1.0080
    9        HC    1  MOL      H9     9   0.0600000    1.0080
   10        HC    1  MOL     H10    10   0.0600000    1.0080
   11        HC    1  MOL     H11    11   0.0600000    1.0080
   12        CT    1  MOL     C12    12  -0.1200000   12.0115
   13       CME    1  MOL     C13    13  -0.1150000   12.0115
   14       CME    1  MOL     C14    14  -0.1150000   12.0115
   15        CT    1  MOL     C15    15  -0.1200000   12.0115
   16        HC    1  MOL     H16    16   0.0600000    1.0080
   17        HC    1  MOL     H17    17   0.0600000    1.0080
   18        HE    1  MOL     H18    18   0.1150000    1.0080
   19        HE    1  MOL     H19    19   0.1150000    1.0080
   20        HC    1  MOL     H20    20   0.0600000    1.0080
   21        HC    1  MOL     H21    21   0.0600000    1.0080
   22        CT    1  MOL     C22    22  -0.1200000   12.0115
   23       CME    1  MOL     C23    23  -0.1150000   12.0115
   24       CME    1  MOL     C24    24  -0.1150000   12.0115
   25        CT    1  MOL     C25    25  -0.1200000   12.0115
   26        HC    1  MOL     H26    26   0.0600000    1.0080
   27        HC    1  MOL     H27    27   0.0600000    1.0080
   28        HE    1  MOL     H28    28   0.1150000    1.0080
   29        HE    1  MOL     H29    29   0.1150000    1.0080
   30        HC    1  MOL     H30    30   0.0600000    1.0080
   31        HC    1  MOL     H31    31   0.0600000    1.0080
   32        CT    1  MOL     C32    32  -0.1200000   12.0115
   33       CME    1  MOL     C33    33  -0.1150000   12.0115
   34       CME    1  MOL     C34    34  -0.1150000   12.0115
   35        CT    1  MOL     C35    35  -0.1200000   12.0115
   36        HC    1  MOL     H36    36   0.0600000    1.0080
   37        HC    1  MOL     H37    37   0.0600000    1.0080
   38        HE    1  MOL     H38    38   0.1150000    1.0080
   39        HE    1  MOL     H39    39   0.1150000    1.0080
   40        HC    1  MOL     H40    40   0.0600000    1.0080
   41        HC    1  MOL     H41    41   0.0600000    1.0080
   42        CT    1  MOL     C42    42  -0.1200000   12.0115
   43       CME    1  MOL     C43    43  -0.1150000   12.0115
   44       CME    1  MOL     C44    44  -0.1150000   12.0115
   45        CT    1  MOL     C45    45  -0.1200000   12.0115
   46        HC    1  MOL     H46    46   0.0600000    1.0080
   47        HC    1  MOL     H47    47   0.0600000    1.0080
   48        HE    1  MOL     H48    48   0.1150000    1.0080
   49        HE    1  MOL     H49    49   0.1150000    1.0080
   50        HC    1  MOL     H50    50   0.0600000    1.0080
   51        HC    1  MOL     H51    51   0.0600000    1.0080
   52        CT    1  MOL     C52    52  -0.1200000   12.0115
   53       CME    1  MOL     C53    53  -0.1150000   12.0115
   54       CME    1  MOL     C54    54  -0.1150000   12.0115
   55        CT    1  MOL     C55    55  -0.1200000   12.0115
   56        HC    1  MOL     H56    56   0.0600000    1.0080
   57        HC    1  MOL     H57    57   0.0600000    1.0080
   58        HE    1  MOL     H58    58   0.1150000    1.0080
   59        HE    1  MOL     H59    59   0.1150000    1.0080
   60        HC    1  MOL     H60    60   0.0600000    1.0080
   61        HC    1  MOL     H61    61   0.0600000    1.0080
   62        CT    1  MOL     C62    62  -0.1200000   12.0115
   63       CME    1  MOL     C63    63  -0.1150000   12.0115
   64       CME    1  MOL     C64    64  -0.1150000   12.0115
   65        CT    1  MOL     C65    65  -0.1200000   12.0115
   66        HC    1  MOL     H66    66   0.0600000    1.0080
   67        HC    1  MOL     H67    67   0.0600000    1.0080
   68        HE    1  MOL     H68    68   0.1150000    1.0080
   69        HE    1  MOL     H69    69   0.1150000    1.0080
   70        HC    1  MOL     H70    70   0.0600000    1.0080
   71        HC    1  MOL     H71    71   0.0600000    1.0080
   72        CT    1  MOL     C72    72  -0.1200000   12.0115
   73       CME    1  MOL     C73    73  -0.1150000   12.0115
   74       CME    1  MOL     C74    74  -0.1150000   12.0115
   75        CT    1  MOL     C75    75  -0.1200000   12.0115
   76        HC    1  MOL     H76    76   0.0600000    1.0080
   77        HC    1  MOL     H77    77   0.0600000    1.0080
   78        HE    1  MOL     H78    78   0.1150000    1.0080
   79        HE    1  MOL     H79    79   0.1150000    1.0080
   80        HC    1  MOL     H80    80   0.0600000    1.0080
   81        HC    1  MOL     H81    81   0.0600000    1.0080
   82        CT    1  MOL     C82    82  -0.1200000   12.0115
   83       CME    1  MOL     C83    83  -0.1150000   12.0115
   84       CME    1  MOL     C84    84  -0.1150000   12.0115
   85        CT    1  MOL     C85    85  -0.1200000   12.0115
   86        HC    1  MOL     H86    86   0.0600000    1.0080
   87        HC    1  MOL     H87    87   0.0600000    1.0080
   88        HE    1  MOL     H88    88   0.1150000    1.0080
   89        HE    1  MOL     H89    89   0.1150000    1.0080
   90        HC    1  MOL     H90    90   0.0600000    1.0080
   91        HC    1  MOL     H91    91   0.0600000    1.0080
   92        CT    1  MOL     C92    92  -0.1200000   12.0115
   93       CME    1  MOL     C93    93  -0.1150000   12.0115
   94       CME    1  MOL     C94    94  -0.1150000   12.0115
   95        CT    1  MOL     C95    95  -0.1200000   12.0115
   96        HC    1  MOL     H96    96   0.0600000    1.0080
   97        HC    1  MOL     H97    97   0.0600000    1.0080
   98        HE    1  MOL     H98    98   0.1150000    1.0080
   99        HE    1  MOL     H99    99   0.1150000    1.0080
  100        HC    1  MOL    H100   100   0.0600000    1.0080
  101        HC    1  MOL    H101   101   0.0600000    1.0080
  102        CT    1  MOL    C102   102  -0.1200000   12.0115
  103       CME    1  MOL    C103   103  -0.1150000   12.0115
  104       CME    1  MOL    C104   104  -0.1150000   12.0115
  105        CT    1  MOL    C105   105  -0.1200000   12.0115
  106        HC    1  MOL    H106   106   0.0600000    1.0080
  107        HC    1  MOL    H107   107   0.0600000    1.0080
  108        HE    1  MOL    H108   108   0.1150000    1.0080
  109        HE    1  MOL    H109   109   0.1150000    1.0080
  110        HC    1  MOL    H110   110   0.0600000    1.0080
  111        HC    1  MOL    H111   111   0.0600000    1.0080
  112        CT    1  MOL    C112   112  -0.1200000   12.0115
  113       CME    1  MOL    C113   113  -0.1150000   12.0115
  114       CME    1  MOL    C114   114  -0.1150000   12.0115
  115        CT    1  MOL    C115   115  -0.1200000   12.0115
  116        HC    1  MOL    H116   116   0.0600000    1.0080
  117        HC    1  MOL    H117   117   0.0600000    1.0080
  118        HE    1  MOL    H118   118   0.1150000    1.0080
  119        HE    1  MOL    H119   119   0.1150000    1.0080
  120        HC    1  MOL    H120   120   0.0600000    1.0080
  121        HC    1  MOL    H121   121   0.0600000    1.0080
  122        CT    1  MOL    C122   122  -0.1200000   12.0115
  123       CME    1  MOL    C123   123  -0.1150000   12.0115
  124       CME    1  MOL    C124   124  -0.1150000   12.0115
  125        CT    1  MOL    C125   125  -0.1200000   12.0115
  126        HC    1  MOL    H126   126   0.0600000    1.0080
  127        HC    1  MOL    H127   127   0.0600000    1.0080
  128        HE    1  MOL    H128   128   0.1150000    1.0080
  129        HE    1  MOL    H129   129   0.1150000    1.0080
  130        HC    1  MOL    H130   130   0.0600000    1.0080
  131        HC    1  MOL    H131   131   0.0600000    1.0080
  132        CT    1  MOL    C132   132  -0.1200000   12.0115
  133       CME    1  MOL    C133   133  -0.1150000   12.0115
  134       CME    1  MOL    C134   134  -0.1150000   12.0115
  135        CT    1  MOL    C135   135  -0.1200000   12.0115
  136        HC    1  MOL    H136   136   0.0600000    1.0080
  137        HC    1  MOL    H137   137   0.0600000    1.0080
  138        HE    1  MOL    H138   138   0.1150000    1.0080
  139        HE    1  MOL    H139   139   0.1150000    1.0080
  140        HC    1  MOL    H140   140   0.0600000    1.0080
  141        HC    1  MOL    H141   141   0.0600000    1.0080
  142        CT    1  MOL    C142   142  -0.1200000   12.0115
  143       CME    1  MOL    C143   143  -0.1150000   12.0115
  144       CME    1  MOL    C144   144  -0.1150000   12.0115
  145        CT    1  MOL    C145   145  -0.1200000   12.0115
  146        HC    1  MOL    H146   146   0.0600000    1.0080
  147        HC    1  MOL    H147   147   0.0600000    1.0080
  148        HE    1  MOL    H148   148   0.1150000    1.0080
  149        HE    1  MOL    H149   149   0.1150000    1.0080
  150        HC    1  MOL    H150   150   0.0600000    1.0080
  151        HC    1  MOL    H151   151   0.0600000    1.0080
  152        CT    1  MOL    C152   152  -0.1200000   12.0115
  153       CME    1  MOL    C153   153  -0.1150000   12.0115
  154       CME    1  MOL    C154   154  -0.1150000   12.0115
  155        CT    1  MOL    C155   155  -0.1200000   12.0115
  156        HC    1  MOL    H156   156   0.0600000    1.0080
  157        HC    1  MOL    H157   157   0.0600000    1.0080
  158        HE    1  MOL    H158   158   0.1150000    1.0080
  159        HE    1  MOL    H159   159   0.1150000    1.0080
  160        HC    1  MOL    H160   160   0.0600000    1.0080
  161        HC    1  MOL    H161   161   0.0600000    1.0080
  162        CT    1  MOL    C162   162  -0.1200000   12.0115
  163       CME    1  MOL    C163   163  -0.1150000   12.0115
  164       CME    1  MOL    C164   164  -0.1150000   12.0115
  165        CT    1  MOL    C165   165  -0.1200000   12.0115
  166        HC    1  MOL    H166   166   0.0600000    1.0080
  167        HC    1  MOL    H167   167   0.0600000    1.0080
  168        HE    1  MOL    H168   168   0.1150000    1.0080
  169        HE    1  MOL    H169   169   0.1150000    1.0080
  170        HC    1  MOL    H170   170   0.0600000    1.0080
  171        HC    1  MOL    H171   171   0.0600000    1.0080
  172        CT    1  MOL    C172   172  -0.1200000   12.0115
  173       CME    1  MOL    C173   173  -0.1150000   12.0115
  174       CME    1  MOL    C174   174  -0.1150000   12.0115
  175        CT    1  MOL    C175   175  -0.1200000   12.0115
  176        HC    1  MOL    H176   176   0.0600000    1.0080
  177        HC    1  MOL    H177   177   0.0600000    1.0080
  178        HE    1  MOL    H178   178   0.1150000    1.0080
  179        HE    1  MOL    H179   179   0.1150000    1.0080
  180        HC    1  MOL    H180   180   0.0600000    1.0080
  181        HC    1  MOL    H181   181   0.0600000    1.0080
  182        CT    1  MOL    C182   182  -0.1200000   12.0115
  183       CME    1  MOL    C183   183  -0.1150000   12.0115
  184       CME    1  MOL    C184   184  -0.1150000   12.0115
  185        CT    1  MOL    C185   185  -0.1200000   12.0115
  186        HC    1  MOL    H186   186   0.0600000    1.0080
  187        HC    1  MOL    H187   187   0.0600000    1.0080
  188        HE    1  MOL    H188   188   0.1150000    1.0080
  189        HE    1  MOL    H189   189   0.1150000    1.0080
  190        HC    1  MOL    H190   190   0.0600000    1.0080
  191        HC    1  MOL    H191   191   0.0600000    1.0080
  192        CT    1  MOL    C192   192  -0.1200000   12.0115
  193       CME    1  MOL    C193   193  -0.1150000   12.0115
  194       CME    1  MOL    C194   194  -0.1150000   12.0115
  195        CT    1  MOL    C195   195  -0.1800000   12.0115
  196        HC    1  MOL    H196   196   0.0600000    1.0080
  197        HC    1  MOL    H197   197   0.0600000    1.0080
  198        HE    1  MOL    H198   198   0.1150000    1.0080
  199        HE    1  MOL    H199   199   0.1150000    1.0080
  200        HC    1  MOL    H200   200   0.0600000    1.0080
  201        HC    1  MOL    H201   201   0.0600000    1.0080
  202        HC    1  MOL    H202   202   0.0600000    1.0080

[ bonds ]
      1      2   1      0.1510 265265.6000
      1      5   1      0.1090 284512.0000
      1      6   1      0.1090 284512.0000
      1     11   1      0.1090 284512.0000
      2      3   1      0.1340 459403.2000
      2      7   1      0.1080 284512.0000
      3      4   1      0.1510 265265.6000
      3      8   1      0.1080 284512.0000
      4      9   1      0.1090 284512.0000
      4     10   1      0.1090 284512.0000
      4     12   1      0.1529 224262.4000
     12     13   1      0.1510 265265.6000
     12     16   1      0.1090 284512.0000
     12     17   1      0.1090 284512.0000
     13     14   1      0.1340 459403.2000
     13     18   1      0.1080 284512.0000
     14     15   1      0.1510 265265.6000
     14     19   1      0.1080 284512.0000
     15     20   1      0.1090 284512.0000
     15     21   1      0.1090 284512.0000
     15     22   1      0.1529 224262.4000
     22     23   1      0.1510 265265.6000
     22     26   1      0.1090 284512.0000
     22     27   1      0.1090 284512.0000
     23     24   1      0.1340 459403.2000
     23     28   1      0.1080 284512.0000
     24     25   1      0.1510 265265.6000
     24     29   1      0.1080 284512.0000
     25     30   1      0.1090 284512.0000
     25     31   1      0.1090 284512.0000
     25     32   1      0.1529 224262.4000
     32     33   1      0.1510 265265.6000
     32     36   1      0.1090 284512.0000
     32     37   1      0.1090 284512.0000
     33     34   1      0.1340 459403.2000
     33     38   1      0.1080 284512.0000
     34     35   1      0.1510 265265.6000
     34     39   1      0.1080 284512.0000
     35     40   1      0.1090 284512.0000
     35     41   1      0.1090 284512.0000
     35     42   1      0.1529 224262.4000
     42     43   1      0.1510 265265.6000
     42     46   1      0.1090 284512.0000
     42     47   1      0.1090 284512.0000
     43     44   1      0.1340 459403.2000
     43     48   1      0.1080 284512.0000
     44     45   1      0.1510 265265.6000
     44     49   1      0.1080 284512.0000
     45     50   1      0.1090 284512.0000
     45     51   1      0.1090 284512.0000
     45     52   1      0.1529 224262.4000
     52     53   1      0.1510 265265.6000
     52     56   1      0.1090 284512.0000
     52     57   1      0.1090 284512.0000
     53     54   1      0.1340 459403.2000
     53     58   1      0.1080 284512.0000
     54     55   1      0.1510 265265.6000
     54     59   1      0.1080 284512.0000
     55     60   1      0.1090 284512.0000
     55     61   1      0.1090 284512.0000
     55     62   1      0.1529 224262.4000
     62     63   1      0.1510 265265.6000
     62     66   1      0.1090 284512.0000
     62     67   1      0.1090 284512.0000
     63     64   1      0.1340 459403.2000
     63     68   1      0.1080 284512.0000
     64     65   1      0.1510 265265.6000
     64     69   1      0.1080 284512.0000
     65     70   1      0.1090 284512.0000
     65     71   1      0.1090 284512.0000
     65     72   1      0.1529 224262.4000
     72     73   1      0.1510 265265.6000
     72     76   1      0.1090 284512.0000
     72     77   1      0.1090 284512.0000
     73     74   1      0.1340 459403.2000
     73     78   1      0.1080 284512.0000
     74     75   1      0.1510 265265.6000
     74     79   1      0.1080 284512.0000
     75     80   1      0.1090 284512.0000
     75     81   1      0.1090 284512.0000
     75     82   1      0.1529 224262.4000
     82     83   1      0.1510 265265.6000
     82     86   1      0.1090 284512.0000
     82     87   1      0.1090 284512.0000
     83     84   1      0.1340 459403.2000
     83     88   1      0.1080 284512.0000
     84     85   1      0.1510 265265.6000
     84     89   1      0.1080 284512.0000
     85     90   1      0.1090 284512.0000
     85     91   1      0.1090 284512.0000
     85     92   1      0.1529 224262.4000
     92     93   1      0.1510 265265.6000
     92     96   1      0.1090 284512.0000
     92     97   1      0.1090 284512.0000
     93     94   1      0.1340 459403.2000
     93     98   1      0.1080 284512.0000
     94     95   1      0.1510 265265.6000
     94     99   1      0.1080 284512.0000
     95    100   1      0.1090 284512.0000
     95    101   1      0.1090 284512.0000
     95    102   1      0.1529 224262.4000
    102    103   1      0.1510 265265.6000
    102    106   1      0.1090 284512.0000
    102    107   1      0.1090 284512.0000
    103    104   1      0.1340 459403.2000
    103    108   1      0.1080 284512.0000
    104    105   1      0.1510 265265.6000
    104    109   1      0.1080 284512.0000
    105    110   1      0.1090 284512.0000
    105    111   1      0.1090 284512.0000
    105    112   1      0.1529 224262.4000
    112    113   1      0.1510 265265.6000
    112    116   1      0.1090 284512.0000
    112    117   1      0.1090 284512.0000
    113    114   1      0.1340 459403.2000
    113    118   1      0.1080 284512.0000
    114    115   1      0.1510 265265.6000
    114    119   1      0.1080 284512.0000
    115    120   1      0.1090 284512.0000
    115    121   1      0.1090 284512.0000
    115    122   1      0.1529 224262.4000
    122    123   1      0.1510 265265.6000
    122    126   1      0.1090 284512.0000
    122    127   1      0.1090 284512.0000
    123    124   1      0.1340 459403.2000
    123    128   1      0.1080 284512.0000
    124    125   1      0.1510 265265.6000
    124    129   1      0.1080 284512.0000
    125    130   1      0.1090 284512.0000
    125    131   1      0.1090 284512.0000
    125    132   1      0.1529 224262.4000
    132    133   1      0.1510 265265.6000
    132    136   1      0.1090 284512.0000
    132    137   1      0.1090 284512.0000
    133    134   1      0.1340 459403.2000
    133    138   1      0.1080 284512.0000
    134    135   1      0.1510 265265.6000
    134    139   1      0.1080 284512.0000
    135    140   1      0.1090 284512.0000
    135    141   1      0.1090 284512.0000
    135    142   1      0.1529 224262.4000
    142    143   1      0.1510 265265.6000
    142    146   1      0.1090 284512.0000
    142    147   1      0.1090 284512.0000
    143    144   1      0.1340 459403.2000
    143    148   1      0.1080 284512.0000
    144    145   1      0.1510 265265.6000
    144    149   1      0.1080 284512.0000
    145    150   1      0.1090 284512.0000
    145    151   1      0.1090 284512.0000
    145    152   1      0.1529 224262.4000
    152    153   1      0.1510 265265.6000
    152    156   1      0.1090 284512.0000
    152    157   1      0.1090 284512.0000
    153    154   1      0.1340 459403.2000
    153    158   1      0.1080 284512.0000
    154    155   1      0.1510 265265.6000
    154    159   1      0.1080 284512.0000
    155    160   1      0.1090 284512.0000
    155    161   1      0.1090 284512.0000
    155    162   1      0.1529 224262.4000
    162    163   1      0.1510 265265.6000
    162    166   1      0.1090 284512.0000
    162    167   1      0.1090 284512.0000
    163    164   1      0.1340 459403.2000
    163    168   1      0.1080 284512.0000
    164    165   1      0.1510 265265.6000
    164    169   1      0.1080 284512.0000
    165    170   1      0.1090 284512.0000
    165    171   1      0.1090 284512.0000
    165    172   1      0.1529 224262.4000
    172    173   1      0.1510 265265.6000
    172    176   1      0.1090 284512.0000
    172    177   1      0.1090 284512.0000
    173    174   1      0.1340 459403.2000
    173    178   1      0.1080 284512.0000
    174    175   1      0.1510 265265.6000
    174    179   1      0.1080 284512.0000
    175    180   1      0.1090 284512.0000
    175    181   1      0.1090 284512.0000
    175    182   1      0.1529 224262.4000
    182    183   1      0.1510 265265.6000
    182    186   1      0.1090 284512.0000
    182    187   1      0.1090 284512.0000
    183    184   1      0.1340 459403.2000
    183    188   1      0.1080 284512.0000
    184    185   1      0.1510 265265.6000
    184    189   1      0.1080 284512.0000
    185    190   1      0.1090 284512.0000
    185    191   1      0.1090 284512.0000
    185    192   1      0.1529 224262.4000
    192    193   1      0.1510 265265.6000
    192    196   1      0.1090 284512.0000
    192    197   1      0.1090 284512.0000
    193    194   1      0.1340 459403.2000
    193    198   1      0.1080 284512.0000
    194    195   1      0.1510 265265.6000
    194    199   1      0.1080 284512.0000
    195    200   1      0.1090 284512.0000
    195    201   1      0.1090 284512.0000
    195    202   1      0.1090 284512.0000

[ pairs ]
; ai   aj   funct   fudge_QQ  charge_i   charge_j   c6    c12
      5      3   2   0.50000     0.0600000   -0.1150000   2.793149e-04  1.952537e-07
      5      7   2   0.50000     0.0600000    0.1150000   5.559158e-05  1.231049e-08
      6      3   2   0.50000     0.0600000   -0.1150000   2.793149e-04  1.952537e-07
      6      7   2   0.50000     0.0600000    0.1150000   5.559158e-05  1.231049e-08
     11      3   2   0.50000     0.0600000   -0.1150000   2.793149e-04  1.952537e-07
     11      7   2   0.50000     0.0600000    0.1150000   5.559158e-05  1.231049e-08
      1      4   2   0.50000    -0.1800000   -0.1200000   1.015252e-03  1.866303e-06
      1      8   2   0.50000    -0.1800000    0.1150000   2.262583e-04  1.374848e-07
      7      4   2   0.50000     0.1150000   -0.1200000   2.262583e-04  1.374848e-07
      7      8   2   0.50000     0.1150000    0.1150000   5.042375e-05  1.012808e-08
      2      9   2   0.50000    -0.1150000    0.0600000   2.793149e-04  1.952537e-07
      2     10   2   0.50000    -0.1150000    0.0600000   2.793149e-04  1.952537e-07
      2     12   2   0.50000    -0.1150000   -0.1200000   1.136815e-03  2.180614e-06
      8      9   2   0.50000     0.1150000    0.0600000   5.559158e-05  1.231049e-08
      8     10   2   0.50000     0.1150000    0.0600000   5.559158e-05  1.231049e-08
      8     12   2   0.50000     0.1150000   -0.1200000   2.262583e-04  1.374848e-07
      3     13   2   0.50000    -0.1150000   -0.1150000   1.272933e-03  2.547860e-06
      3     16   2   0.50000    -0.1150000    0.0600000   2.793149e-04  1.952537e-07
      3     17   2   0.50000    -0.1150000    0.0600000   2.793149e-04  1.952537e-07
      9     13   2   0.50000     0.0600000   -0.1150000   2.793149e-04  1.952537e-07
      9     16   2   0.50000     0.0600000    0.0600000   6.128906e-05  1.496315e-08
      9     17   2   0.50000     0.0600000    0.0600000   6.128906e-05  1.496315e-08
     10     13   2   0.50000     0.0600000   -0.1150000   2.793149e-04  1.952537e-07
     10     16   2   0.50000     0.0600000    0.0600000   6.128906e-05  1.496315e-08
     10     17   2   0.50000     0.0600000    0.0600000   6.128906e-05  1.496315e-08
      4     14   2   0.50000    -0.1200000   -0.1150000   1.136815e-03  2.180614e-06
      4     18   2   0.50000    -0.1200000    0.1150000   2.262583e-04  1.374848e-07
     16     14   2   0.50000     0.0600000   -0.1150000   2.793149e-04  1.952537e-07
     16     18   2   0.50000     0.0600000    0.1150000   5.559158e-05  1.231049e-08
     17     14   2   0.50000     0.0600000   -0.1150000   2.793149e-04  1.952537e-07
     17     18   2   0.50000     0.0600000    0.1150000   5.559158e-05  1.231049e-08
     12     15   2   0.50000    -0.1200000   -0.1200000   1.015252e-03  1.866303e-06
     12     19   2   0.50000    -0.1200000    0.1150000   2.262583e-04  1.374848e-07
     18     15   2   0.50000     0.1150000   -0.1200000   2.262583e-04  1.374848e-07
     18     19   2   0.50000     0.1150000    0.1150000   5.042375e-05  1.012808e-08
     13     20   2   0.50000    -0.1150000    0.0600000   2.793149e-04  1.952537e-07
     13     21   2   0.50000    -0.1150000    0.0600000   2.793149e-04  1.952537e-07
     13     22   2   0.50000    -0.1150000   -0.1200000   1.136815e-03  2.180614e-06
     19     20   2   0.50000     0.1150000    0.0600000   5.559158e-05  1.231049e-08
     19     21   2   0.50000     0.1150000    0.0600000   5.559158e-05  1.231049e-08
     19     22   2   0.50000     0.1150000   -0.1200000   2.262583e-04  1.374848e-07
     14     23   2   0.50000    -0.1150000   -0.1150000   1.272933e-03  2.547860e-06
     14     26   2   0.50000    -0.1150000    0.0600000   2.793149e-04  1.952537e-07
     14     27   2   0.50000    -0.1150000    0.0600000   2.793149e-04  1.952537e-07
     20     23   2   0.50000     0.0600000   -0.1150000   2.793149e-04  1.952537e-07
     20     26   2   0.50000     0.0600000    0.0600000   6.128906e-05  1.496315e-08
     20     27   2   0.50000     0.0600000    0.0600000   6.128906e-05  1.496315e-08
     21     23   2   0.50000     0.0600000   -0.1150000   2.793149e-04  1.952537e-07
     21     26   2   0.50000     0.0600000    0.0600000   6.128906e-05  1.496315e-08
     21     27   2   0.50000     0.0600000    0.0600000   6.128906e-05  1.496315e-08
     15     24   2   0.50000    -0.1200000   -0.1150000   1.136815e-03  2.180614e-06
     15     28   2   0.50000    -0.1200000    0.1150000   2.262583e-04  1.374848e-07
     26     24   2   0.50000     0.0600000   -0.1150000   2.793149e-04  1.952537e-07
     26     28   2   0.50000     0.0600000    0.1150000   5.559158e-05  1.231049e-08
     27     24   2   0.50000     0.0600000   -0.1150000   2.793149e-04  1.952537e-07
     27     28   2   0.50000     0.0600000    0.1150000   5.559158e-05  1.231049e-08
     22     25   2   0.50000    -0.1200000   -0.1200000   1.015252e-03  1.866303e-06
     22     29   2   0.50000    -0.1200000    0.1150000   2.262583e-04  1.374848e-07
     28     25   2   0.50000     0.1150000   -0.1200000   2.262583e-04  1.374848e-07
     28     29   2   0.50000     0.1150000    0.1150000   5.042375e-05  1.012808e-08
     23     30   2   0.50000    -0.1150000    0.0600000   2.793149e-04  1.952537e-07
     23     31   2   0.50000    -0.1150000    0.0600000   2.793149e-04  1.952537e-07
     23     32   2   0.50000    -0.1150000   -0.1200000   1.136815e-03  2.180614e-06
     29     30   2   0.50000     0.1150000    0.0600000   5.559158e-05  1.231049e-08
     29     31   2   0.50000     0.1150000    0.0600000   5.559158e-05  1.231049e-08
     29     32   2   0.50000     0.1150000   -0.1200000   2.262583e-04  1.374848e-07
     24     33   2   0.50000    -0.1150000   -0.1150000   1.272933e-03  2.547860e-06
     24     36   2   0.50000    -0.1150000    0.0600000   2.793149e-04  1.952537e-07
     24     37   2   0.50000    -0.1150000    0.0600000   2.793149e-04  1.952537e-07
     30     33   2   0.50000     0.0600000   -0.1150000   2.793149e-04  1.952537e-07
     30     36   2   0.50000     0.0600000    0.0600000   6.128906e-05  1.496315e-08
     30     37   2   0.50000     0.0600000    0.0600000   6.128906e-05  1.496315e-08
     31     33   2   0.50000     0.0600000   -0.1150000   2.793149e-04  1.952537e-07
     31     36   2   0.50000     0.0600000    0.0600000   6.128906e-05  1.496315e-08
     31     37   2   0.50000     0.0600000    0.0600000   6.128906e-05  1.496315e-08
     25     34   2   0.50000    -0.1200000   -0.1150000   1.136815e-03  2.180614e-06
     25     38   2   0.50000    -0.1200000    0.1150000   2.262583e-04  1.374848e-07
     36     34   2   0.50000     0.0600000   -0.1150000   2.793149e-04  1.952537e-07
     36     38   2   0.50000     0.0600000    0.1150000   5.559158e-05  1.231049e-08
     37     34   2   0.50000     0.0600000   -0.1150000   2.793149e-04  1.952537e-07
     37     38   2   0.50000     0.0600000    0.1150000   5.559158e-05  1.231049e-08
     32     35   2   0.50000    -0.1200000   -0.1200000   1.015252e-03  1.866303e-06
     32     39   2   0.50000    -0.1200000    0.1150000   2.262583e-04  1.374848e-07
     38     35   2   0.50000     0.1150000   -0.1200000   2.262583e-04  1.374848e-07
     38     39   2   0.50000     0.1150000    0.1150000   5.042375e-05  1.012808e-08
     33     40   2   0.50000    -0.1150000    0.0600000   2.793149e-04  1.952537e-07
     33     41   2   0.50000    -0.1150000    0.0600000   2.793149e-04  1.952537e-07
     33     42   2   0.50000    -0.1150000   -0.1200000   1.136815e-03  2.180614e-06
     39     40   2   0.50000     0.1150000    0.0600000   5.559158e-05  1.231049e-08
     39     41   2   0.50000     0.1150000    0.0600000   5.559158e-05  1.231049e-08
     39     42   2   0.50000     0.1150000   -0.1200000   2.262583e-04  1.374848e-07
     34     43   2   0.50000    -0.1150000   -0.1150000   1.272933e-03  2.547860e-06
     34     46   2   0.50000    -0.1150000    0.0600000   2.793149e-04  1.952537e-07
     34     47   2   0.50000    -0.1150000    0.0600000   2.793149e-04  1.952537e-07
     40     43   2   0.50000     0.0600000   -0.1150000   2.793149e-04  1.952537e-07
     40     46   2   0.50000     0.0600000    0.0600000   6.128906e-05  1.496315e-08
     40     47   2   0.50000     0.0600000    0.0600000   6.128906e-05  1.496315e-08
     41     43   2   0.50000     0.0600000   -0.1150000   2.793149e-04  1.952537e-07
     41     46   2   0.50000     0.0600000    0.0600000   6.128906e-05  1.496315e-08
     41     47   2   0.50000     0.0600000    0.0600000   6.128906e-05  1.496315e-08
     35     44   2   0.50000    -0.1200000   -0.1150000   1.136815e-03  2.180614e-06
     35     48   2   0.50000    -0.1200000    0.1150000   2.262583e-04  1.374848e-07
     46     44   2   0.50000     0.0600000   -0.1150000   2.793149e-04  1.952537e-07
     46     48   2   0.50000     0.0600000    0.1150000   5.559158e-05  1.231049e-08
     47     44   2   0.50000     0.0600000   -0.1150000   2.793149e-04  1.952537e-07
     47     48   2   0.50000     0.0600000    0.1150000   5.559158e-05  1.231049e-08
     42     45   2   0.50000    -0.1200000   -0.1200000   1.015252e-03  1.866303e-06
     42     49   2   0.50000    -0.1200000    0.1150000   2.262583e-04  1.374848e-07
     48     45   2   0.50000     0.1150000   -0.1200000   2.262583e-04  1.374848e-07
     48     49   2   0.50000     0.1150000    0.1150000   5.042375e-05  1.012808e-08
     43     50   2   0.50000    -0.1150000    0.0600000   2.793149e-04  1.952537e-07
     43     51   2   0.50000    -0.1150000    0.0600000   2.793149e-04  1.952537e-07
     43     52   2   0.50000    -0.1150000   -0.1200000   1.136815e-03  2.180614e-06
     49     50   2   0.50000     0.1150000    0.0600000   5.559158e-05  1.231049e-08
     49     51   2   0.50000     0.1150000    0.0600000   5.559158e-05  1.231049e-08
     49     52   2   0.50000     0.1150000   -0.1200000   2.262583e-04  1.374848e-07
     44     53   2   0.50000    -0.1150000   -0.1150000   1.272933e-03  2.547860e-06
     44     56   2   0.50000    -0.1150000    0.0600000   2.793149e-04  1.952537e-07
     44     57   2   0.50000    -0.1150000    0.0600000   2.793149e-04  1.952537e-07
     50     53   2   0.50000     0.0600000   -0.1150000   2.793149e-04  1.952537e-07
     50     56   2   0.50000     0.0600000    0.0600000   6.128906e-05  1.496315e-08
     50     57   2   0.50000     0.0600000    0.0600000   6.128906e-05  1.496315e-08
     51     53   2   0.50000     0.0600000   -0.1150000   2.793149e-04  1.952537e-07
     51     56   2   0.50000     0.0600000    0.0600000   6.128906e-05  1.496315e-08
     51     57   2   0.50000     0.0600000    0.0600000   6.128906e-05  1.496315e-08
     45     54   2   0.50000    -0.1200000   -0.1150000   1.136815e-03  2.180614e-06
     45     58   2   0.50000    -0.1200000    0.1150000   2.262583e-04  1.374848e-07
     56     54   2   0.50000     0.0600000   -0.1150000   2.793149e-04  1.952537e-07
     56     58   2   0.50000     0.0600000    0.1150000   5.559158e-05  1.231049e-08
     57     54   2   0.50000     0.0600000   -0.1150000   2.793149e-04  1.952537e-07
     57     58   2   0.50000     0.0600000    0.1150000   5.559158e-05  1.231049e-08
     52     55   2   0.50000    -0.1200000   -0.1200000   1.015252e-03  1.866303e-06
     52     59   2   0.50000    -0.1200000    0.1150000   2.262583e-04  1.374848e-07
     58     55   2   0.50000     0.1150000   -0.1200000   2.262583e-04  1.374848e-07
     58     59   2   0.50000     0.1150000    0.1150000   5.042375e-05  1.012808e-08
     53     60   2   0.50000    -0.1150000    0.0600000   2.793149e-04  1.952537e-07
     53     61   2   0.50000    -0.1150000    0.0600000   2.793149e-04  1.952537e-07
     53     62   2   0.50000    -0.1150000   -0.1200000   1.136815e-03  2.180614e-06
     59     60   2   0.50000     0.1150000    0.0600000   5.559158e-05  1.231049e-08
     59     61   2   0.50000     0.1150000    0.0600000   5.559158e-05  1.231049e-08
     59     62   2   0.50000     0.1150000   -0.1200000   2.262583e-04  1.374848e-07
     54     63   2   0.50000    -0.1150000   -0.1150000   1.272933e-03  2.547860e-06
     54     66   2   0.50000    -0.1150000    0.0600000   2.793149e-04  1.952537e-07
     54     67   2   0.50000    -0.1150000    0.0600000   2.793149e-04  1.952537e-07
     60     63   2   0.50000     0.0600000   -0.1150000   2.793149e-04  1.952537e-07
     60     66   2   0.50000     0.0600000    0.0600000   6.128906e-05  1.496315e-08
     60     67   2   0.50000     0.0600000    0.0600000   6.128906e-05  1.496315e-08
     61     63   2   0.50000     0.0600000   -0.1150000   2.793149e-04  1.952537e-07
     61     66   2   0.50000     0.0600000    0.0600000   6.128906e-05  1.496315e-08
     61     67   2   0.50000     0.0600000    0.0600000   6.128906e-05  1.496315e-08
     55     64   2   0.50000    -0.1200000   -0.1150000   1.136815e-03  2.180614e-06
     55     68   2   0.50000    -0.1200000    0.1150000   2.262583e-04  1.374848e-07
     66     64   2   0.50000     0.0600000   -0.1150000   2.793149e-04  1.952537e-07
     66     68   2   0.50000     0.0600000    0.1150000   5.559158e-05  1.231049e-08
     67     64   2   0.50000     0.0600000   -0.1150000   2.793149e-04  1.952537e-07
     67     68   2   0.50000     0.0600000    0.1150000   5.559158e-05  1.231049e-08
     62     65   2   0.50000    -0.1200000   -0.1200000   1.015252e-03  1.866303e-06
     62     69   2   0.50000    -0.1200000    0.1150000   2.262583e-04  1.374848e-07
     68     65   2   0.50000     0.1150000   -0.1200000   2.262583e-04  1.374848e-07
     68     69   2   0.50000     0.1150000    0.1150000   5.042375e-05  1.012808e-08
     63     70   2   0.50000    -0.1150000    0.0600000   2.793149e-04  1.952537e-07
     63     71   2   0.50000    -0.1150000    0.0600000   2.793149e-04  1.952537e-07
     63     72   2   0.50000    -0.1150000   -0.1200000   1.136815e-03  2.180614e-06
     69     70   2   0.50000     0.1150000    0.0600000   5.559158e-05  1.231049e-08
     69     71   2   0.50000     0.1150000    0.0600000   5.559158e-05  1.231049e-08
     69     72   2   0.50000     0.1150000   -0.1200000   2.262583e-04  1.374848e-07
     64     73   2   0.50000    -0.1150000   -0.1150000   1.272933e-03  2.547860e-06
     64     76   2   0.50000    -0.1150000    0.0600000   2.793149e-04  1.952537e-07
     64     77   2   0.50000    -0.1150000    0.0600000   2.793149e-04  1.952537e-07
     70     73   2   0.50000     0.0600000   -0.1150000   2.793149e-04  1.952537e-07
     70     76   2   0.50000     0.0600000    0.0600000   6.128906e-05  1.496315e-08
     70     77   2   0.50000     0.0600000    0.0600000   6.128906e-05  1.496315e-08
     71     73   2   0.50000     0.0600000   -0.1150000   2.793149e-04  1.952537e-07
     71     76   2   0.50000     0.0600000    0.0600000   6.128906e-05  1.496315e-08
     71     77   2   0.50000     0.0600000    0.0600000   6.128906e-05  1.496315e-08
     65     74   2   0.50000    -0.1200000   -0.1150000   1.136815e-03  2.180614e-06
     65     78   2   0.50000    -0.1200000    0.1150000   2.262583e-04  1.374848e-07
     76     74   2   0.50000     0.0600000   -0.1150000   2.793149e-04  1.952537e-07
     76     78   2   0.50000     0.0600000    0.1150000   5.559158e-05  1.231049e-08
     77     74   2   0.50000     0.0600000   -0.1150000   2.793149e-04  1.952537e-07
     77     78   2   0.50000     0.0600000    0.1150000   5.559158e-05  1.231049e-08
     72     75   2   0.50000    -0.1200000   -0.1200000   1.015252e-03  1.866303e-06
     72     79   2   0.50000    -0.1200000    0.1150000   2.262583e-04  1.374848e-07
     78     75   2   0.50000     0.1150000   -0.1200000   2.262583e-04  1.374848e-07
     78     79   2   0.50000     0.1150000    0.1150000   5.042375e-05  1.012808e-08
     73     80   2   0.50000    -0.1150000    0.0600000   2.793149e-04  1.952537e-07
     73     81   2   0.50000    -0.1150000    0.0600000   2.793149e-04  1.952537e-07
     73     82   2   0.50000    -0.1150000   -0.1200000   1.136815e-03  2.180614e-06
     79     80   2   0.50000     0.1150000    0.0600000   5.559158e-05  1.231049e-08
     79     81   2   0.50000     0.1150000    0.0600000   5.559158e-05  1.231049e-08
     79     82   2   0.50000     0.1150000   -0.1200000   2.262583e-04  1.374848e-07
     74     83   2   0.50000    -0.1150000   -0.1150000   1.272933e-03  2.547860e-06
     74     86   2   0.50000    -0.1150000    0.0600000   2.793149e-04  1.952537e-07
     74     87   2   0.50000    -0.1150000    0.0600000   2.793149e-04  1.952537e-07
     80     83   2   0.50000     0.0600000   -0.1150000   2.793149e-04  1.952537e-07
     80     86   2   0.50000     0.0600000    0.0600000   6.128906e-05  1.496315e-08
     80     87   2   0.50000     0.0600000    0.0600000   6.128906e-05  1.496315e-08
     81     83   2   0.50000     0.0600000   -0.1150000   2.793149e-04  1.952537e-07
     81     86   2   0.50000     0.0600000    0.0600000   6.128906e-05  1.496315e-08
     81     87   2   0.50000     0.0600000    0.0600000   6.128906e-05  1.496315e-08
     75     84   2   0.50000    -0.1200000   -0.1150000   1.136815e-03  2.180614e-06
     75     88   2   0.50000    -0.1200000    0.1150000   2.262583e-04  1.374848e-07
     86     84   2   0.50000     0.0600000   -0.1150000   2.793149e-04  1.952537e-07
     86     88   2   0.50000     0.0600000    0.1150000   5.559158e-05  1.231049e-08
     87     84   2   0.50000     0.0600000   -0.1150000   2.793149e-04  1.952537e-07
     87     88   2   0.50000     0.0600000    0.1150000   5.559158e-05  1.231049e-08
     82     85   2   0.50000    -0.1200000   -0.1200000   1.015252e-03  1.866303e-06
     82     89   2   0.50000    -0.1200000    0.1150000   2.262583e-04  1.374848e-07
     88     85   2   0.50000     0.1150000   -0.1200000   2.262583e-04  1.374848e-07
     88     89   2   0.50000     0.1150000    0.1150000   5.042375e-05  1.012808e-08
     83     90   2   0.50000    -0.1150000    0.0600000   2.793149e-04  1.952537e-07
     83     91   2   0.50000    -0.1150000    0.0600000   2.793149e-04  1.952537e-07
     83     92   2   0.50000    -0.1150000   -0.1200000   1.136815e-03  2.180614e-06
     89     90   2   0.50000     0.1150000    0.0600000   5.559158e-05  1.231049e-08
     89     91   2   0.50000     0.1150000    0.0600000   5.559158e-05  1.231049e-08
     89     92   2   0.50000     0.1150000   -0.1200000   2.262583e-04  1.374848e-07
     84     93   2   0.50000    -0.1150000   -0.1150000   1.272933e-03  2.547860e-06
     84     96   2   0.50000    -0.1150000    0.0600000   2.793149e-04  1.952537e-07
     84     97   2   0.50000    -0.1150000    0.0600000   2.793149e-04  1.952537e-07
     90     93   2   0.50000     0.0600000   -0.1150000   2.793149e-04  1.952537e-07
     90     96   2   0.50000     0.0600000    0.0600000   6.128906e-05  1.496315e-08
     90     97   2   0.50000     0.0600000    0.0600000   6.128906e-05  1.496315e-08
     91     93   2   0.50000     0.0600000   -0.1150000   2.793149e-04  1.952537e-07
     91     96   2   0.50000     0.0600000    0.0600000   6.128906e-05  1.496315e-08
     91     97   2   0.50000     0.0600000    0.0600000   6.128906e-05  1.496315e-08
     85     94   2   0.50000    -0.1200000   -0.1150000   1.136815e-03  2.180614e-06
     85     98   2   0.50000    -0.1200000    0.1150000   2.262583e-04  1.374848e-07
     96     94   2   0.50000     0.0600000   -0.1150000   2.793149e-04  1.952537e-07
     96     98   2   0.50000     0.0600000    0.1150000   5.559158e-05  1.231049e-08
     97     94   2   0.50000     0.0600000   -0.1150000   2.793149e-04  1.952537e-07
     97     98   2   0.50000     0.0600000    0.1150000   5.559158e-05  1.231049e-08
     92     95   2   0.50000    -0.1200000   -0.1200000   1.015252e-03  1.866303e-06
     92     99   2   0.50000    -0.1200000    0.1150000   2.262583e-04  1.374848e-07
     98     95   2   0.50000     0.1150000   -0.1200000   2.262583e-04  1.374848e-07
     98     99   2   0.50000     0.1150000    0.1150000   5.042375e-05  1.012808e-08
     93    100   2   0.50000    -0.1150000    0.0600000   2.793149e-04  1.952537e-07
     93    101   2   0.50000    -0.1150000    0.0600000   2.793149e-04  1.952537e-07
     93    102   2   0.50000    -0.1150000   -0.1200000   1.136815e-03  2.180614e-06
     99    100   2   0.50000     0.1150000    0.0600000   5.559158e-05  1.231049e-08
     99    101   2   0.50000     0.1150000    0.0600000   5.559158e-05  1.231049e-08
     99    102   2   0.50000     0.1150000   -0.1200000   2.262583e-04  1.374848e-07
     94    103   2   0.50000    -0.1150000   -0.1150000   1.272933e-03  2.547860e-06
     94    106   2   0.50000    -0.1150000    0.0600000   2.793149e-04  1.952537e-07
     94    107   2   0.50000    -0.1150000    0.0600000   2.793149e-04  1.952537e-07
    100    103   2   0.50000     0.0600000   -0.1150000   2.793149e-04  1.952537e-07
    100    106   2   0.50000     0.0600000    0.0600000   6.128906e-05  1.496315e-08
    100    107   2   0.50000     0.0600000    0.0600000   6.128906e-05  1.496315e-08
    101    103   2   0.50000     0.0600000   -0.1150000   2.793149e-04  1.952537e-07
    101    106   2   0.50000     0.0600000    0.0600000   6.128906e-05  1.496315e-08
    101    107   2   0.50000     0.0600000    0.0600000   6.128906e-05  1.496315e-08
     95    104   2   0.50000    -0.1200000   -0.1150000   1.136815e-03  2.180614e-06
     95    108   2   0.50000    -0.1200000    0.1150000   2.262583e-04  1.374848e-07
    106    104   2   0.50000     0.0600000   -0.1150000   2.793149e-04  1.952537e-07
    106    108   2   0.50000     0.0600000    0.1150000   5.559158e-05  1.231049e-08
    107    104   2   0.50000     0.0600000   -0.1150000   2.793149e-04  1.952537e-07
    107    108   2   0.50000     0.0600000    0.1150000   5.559158e-05  1.231049e-08
    102    105   2   0.50000    -0.1200000   -0.1200000   1.015252e-03  1.866303e-06
    102    109   2   0.50000    -0.1200000    0.1150000   2.262583e-04  1.374848e-07
    108    105   2   0.50000     0.1150000   -0.1200000   2.262583e-04  1.374848e-07
    108    109   2   0.50000     0.1150000    0.1150000   5.042375e-05  1.012808e-08
    103    110   2   0.50000    -0.1150000    0.0600000   2.793149e-04  1.952537e-07
    103    111   2   0.50000    -0.1150000    0.0600000   2.793149e-04  1.952537e-07
    103    112   2   0.50000    -0.1150000   -0.1200000   1.136815e-03  2.180614e-06
    109    110   2   0.50000     0.1150000    0.0600000   5.559158e-05  1.231049e-08
    109    111   2   0.50000     0.1150000    0.0600000   5.559158e-05  1.231049e-08
    109    112   2   0.50000     0.1150000   -0.1200000   2.262583e-04  1.374848e-07
    104    113   2   0.50000    -0.1150000   -0.1150000   1.272933e-03  2.547860e-06
    104    116   2   0.50000    -0.1150000    0.0600000   2.793149e-04  1.952537e-07
    104    117   2   0.50000    -0.1150000    0.0600000   2.793149e-04  1.952537e-07
    110    113   2   0.50000     0.0600000   -0.1150000   2.793149e-04  1.952537e-07
    110    116   2   0.50000     0.0600000    0.0600000   6.128906e-05  1.496315e-08
    110    117   2   0.50000     0.0600000    0.0600000   6.128906e-05  1.496315e-08
    111    113   2   0.50000     0.0600000   -0.1150000   2.793149e-04  1.952537e-07
    111    116   2   0.50000     0.0600000    0.0600000   6.128906e-05  1.496315e-08
    111    117   2   0.50000     0.0600000    0.0600000   6.128906e-05  1.496315e-08
    105    114   2   0.50000    -0.1200000   -0.1150000   1.136815e-03  2.180614e-06
    105    118   2   0.50000    -0.1200000    0.1150000   2.262583e-04  1.374848e-07
    116    114   2   0.50000     0.0600000   -0.1150000   2.793149e-04  1.952537e-07
    116    118   2   0.50000     0.0600000    0.1150000   5.559158e-05  1.231049e-08
    117    114   2   0.50000     0.0600000   -0.1150000   2.793149e-04  1.952537e-07
    117    118   2   0.50000     0.0600000    0.1150000   5.559158e-05  1.231049e-08
    112    115   2   0.50000    -0.1200000   -0.1200000   1.015252e-03  1.866303e-06
    112    119   2   0.50000    -0.1200000    0.1150000   2.262583e-04  1.374848e-07
    118    115   2   0.50000     0.1150000   -0.1200000   2.262583e-04  1.374848e-07
    118    119   2   0.50000     0.1150000    0.1150000   5.042375e-05  1.012808e-08
    113    120   2   0.50000    -0.1150000    0.0600000   2.793149e-04  1.952537e-07
    113    121   2   0.50000    -0.1150000    0.0600000   2.793149e-04  1.952537e-07
    113    122   2   0.50000    -0.1150000   -0.1200000   1.136815e-03  2.180614e-06
    119    120   2   0.50000     0.1150000    0.0600000   5.559158e-05  1.231049e-08
    119    121   2   0.50000     0.1150000    0.0600000   5.559158e-05  1.231049e-08
    119    122   2   0.50000     0.1150000   -0.1200000   2.262583e-04  1.374848e-07
    114    123   2   0.50000    -0.1150000   -0.1150000   1.272933e-03  2.547860e-06
    114    126   2   0.50000    -0.1150000    0.0600000   2.793149e-04  1.952537e-07
    114    127   2   0.50000    -0.1150000    0.0600000   2.793149e-04  1.952537e-07
    120    123   2   0.50000     0.0600000   -0.1150000   2.793149e-04  1.952537e-07
    120    126   2   0.50000     0.0600000    0.0600000   6.128906e-05  1.496315e-08
    120    127   2   0.50000     0.0600000    0.0600000   6.128906e-05  1.496315e-08
    121    123   2   0.50000     0.0600000   -0.1150000   2.793149e-04  1.952537e-07
    121    126   2   0.50000     0.0600000    0.0600000   6.128906e-05  1.496315e-08
    121    127   2   0.50000     0.0600000    0.0600000   6.128906e-05  1.496315e-08
    115    124   2   0.50000    -0.1200000   -0.1150000   1.136815e-03  2.180614e-06
    115    128   2   0.50000    -0.1200000    0.1150000   2.262583e-04  1.374848e-07
    126    124   2   0.50000     0.0600000   -0.1150000   2.793149e-04  1.952537e-07
    126    128   2   0.50000     0.0600000    0.1150000   5.559158e-05  1.231049e-08
    127    124   2   0.50000     0.0600000   -0.1150000   2.793149e-04  1.952537e-07
    127    128   2   0.50000     0.0600000    0.1150000   5.559158e-05  1.231049e-08
    122    125   2   0.50000    -0.1200000   -0.1200000   1.015252e-03  1.866303e-06
    122    129   2   0.50000    -0.1200000    0.1150000   2.262583e-04  1.374848e-07
    128    125   2   0.50000     0.1150000   -0.1200000   2.262583e-04  1.374848e-07
    128    129   2   0.50000     0.1150000    0.1150000   5.042375e-05  1.012808e-08
    123    130   2   0.50000    -0.1150000    0.0600000   2.793149e-04  1.952537e-07
    123    131   2   0.50000    -0.1150000    0.0600000   2.793149e-04  1.952537e-07
    123    132   2   0.50000    -0.1150000   -0.1200000   1.136815e-03  2.180614e-06
    129    130   2   0.50000     0.1150000    0.0600000   5.559158e-05  1.231049e-08
    129    131   2   0.50000     0.1150000    0.0600000   5.559158e-05  1.231049e-08
    129    132   2   0.50000     0.1150000   -0.1200000   2.262583e-04  1.374848e-07
    124    133   2   0.50000    -0.1150000   -0.1150000   1.272933e-03  2.547860e-06
    124    136   2   0.50000    -0.1150000    0.0600000   2.793149e-04  1.952537e-07
    124    137   2   0.50000    -0.1150000    0.0600000   2.793149e-04  1.952537e-07
    130    133   2   0.50000     0.0600000   -0.1150000   2.793149e-04  1.952537e-07
    130    136   2   0.50000     0.0600000    0.0600000   6.128906e-05  1.496315e-08
    130    137   2   0.50000     0.0600000    0.0600000   6.128906e-05  1.496315e-08
    131    133   2   0.50000     0.0600000   -0.1150000   2.793149e-04  1.952537e-07
    131    136   2   0.50000     0.0600000    0.0600000   6.128906e-05  1.496315e-08
    131    137   2   0.50000     0.0600000    0.0600000   6.128906e-05  1.496315e-08
    125    134   2   0.50000    -0.1200000   -0.1150000   1.136815e-03  2.180614e-06
    125    138   2   0.50000    -0.1200000    0.1150000   2.262583e-04  1.374848e-07
    136    134   2   0.50000     0.0600000   -0.1150000   2.793149e-04  1.952537e-07
    136    138   2   0.50000     0.0600000    0.1150000   5.559158e-05  1.231049e-08
    137    134   2   0.50000     0.0600000   -0.1150000   2.793149e-04  1.952537e-07
    137    138   2   0.50000     0.0600000    0.1150000   5.559158e-05  1.231049e-08
    132    135   2   0.50000    -0.1200000   -0.1200000   1.015252e-03  1.866303e-06
    132    139   2   0.50000    -0.1200000    0.1150000   2.262583e-04  1.374848e-07
    138    135   2   0.50000     0.1150000   -0.1200000   2.262583e-04  1.374848e-07
    138    139   2   0.50000     0.1150000    0.1150000   5.042375e-05  1.012808e-08
    133    140   2   0.50000    -0.1150000    0.0600000   2.793149e-04  1.952537e-07
    133    141   2   0.50000    -0.1150000    0.0600000   2.793149e-04  1.952537e-07
    133    142   2   0.50000    -0.1150000   -0.1200000   1.136815e-03  2.180614e-06
    139    140   2   0.50000     0.1150000    0.0600000   5.559158e-05  1.231049e-08
    139    141   2   0.50000     0.1150000    0.0600000   5.559158e-05  1.231049e-08
    139    142   2   0.50000     0.1150000   -0.1200000   2.262583e-04  1.374848e-07
    134    143   2   0.50000    -0.1150000   -0.1150000   1.272933e-03  2.547860e-06
    134    146   2   0.50000    -0.1150000    0.0600000   2.793149e-04  1.952537e-07
    134    147   2   0.50000    -0.1150000    0.0600000   2.793149e-04  1.952537e-07
    140    143   2   0.50000     0.0600000   -0.1150000   2.793149e-04  1.952537e-07
    140    146   2   0.50000     0.0600000    0.0600000   6.128906e-05  1.496315e-08
    140    147   2   0.50000     0.0600000    0.0600000   6.128906e-05  1.496315e-08
    141    143   2   0.50000     0.0600000   -0.1150000   2.793149e-04  1.952537e-07
    141    146   2   0.50000     0.0600000    0.0600000   6.128906e-05  1.496315e-08
    141    147   2   0.50000     0.0600000    0.0600000   6.128906e-05  1.496315e-08
    135    144   2   0.50000    -0.1200000   -0.1150000   1.136815e-03  2.180614e-06
    135    148   2   0.50000    -0.1200000    0.1150000   2.262583e-04  1.374848e-07
    146    144   2   0.50000     0.0600000   -0.1150000   2.793149e-04  1.952537e-07
    146    148   2   0.50000     0.0600000    0.1150000   5.559158e-05  1.231049e-08
    147    144   2   0.50000     0.0600000   -0.1150000   2.793149e-04  1.952537e-07
    147    148   2   0.50000     0.0600000    0.1150000   5.559158e-05  1.231049e-08
    142    145   2   0.50000    -0.1200000   -0.1200000   1.015252e-03  1.866303e-06
    142    149   2   0.50000    -0.1200000    0.1150000   2.262583e-04  1.374848e-07
    148    145   2   0.50000     0.1150000   -0.1200000   2.262583e-04  1.374848e-07
    148    149   2   0.50000     0.1150000    0.1150000   5.042375e-05  1.012808e-08
    143    150   2   0.50000    -0.1150000    0.0600000   2.793149e-04  1.952537e-07
    143    151   2   0.50000    -0.1150000    0.0600000   2.793149e-04  1.952537e-07
    143    152   2   0.50000    -0.1150000   -0.1200000   1.136815e-03  2.180614e-06
    149    150   2   0.50000     0.1150000    0.0600000   5.559158e-05  1.231049e-08
    149    151   2   0.50000     0.1150000    0.0600000   5.559158e-05  1.231049e-08
    149    152   2   0.50000     0.1150000   -0.1200000   2.262583e-04  1.374848e-07
    144    153   2   0.50000    -0.1150000   -0.1150000   1.272933e-03  2.547860e-06
    144    156   2   0.50000    -0.1150000    0.0600000   2.793149e-04  1.952537e-07
    144    157   2   0.50000    -0.1150000    0.0600000   2.793149e-04  1.952537e-07
    150    153   2   0.50000     0.0600000   -0.1150000   2.793149e-04  1.952537e-07
    150    156   2   0.50000     0.0600000    0.0600000   6.128906e-05  1.496315e-08
    150    157   2   0.50000     0.0600000    0.0600000   6.128906e-05  1.496315e-08
    151    153   2   0.50000     0.0600000   -0.1150000   2.793149e-04  1.952537e-07
    151    156   2   0.50000     0.0600000    0.0600000   6.128906e-05  1.496315e-08
    151    157   2   0.50000     0.0600000    0.0600000   6.128906e-05  1.496315e-08
    145    154   2   0.50000    -0.1200000   -0.1150000   1.136815e-03  2.180614e-06
    145    158   2   0.50000    -0.1200000    0.1150000   2.262583e-04  1.374848e-07
    156    154   2   0.50000     0.0600000   -0.1150000   2.793149e-04  1.952537e-07
    156    158   2   0.50000     0.0600000    0.1150000   5.559158e-05  1.231049e-08
    157    154   2   0.50000     0.0600000   -0.1150000   2.793149e-04  1.952537e-07
    157    158   2   0.50000     0.0600000    0.1150000   5.559158e-05  1.231049e-08
    152    155   2   0.50000    -0.1200000   -0.1200000   1.015252e-03  1.866303e-06
    152    159   2   0.50000    -0.1200000    0.1150000   2.262583e-04  1.374848e-07
    158    155   2   0.50000     0.1150000   -0.1200000   2.262583e-04  1.374848e-07
    158    159   2   0.50000     0.1150000    0.1150000   5.042375e-05  1.012808e-08
    153    160   2   0.50000    -0.1150000    0.0600000   2.793149e-04  1.952537e-07
    153    161   2   0.50000    -0.1150000    0.0600000   2.793149e-04  1.952537e-07
    153    162   2   0.50000    -0.1150000   -0.1200000   1.136815e-03  2.180614e-06
    159    160   2   0.50000     0.1150000    0.0600000   5.559158e-05  1.231049e-08
    159    161   2   0.50000     0.1150000    0.0600000   5.559158e-05  1.231049e-08
    159    162   2   0.50000     0.1150000   -0.1200000   2.262583e-04  1.374848e-07
    154    163   2   0.50000    -0.1150000   -0.1150000   1.272933e-03  2.547860e-06
    154    166   2   0.50000    -0.1150000    0.0600000   2.793149e-04  1.952537e-07
    154    167   2   0.50000    -0.1150000    0.0600000   2.793149e-04  1.952537e-07
    160    163   2   0.50000     0.0600000   -0.1150000   2.793149e-04  1.952537e-07
    160    166   2   0.50000     0.0600000    0.0600000   6.128906e-05  1.496315e-08
    160    167   2   0.50000     0.0600000    0.0600000   6.128906e-05  1.496315e-08
    161    163   2   0.50000     0.0600000   -0.1150000   2.793149e-04  1.952537e-07
    161    166   2   0.50000     0.0600000    0.0600000   6.128906e-05  1.496315e-08
    161    167   2   0.50000     0.0600000    0.0600000   6.128906e-05  1.496315e-08
    155    164   2   0.50000    -0.1200000   -0.1150000   1.136815e-03  2.180614e-06
    155    168   2   0.50000    -0.1200000    0.1150000   2.262583e-04  1.374848e-07
    166    164   2   0.50000     0.0600000   -0.1150000   2.793149e-04  1.952537e-07
    166    168   2   0.50000     0.0600000    0.1150000   5.559158e-05  1.231049e-08
    167    164   2   0.50000     0.0600000   -0.1150000   2.793149e-04  1.952537e-07
    167    168   2   0.50000     0.0600000    0.1150000   5.559158e-05  1.231049e-08
    162    165   2   0.50000    -0.1200000   -0.1200000   1.015252e-03  1.866303e-06
    162    169   2   0.50000    -0.1200000    0.1150000   2.262583e-04  1.374848e-07
    168    165   2   0.50000     0.1150000   -0.1200000   2.262583e-04  1.374848e-07
    168    169   2   0.50000     0.1150000    0.1150000   5.042375e-05  1.012808e-08
    163    170   2   0.50000    -0.1150000    0.0600000   2.793149e-04  1.952537e-07
    163    171   2   0.50000    -0.1150000    0.0600000   2.793149e-04  1.952537e-07
    163    172   2   0.50000    -0.1150000   -0.1200000   1.136815e-03  2.180614e-06
    169    170   2   0.50000     0.1150000    0.0600000   5.559158e-05  1.231049e-08
    169    171   2   0.50000     0.1150000    0.0600000   5.559158e-05  1.231049e-08
    169    172   2   0.50000     0.1150000   -0.1200000   2.262583e-04  1.374848e-07
    164    173   2   0.50000    -0.1150000   -0.1150000   1.272933e-03  2.547860e-06
    164    176   2   0.50000    -0.1150000    0.0600000   2.793149e-04  1.952537e-07
    164    177   2   0.50000    -0.1150000    0.0600000   2.793149e-04  1.952537e-07
    170    173   2   0.50000     0.0600000   -0.1150000   2.793149e-04  1.952537e-07
    170    176   2   0.50000     0.0600000    0.0600000   6.128906e-05  1.496315e-08
    170    177   2   0.50000     0.0600000    0.0600000   6.128906e-05  1.496315e-08
    171    173   2   0.50000     0.0600000   -0.1150000   2.793149e-04  1.952537e-07
    171    176   2   0.50000     0.0600000    0.0600000   6.128906e-05  1.496315e-08
    171    177   2   0.50000     0.0600000    0.0600000   6.128906e-05  1.496315e-08
    165    174   2   0.50000    -0.1200000   -0.1150000   1.136815e-03  2.180614e-06
    165    178   2   0.50000    -0.1200000    0.1150000   2.262583e-04  1.374848e-07
    176    174   2   0.50000     0.0600000   -0.1150000   2.793149e-04  1.952537e-07
    176    178   2   0.50000     0.0600000    0.1150000   5.559158e-05  1.231049e-08
    177    174   2   0.50000     0.0600000   -0.1150000   2.793149e-04  1.952537e-07
    177    178   2   0.50000     0.0600000    0.1150000   5.559158e-05  1.231049e-08
    172    175   2   0.50000    -0.1200000   -0.1200000   1.015252e-03  1.866303e-06
    172    179   2   0.50000    -0.1200000    0.1150000   2.262583e-04  1.374848e-07
    178    175   2   0.50000     0.1150000   -0.1200000   2.262583e-04  1.374848e-07
    178    179   2   0.50000     0.1150000    0.1150000   5.042375e-05  1.012808e-08
    173    180   2   0.50000    -0.1150000    0.0600000   2.793149e-04  1.952537e-07
    173    181   2   0.50000    -0.1150000    0.0600000   2.793149e-04  1.952537e-07
    173    182   2   0.50000    -0.1150000   -0.1200000   1.136815e-03  2.180614e-06
    179    180   2   0.50000     0.1150000    0.0600000   5.559158e-05  1.231049e-08
    179    181   2   0.50000     0.1150000    0.0600000   5.559158e-05  1.231049e-08
    179    182   2   0.50000     0.1150000   -0.1200000   2.262583e-04  1.374848e-07
    174    183   2   0.50000    -0.1150000   -0.1150000   1.272933e-03  2.547860e-06
    174    186   2   0.50000    -0.1150000    0.0600000   2.793149e-04  1.952537e-07
    174    187   2   0.50000    -0.1150000    0.0600000   2.793149e-04  1.952537e-07
    180    183   2   0.50000     0.0600000   -0.1150000   2.793149e-04  1.952537e-07
    180    186   2   0.50000     0.0600000    0.0600000   6.128906e-05  1.496315e-08
    180    187   2   0.50000     0.0600000    0.0600000   6.128906e-05  1.496315e-08
    181    183   2   0.50000     0.0600000   -0.1150000   2.793149e-04  1.952537e-07
    181    186   2   0.50000     0.0600000    0.0600000   6.128906e-05  1.496315e-08
    181    187   2   0.50000     0.0600000    0.0600000   6.128906e-05  1.496315e-08
    175    184   2   0.50000    -0.1200000   -0.1150000   1.136815e-03  2.180614e-06
    175    188   2   0.50000    -0.1200000    0.1150000   2.262583e-04  1.374848e-07
    186    184   2   0.50000     0.0600000   -0.1150000   2.793149e-04  1.952537e-07
    186    188   2   0.50000     0.0600000    0.1150000   5.559158e-05  1.231049e-08
    187    184   2   0.50000     0.0600000   -0.1150000   2.793149e-04  1.952537e-07
    187    188   2   0.50000     0.0600000    0.1150000   5.559158e-05  1.231049e-08
    182    185   2   0.50000    -0.1200000   -0.1200000   1.015252e-03  1.866303e-06
    182    189   2   0.50000    -0.1200000    0.1150000   2.262583e-04  1.374848e-07
    188    185   2   0.50000     0.1150000   -0.1200000   2.262583e-04  1.374848e-07
    188    189   2   0.50000     0.1150000    0.1150000   5.042375e-05  1.012808e-08
    183    190   2   0.50000    -0.1150000    0.0600000   2.793149e-04  1.952537e-07
    183    191   2   0.50000    -0.1150000    0.0600000   2.793149e-04  1.952537e-07
    183    192   2   0.50000    -0.1150000   -0.1200000   1.136815e-03  2.180614e-06
    189    190   2   0.50000     0.1150000    0.0600000   5.559158e-05  1.231049e-08
    189    191   2   0.50000     0.1150000    0.0600000   5.559158e-05  1.231049e-08
    189    192   2   0.50000     0.1150000   -0.1200000   2.262583e-04  1.374848e-07
    184    193   2   0.50000    -0.1150000   -0.1150000   1.272933e-03  2.547860e-06
    184    196   2   0.50000    -0.1150000    0.0600000   2.793149e-04  1.952537e-07
    184    197   2   0.50000    -0.1150000    0.0600000   2.793149e-04  1.952537e-07
    190    193   2   0.50000     0.0600000   -0.1150000   2.793149e-04  1.952537e-07
    190    196   2   0.50000     0.0600000    0.0600000   6.128906e-05  1.496315e-08
    190    197   2   0.50000     0.0600000    0.0600000   6.128906e-05  1.496315e-08
    191    193   2   0.50000     0.0600000   -0.1150000   2.793149e-04  1.952537e-07
    191    196   2   0.50000     0.0600000    0.0600000   6.128906e-05  1.496315e-08
    191    197   2   0.50000     0.0600000    0.0600000   6.128906e-05  1.496315e-08
    185    194   2   0.50000    -0.1200000   -0.1150000   1.136815e-03  2.180614e-06
    185    198   2   0.50000    -0.1200000    0.1150000   2.262583e-04  1.374848e-07
    196    194   2   0.50000     0.0600000   -0.1150000   2.793149e-04  1.952537e-07
    196    198   2   0.50000     0.0600000    0.1150000   5.559158e-05  1.231049e-08
    197    194   2   0.50000     0.0600000   -0.1150000   2.793149e-04  1.952537e-07
    197    198   2   0.50000     0.0600000    0.1150000   5.559158e-05  1.231049e-08
    192    195   2   0.50000    -0.1200000   -0.1800000   1.015252e-03  1.866303e-06
    192    199   2   0.50000    -0.1200000    0.1150000   2.262583e-04  1.374848e-07
    198    195   2   0.50000     0.1150000   -0.1800000   2.262583e-04  1.374848e-07
    198    199   2   0.50000     0.1150000    0.1150000   5.042375e-05  1.012808e-08
    193    200   2   0.50000    -0.1150000    0.0600000   2.793149e-04  1.952537e-07
    193    201   2   0.50000    -0.1150000    0.0600000   2.793149e-04  1.952537e-07
    193    202   2   0.50000    -0.1150000    0.0600000   2.793149e-04  1.952537e-07
    199    200   2   0.50000     0.1150000    0.0600000   5.559158e-05  1.231049e-08
    199    201   2   0.50000     0.1150000    0.0600000   5.559158e-05  1.231049e-08
    199    202   2   0.50000     0.1150000    0.0600000   5.559158e-05  1.231049e-08

[ angles ]
; ai  aj  ak
      2      1      5   1    109.5000    292.8800
      2      1      6   1    109.5000    292.8800
      2      1     11   1    109.5000    292.8800
      5      1      6   1    107.8000    276.1440
      5      1     11   1    107.8000    276.1440
      6      1     11   1    107.8000    276.1440
      1      2      3   1    124.0000    585.7600
      1      2      7   1    117.0000    292.8800
      3      2      7   1    120.0000    292.8800
      2      3      4   1    124.0000    585.7600
      2      3      8   1    120.0000    292.8800
      4      3      8   1    117.0000    292.8800
      3      4      9   1    109.5000    292.8800
      3      4     10   1    109.5000    292.8800
      3      4     12   1    112.0270    585.7600
      9      4     10   1    107.8000    276.1440
      9      4     12   1    110.7000    313.8000
     10      4     12   1    110.7000    313.8000
      4     12     13   1    112.0270    585.7600
      4     12     16   1    110.7000    313.8000
      4     12     17   1    110.7000    313.8000
     13     12     16   1    109.5000    292.8800
     13     12     17   1    109.5000    292.8800
     16     12     17   1    107.8000    276.1440
     12     13     14   1    124.0000    585.7600
     12     13     18   1    117.0000    292.8800
     14     13     18   1    120.0000    292.8800
     13     14     15   1    124.0000    585.7600
     13     14     19   1    120.0000    292.8800
     15     14     19   1    117.0000    292.8800
     14     15     20   1    109.5000    292.8800
     14     15     21   1    109.5000    292.8800
     14     15     22   1    112.0270    585.7600
     20     15     21   1    107.8000    276.1440
     20     15     22   1    110.7000    313.8000
     21     15     22   1    110.7000    313.8000
     15     22     23   1    112.0270    585.7600
     15     22     26   1    110.7000    313.8000
     15     22     27   1    110.7000    313.8000
     23     22     26   1    109.5000    292.8800
     23     22     27   1    109.5000    292.8800
     26     22     27   1    107.8000    276.1440
     22     23     24   1    124.0000    585.7600
     22     23     28   1    117.0000    292.8800
     24     23     28   1    120.0000    292.8800
     23     24     25   1    124.0000    585.7600
     23     24     29   1    120.0000    292.8800
     25     24     29   1    117.0000    292.8800
     24     25     30   1    109.5000    292.8800
     24     25     31   1    109.5000    292.8800
     24     25     32   1    112.0270    585.7600
     30     25     31   1    107.8000    276.1440
     30     25     32   1    110.7000    313.8000
     31     25     32   1    110.7000    313.8000
     25     32     33   1    112.0270    585.7600
     25     32     36   1    110.7000    313.8000
     25     32     37   1    110.7000    313.8000
     33     32     36   1    109.5000    292.8800
     33     32     37   1    109.5000    292.8800
     36     32     37   1    107.8000    276.1440
     32     33     34   1    124.0000    585.7600
     32     33     38   1    117.0000    292.8800
     34     33     38   1    120.0000    292.8800
     33     34     35   1    124.0000    585.7600
     33     34     39   1    120.0000    292.8800
     35     34     39   1    117.0000    292.8800
     34     35     40   1    109.5000    292.8800
     34     35     41   1    109.5000    292.8800
     34     35     42   1    112.0270    585.7600
     40     35     41   1    107.8000    276.1440
     40     35     42   1    110.7000    313.8000
     41     35     42   1    110.7000    313.8000
     35     42     43   1    112.0270    585.7600
     35     42     46   1    110.7000    313.8000
     35     42     47   1    110.7000    313.8000
     43     42     46   1    109.5000    292.8800
     43     42     47   1    109.5000    292.8800
     46     42     47   1    107.8000    276.1440
     42     43     44   1    124.0000    585.7600
     42     43     48   1    117.0000    292.8800
     44     43     48   1    120.0000    292.8800
     43     44     45   1    124.0000    585.7600
     43     44     49   1    120.0000    292.8800
     45     44     49   1    117.0000    292.8800
     44     45     50   1    109.5000    292.8800
     44     45     51   1    109.5000    292.8800
     44     45     52   1    112.0270    585.7600
     50     45     51   1    107.8000    276.1440
     50     45     52   1    110.7000    313.8000
     51     45     52   1    110.7000    313.8000
     45     52     53   1    112.0270    585.7600
     45     52     56   1    110.7000    313.8000
     45     52     57   1    110.7000    313.8000
     53     52     56   1    109.5000    292.8800
     53     52     57   1    109.5000    292.8800
     56     52     57   1    107.8000    276.1440
     52     53     54   1    124.0000    585.7600
     52     53     58   1    117.0000    292.8800
     54     53     58   1    120.0000    292.8800
     53     54     55   1    124.0000    585.7600
     53     54     59   1    120.0000    292.8800
     55     54     59   1    117.0000    292.8800
     54     55     60   1    109.5000    292.8800
     54     55     61   1    109.5000    292.8800
     54     55     62   1    112.0270    585.7600
     60     55     61   1    107.8000    276.1440
     60     55     62   1    110.7000    313.8000
     61     55     62   1    110.7000    313.8000
     55     62     63   1    112.0270    585.7600
     55     62     66   1    110.7000    313.8000
     55     62     67   1    110.7000    313.8000
     63     62     66   1    109.5000    292.8800
     63     62     67   1    109.5000    292.8800
     66     62     67   1    107.8000    276.1440
     62     63     64   1    124.0000    585.7600
     62     63     68   1    117.0000    292.8800
     64     63     68   1    120.0000    292.8800
     63     64     65   1    124.0000    585.7600
     63     64     69   1    120.0000    292.8800
     65     64     69   1    117.0000    292.8800
     64     65     70   1    109.5000    292.8800
     64     65     71   1    109.5000    292.8800
     64     65     72   1    112.0270    585.7600
     70     65     71   1    107.8000    276.1440
     70     65     72   1    110.7000    313.8000
     71     65     72   1    110.7000    313.8000
     65     72     73   1    112.0270    585.7600
     65     72     76   1    110.7000    313.8000
     65     72     77   1    110.7000    313.8000
     73     72     76   1    109.5000    292.8800
     73     72     77   1    109.5000    292.8800
     76     72     77   1    107.8000    276.1440
     72     73     74   1    124.0000    585.7600
     72     73     78   1    117.0000    292.8800
     74     73     78   1    120.0000    292.8800
     73     74     75   1    124.0000    585.7600
     73     74     79   1    120.0000    292.8800
     75     74     79   1    117.0000    292.8800
     74     75     80   1    109.5000    292.8800
     74     75     81   1    109.5000    292.8800
     74     75     82   1    112.0270    585.7600
     80     75     81   1    107.8000    276.1440
     80     75     82   1    110.7000    313.8000
     81     75     82   1    110.7000    313.8000
     75     82     83   1    112.0270    585.7600
     75     82     86   1    110.7000    313.8000
     75     82     87   1    110.7000    313.8000
     83     82     86   1    109.5000    292.8800
     83     82     87   1    109.5000    292.8800
     86     82     87   1    107.8000    276.1440
     82     83     84   1    124.0000    585.7600
     82     83     88   1    117.0000    292.8800
     84     83     88   1    120.0000    292.8800
     83     84     85   1    124.0000    585.7600
     83     84     89   1    120.0000    292.8800
     85     84     89   1    117.0000    292.8800
     84     85     90   1    109.5000    292.8800
     84     85     91   1    109.5000    292.8800
     84     85     92   1    112.0270    585.7600
     90     85     91   1    107.8000    276.1440
     90     85     92   1    110.7000    313.8000
     91     85     92   1    110.7000    313.8000
     85     92     93   1    112.0270    585.7600
     85     92     96   1    110.7000    313.8000
     85     92     97   1    110.7000    313.8000
     93     92     96   1    109.5000    292.8800
     93     92     97   1    109.5000    292.8800
     96     92     97   1    107.8000    276.1440
     92     93     94   1    124.0000    585.7600
     92     93     98   1    117.0000    292.8800
     94     93     98   1    120.0000    292.8800
     93     94     95   1    124.0000    585.7600
     93     94     99   1    120.0000    292.8800
     95     94     99   1    117.0000    292.8800
     94     95    100   1    109.5000    292.8800
     94     95    101   1    109.5000    292.8800
     94     95    102   1    112.0270    585.7600
    100     95    101   1    107.8000    276.1440
    100     95    102   1    110.7000    313.8000
    101     95    102   1    110.7000    313.8000
     95    102    103   1    112.0270    585.7600
     95    102    106   1    110.7000    313.8000
     95    102    107   1    110.7000    313.8000
    103    102    106   1    109.5000    292.8800
    103    102    107   1    109.5000    292.8800
    106    102    107   1    107.8000    276.1440
    102    103    104   1    124.0000    585.7600
    102    103    108   1    117.0000    292.8800
    104    103    108   1    120.0000    292.8800
    103    104    105   1    124.0000    585.7600
    103    104    109   1    120.0000    292.8800
    105    104    109   1    117.0000    292.8800
    104    105    110   1    109.5000    292.8800
    104    105    111   1    109.5000    292.8800
    104    105    112   1    112.0270    585.7600
    110    105    111   1    107.8000    276.1440
    110    105    112   1    110.7000    313.8000
    111    105    112   1    110.7000    313.8000
    105    112    113   1    112.0270    585.7600
    105    112    116   1    110.7000    313.8000
    105    112    117   1    110.7000    313.8000
    113    112    116   1    109.5000    292.8800
    113    112    117   1    109.5000    292.8800
    116    112    117   1    107.8000    276.1440
    112    113    114   1    124.0000    585.7600
    112    113    118   1    117.0000    292.8800
    114    113    118   1    120.0000    292.8800
    113    114    115   1    124.0000    585.7600
    113    114    119   1    120.0000    292.8800
    115    114    119   1    117.0000    292.8800
    114    115    120   1    109.5000    292.8800
    114    115    121   1    109.5000    292.8800
    114    115    122   1    112.0270    585.7600
    120    115    121   1    107.8000    276.1440
    120    115    122   1    110.7000    313.8000
    121    115    122   1    110.7000    313.8000
    115    122    123   1    112.0270    585.7600
    115    122    126   1    110.7000    313.8000
    115    122    127   1    110.7000    313.8000
    123    122    126   1    109.5000    292.8800
    123    122    127   1    109.5000    292.8800
    126    122    127   1    107.8000    276.1440
    122    123    124   1    124.0000    585.7600
    122    123    128   1    117.0000    292.8800
    124    123    128   1    120.0000    292.8800
    123    124    125   1    124.0000    585.7600
    123    124    129   1    120.0000    292.8800
    125    124    129   1    117.0000    292.8800
    124    125    130   1    109.5000    292.8800
    124    125    131   1    109.5000    292.8800
    124    125    132   1    112.0270    585.7600
    130    125    131   1    107.8000    276.1440
    130    125    132   1    110.7000    313.8000
    131    125    132   1    110.7000    313.8000
    125    132    133   1    112.0270    585.7600
    125    132    136   1    110.7000    313.8000
    125    132    137   1    110.7000    313.8000
    133    132    136   1    109.5000    292.8800
    133    132    137   1    109.5000    292.8800
    136    132    137   1    107.8000    276.1440
    132    133    134   1    124.0000    585.7600
    132    133    138   1    117.0000    292.8800
    134    133    138   1    120.0000    292.8800
    133    134    135   1    124.0000    585.7600
    133    134    139   1    120.0000    292.8800
    135    134    139   1    117.0000    292.8800
    134    135    140   1    109.5000    292.8800
    134    135    141   1    109.5000    292.8800
    134    135    142   1    112.0270    585.7600
    140    135    141   1    107.8000    276.1440
    140    135    142   1    110.7000    313.8000
    141    135    142   1    110.7000    313.8000
    135    142    143   1    112.0270    585.7600
    135    142    146   1    110.7000    313.8000
    135    142    147   1    110.7000    313.8000
    143    142    146   1    109.5000    292.8800
    143    142    147   1    109.5000    292.8800
    146    142    147   1    107.8000    276.1440
    142    143    144   1    124.0000    585.7600
    142    143    148   1    117.0000    292.8800
    144    143    148   1    120.0000    292.8800
    143    144    145   1    124.0000    585.7600
    143    144    149   1    120.0000    292.8800
    145    144    149   1    117.0000    292.8800
    144    145    150   1    109.5000    292.8800
    144    145    151   1    109.5000    292.8800
    144    145    152   1    112.0270    585.7600
    150    145    151   1    107.8000    276.1440
    150    145    152   1    110.7000    313.8000
    151    145    152   1    110.7000    313.8000
    145    152    153   1    112.0270    585.7600
    145    152    156   1    110.7000    313.8000
    145    152    157   1    110.7000    313.8000
    153    152    156   1    109.5000    292.8800
    153    152    157   1    109.5000    292.8800
    156    152    157   1    107.8000    276.1440
    152    153    154   1    124.0000    585.7600
    152    153    158   1    117.0000    292.8800
    154    153    158   1    120.0000    292.8800
    153    154    155   1    124.0000    585.7600
    153    154    159   1    120.0000    292.8800
    155    154    159   1    117.0000    292.8800
    154    155    160   1    109.5000    292.8800
    154    155    161   1    109.5000    292.8800
    154    155    162   1    112.0270    585.7600
    160    155    161   1    107.8000    276.1440
    160    155    162   1    110.7000    313.8000
    161    155    162   1    110.7000    313.8000
    155    162    163   1    112.0270    585.7600
    155    162    166   1    110.7000    313.8000
    155    162    167   1    110.7000    313.8000
    163    162    166   1    109.5000    292.8800
    163    162    167   1    109.5000    292.8800
    166    162    167   1    107.8000    276.1440
    162    163    164   1    124.0000    585.7600
    162    163    168   1    117.0000    292.8800
    164    163    168   1    120.0000    292.8800
    163    164    165   1    124.0000    585.7600
    163    164    169   1    120.0000    292.8800
    165    164    169   1    117.0000    292.8800
    164    165    170   1    109.5000    292.8800
    164    165    171   1    109.5000    292.8800
    164    165    172   1    112.0270    585.7600
    170    165    171   1    107.8000    276.1440
    170    165    172   1    110.7000    313.8000
    171    165    172   1    110.7000    313.8000
    165    172    173   1    112.0270    585.7600
    165    172    176   1    110.7000    313.8000
    165    172    177   1    110.7000    313.8000
    173    172    176   1    109.5000    292.8800
    173    172    177   1    109.5000    292.8800
    176    172    177   1    107.8000    276.1440
    172    173    174   1    124.0000    585.7600
    172    173    178   1    117.0000    292.8800
    174    173    178   1    120.0000    292.8800
    173    174    175   1    124.0000    585.7600
    173    174    179   1    120.0000    292.8800
    175    174    179   1    117.0000    292.8800
    174    175    180   1    109.5000    292.8800
    174    175    181   1    109.5000    292.8800
    174    175    182   1    112.0270    585.7600
    180    175    181   1    107.8000    276.1440
    180    175    182   1    110.7000    313.8000
    181    175    182   1    110.7000    313.8000
    175    182    183   1    112.0270    585.7600
    175    182    186   1    110.7000    313.8000
    175    182    187   1    110.7000    313.8000
    183    182    186   1    109.5000    292.8800
    183    182    187   1    109.5000    292.8800
    186    182    187   1    107.8000    276.1440
    182    183    184   1    124.0000    585.7600
    182    183    188   1    117.0000    292.8800
    184    183    188   1    120.0000    292.8800
    183    184    185   1    124.0000    585.7600
    183    184    189   1    120.0000    292.8800
    185    184    189   1    117.0000    292.8800
    184    185    190   1    109.5000    292.8800
    184    185    191   1    109.5000    292.8800
    184    185    192   1    112.0270    585.7600
    190    185    191   1    107.8000    276.1440
    190    185    192   1    110.7000    313.8000
    191    185    192   1    110.7000    313.8000
    185    192    193   1    112.0270    585.7600
    185    192    196   1    110.7000    313.8000
    185    192    197   1    110.7000    313.8000
    193    192    196   1    109.5000    292.8800
    193    192    197   1    109.5000    292.8800
    196    192    197   1    107.8000    276.1440
    192    193    194   1    124.0000    585.7600
    192    193    198   1    117.0000    292.8800
    194    193    198   1    120.0000    292.8800
    193    194    195   1    124.0000    585.7600
    193    194    199   1    120.0000    292.8800
    195    194    199   1    117.0000    292.8800
    194    195    200   1    109.5000    292.8800
    194    195    201   1    109.5000    292.8800
    194    195    202   1    109.5000    292.8800
    200    195    201   1    107.8000    276.1440
    200    195    202   1    107.8000    276.1440
    201    195    202   1    107.8000    276.1440

[ dihedrals ]
; Proper dihedrals
      5      1      2      3   5     0.00000     0.00000     0.00000  0.0
      5      1      2      7   5     0.00000     0.00000     2.76981  0.0
      6      1      2      3   5     0.00000     0.00000     0.00000  0.0
      6      1      2      7   5     0.00000     0.00000     2.76981  0.0
     11      1      2      3   5     0.00000     0.00000     0.00000  0.0
     11      1      2      7   5     0.00000     0.00000     2.76981  0.0
      1      2      3      4   5     0.00000    58.57600     0.00000  0.0
      1      2      3      8   5     0.00000    58.57600     0.00000  0.0
      7      2      3      4   5     0.00000    58.57600     0.00000  0.0
      7      2      3      8   5     0.00000    58.57600     0.00000  0.0
      2      3      4      9   5     0.00000     0.00000     0.00000  0.0
      2      3      4     10   5     0.00000     0.00000     0.00000  0.0
      2      3      4     12   5     0.82425     1.27612    -4.23839  0.0
      8      3      4      9   5     0.00000     0.00000     2.76981  0.0
      8      3      4     10   5     0.00000     0.00000     2.76981  0.0
      8      3      4     12   5     0.00000     0.00000     0.00000  0.0
      3      4     12     13   5     2.59408     1.23010     0.63178  0.0
      3      4     12     16   5     0.00000     0.00000     1.25520  0.0
      3      4     12     17   5     0.00000     0.00000     1.25520  0.0
      9      4     12     13   5     0.00000     0.00000     1.25520  0.0
      9      4     12     16   5     0.00000     0.00000     1.25520  0.0
      9      4     12     17   5     0.00000     0.00000     1.25520  0.0
     10      4     12     13   5     0.00000     0.00000     1.25520  0.0
     10      4     12     16   5     0.00000     0.00000     1.25520  0.0
     10      4     12     17   5     0.00000     0.00000     1.25520  0.0
      4     12     13     14   5     0.82425     1.27612    -4.23839  0.0
      4     12     13     18   5     0.00000     0.00000     0.00000  0.0
     16     12     13     14   5     0.00000     0.00000     0.00000  0.0
     16     12     13     18   5     0.00000     0.00000     2.76981  0.0
     17     12     13     14   5     0.00000     0.00000     0.00000  0.0
     17     12     13     18   5     0.00000     0.00000     2.76981  0.0
     12     13     14     15   5     0.00000    58.57600     0.00000  0.0
     12     13     14     19   5     0.00000    58.57600     0.00000  0.0
     18     13     14     15   5     0.00000    58.57600     0.00000  0.0
     18     13     14     19   5     0.00000    58.57600     0.00000  0.0
     13     14     15     20   5     0.00000     0.00000     0.00000  0.0
     13     14     15     21   5     0.00000     0.00000     0.00000  0.0
     13     14     15     22   5     0.82425     1.27612    -4.23839  0.0
     19     14     15     20   5     0.00000     0.00000     2.76981  0.0
     19     14     15     21   5     0.00000     0.00000     2.76981  0.0
     19     14     15     22   5     0.00000     0.00000     0.00000  0.0
     14     15     22     23   5     2.59408     1.23010     0.63178  0.0
     14     15     22     26   5     0.00000     0.00000     1.25520  0.0
     14     15     22     27   5     0.00000     0.00000     1.25520  0.0
     20     15     22     23   5     0.00000     0.00000     1.25520  0.0
     20     15     22     26   5     0.00000     0.00000     1.25520  0.0
     20     15     22     27   5     0.00000     0.00000     1.25520  0.0
     21     15     22     23   5     0.00000     0.00000     1.25520  0.0
     21     15     22     26   5     0.00000     0.00000     1.25520  0.0
     21     15     22     27   5     0.00000     0.00000     1.25520  0.0
     15     22     23     24   5     0.82425     1.27612    -4.23839  0.0
     15     22     23     28   5     0.00000     0.00000     0.00000  0.0
     26     22     23     24   5     0.00000     0.00000     0.00000  0.0
     26     22     23     28   5     0.00000     0.00000     2.76981  0.0
     27     22     23     24   5     0.00000     0.00000     0.00000  0.0
     27     22     23     28   5     0.00000     0.00000     2.76981  0.0
     22     23     24     25   5     0.00000    58.57600     0.00000  0.0
     22     23     24     29   5     0.00000    58.57600     0.00000  0.0
     28     23     24     25   5     0.00000    58.57600     0.00000  0.0
     28     23     24     29   5     0.00000    58.57600     0.00000  0.0
     23     24     25     30   5     0.00000     0.00000     0.00000  0.0
     23     24     25     31   5     0.00000     0.00000     0.00000  0.0
     23     24     25     32   5     0.82425     1.27612    -4.23839  0.0
     29     24     25     30   5     0.00000     0.00000     2.76981  0.0
     29     24     25     31   5     0.00000     0.00000     2.76981  0.0
     29     24     25     32   5     0.00000     0.00000     0.00000  0.0
     24     25     32     33   5     2.59408     1.23010     0.63178  0.0
     24     25     32     36   5     0.00000     0.00000     1.25520  0.0
     24     25     32     37   5     0.00000     0.00000     1.25520  0.0
     30     25     32     33   5     0.00000     0.00000     1.25520  0.0
     30     25     32     36   5     0.00000     0.00000     1.25520  0.0
     30     25     32     37   5     0.00000     0.00000     1.25520  0.0
     31     25     32     33   5     0.00000     0.00000     1.25520  0.0
     31     25     32     36   5     0.00000     0.00000     1.25520  0.0
     31     25     32     37   5     0.00000     0.00000     1.25520  0.0
     25     32     33     34   5     0.82425     1.27612    -4.23839  0.0
     25     32     33     38   5     0.00000     0.00000     0.00000  0.0
     36     32     33     34   5     0.00000     0.00000     0.00000  0.0
     36     32     33     38   5     0.00000     0.00000     2.76981  0.0
     37     32     33     34   5     0.00000     0.00000     0.00000  0.0
     37     32     33     38   5     0.00000     0.00000     2.76981  0.0
     32     33     34     35   5     0.00000    58.57600     0.00000  0.0
     32     33     34     39   5     0.00000    58.57600     0.00000  0.0
     38     33     34     35   5     0.00000    58.57600     0.00000  0.0
     38     33     34     39   5     0.00000    58.57600     0.00000  0.0
     33     34     35     40   5     0.00000     0.00000     0.00000  0.0
     33     34     35     41   5     0.00000     0.00000     0.00000  0.0
     33     34     35     42   5     0.82425     1.27612    -4.23839  0.0
     39     34     35     40   5     0.00000     0.00000     2.76981  0.0
     39     34     35     41   5     0.00000     0.00000     2.76981  0.0
     39     34     35     42   5     0.00000     0.00000     0.00000  0.0
     34     35     42     43   5     2.59408     1.23010     0.63178  0.0
     34     35     42     46   5     0.00000     0.00000     1.25520  0.0
     34     35     42     47   5     0.00000     0.00000     1.25520  0.0
     40     35     42     43   5     0.00000     0.00000     1.25520  0.0
     40     35     42     46   5     0.00000     0.00000     1.25520  0.0
     40     35     42     47   5     0.00000     0.00000     1.25520  0.0
     41     35     42     43   5     0.00000     0.00000     1.25520  0.0
     41     35     42     46   5     0.00000     0.00000     1.25520  0.0
     41     35     42     47   5     0.00000     0.00000     1.25520  0.0
     35     42     43     44   5     0.82425     1.27612    -4.23839  0.0
     35     42     43     48   5     0.00000     0.00000     0.00000  0.0
     46     42     43     44   5     0.00000     0.00000     0.00000  0.0
     46     42     43     48   5     0.00000     0.00000     2.76981  0.0
     47     42     43     44   5     0.00000     0.00000     0.00000  0.0
     47     42     43     48   5     0.00000     0.00000     2.76981  0.0
     42     43     44     45   5     0.00000    58.57600     0.00000  0.0
     42     43     44     49   5     0.00000    58.57600     0.00000  0.0
     48     43     44     45   5     0.00000    58.57600     0.00000  0.0
     48     43     44     49   5     0.00000    58.57600     0.00000  0.0
     43     44     45     50   5     0.00000     0.00000     0.00000  0.0
     43     44     45     51   5     0.00000     0.00000     0.00000  0.0
     43     44     45     52   5     0.82425     1.27612    -4.23839  0.0
     49     44     45     50   5     0.00000     0.00000     2.76981  0.0
     49     44     45     51   5     0.00000     0.00000     2.76981  0.0
     49     44     45     52   5     0.00000     0.00000     0.00000  0.0
     44     45     52     53   5     2.59408     1.23010     0.63178  0.0
     44     45     52     56   5     0.00000     0.00000     1.25520  0.0
     44     45     52     57   5     0.00000     0.00000     1.25520  0.0
     50     45     52     53   5     0.00000     0.00000     1.25520  0.0
     50     45     52     56   5     0.00000     0.00000     1.25520  0.0
     50     45     52     57   5     0.00000     0.00000     1.25520  0.0
     51     45     52     53   5     0.00000     0.00000     1.25520  0.0
     51     45     52     56   5     0.00000     0.00000     1.25520  0.0
     51     45     52     57   5     0.00000     0.00000     1.25520  0.0
     45     52     53     54   5     0.82425     1.27612    -4.23839  0.0
     45     52     53     58   5     0.00000     0.00000     0.00000  0.0
     56     52     53     54   5     0.00000     0.00000     0.00000  0.0
     56     52     53     58   5     0.00000     0.00000     2.76981  0.0
     57     52     53     54   5     0.00000     0.00000     0.00000  0.0
     57     52     53     58   5     0.00000     0.00000     2.76981  0.0
     52     53     54     55   5     0.00000    58.57600     0.00000  0.0
     52     53     54     59   5     0.00000    58.57600     0.00000  0.0
     58     53     54     55   5     0.00000    58.57600     0.00000  0.0
     58     53     54     59   5     0.00000    58.57600     0.00000  0.0
     53     54     55     60   5     0.00000     0.00000     0.00000  0.0
     53     54     55     61   5     0.00000     0.00000     0.00000  0.0
     53     54     55     62   5     0.82425     1.27612    -4.23839  0.0
     59     54     55     60   5     0.00000     0.00000     2.76981  0.0
     59     54     55     61   5     0.00000     0.00000     2.76981  0.0
     59     54     55     62   5     0.00000     0.00000     0.00000  0.0
     54     55     62     63   5     2.59408     1.23010     0.63178  0.0
     54     55     62     66   5     0.00000     0.00000     1.25520  0.0
     54     55     62     67   5     0.00000     0.00000     1.25520  0.0
     60     55     62     63   5     0.00000     0.00000     1.25520  0.0
     60     55     62     66   5     0.00000     0.00000     1.25520  0.0
     60     55     62     67   5     0.00000     0.00000     1.25520  0.0
     61     55     62     63   5     0.00000     0.00000     1.25520  0.0
     61     55     62     66   5     0.00000     0.00000     1.25520  0.0
     61     55     62     67   5     0.00000     0.00000     1.25520  0.0
     55     62     63     64   5     0.82425     1.27612    -4.23839  0.0
     55     62     63     68   5     0.00000     0.00000     0.00000  0.0
     66     62     63     64   5     0.00000     0.00000     0.00000  0.0
     66     62     63     68   5     0.00000     0.00000     2.76981  0.0
     67     62     63     64   5     0.00000     0.00000     0.00000  0.0
     67     62     63     68   5     0.00000     0.00000     2.76981  0.0
     62     63     64     65   5     0.00000    58.57600     0.00000  0.0
     62     63     64     69   5     0.00000    58.57600     0.00000  0.0
     68     63     64     65   5     0.00000    58.57600     0.00000  0.0
     68     63     64     69   5     0.00000    58.57600     0.00000  0.0
     63     64     65     70   5     0.00000     0.00000     0.00000  0.0
     63     64     65     71   5     0.00000     0.00000     0.00000  0.0
     63     64     65     72   5     0.82425     1.27612    -4.23839  0.0
     69     64     65     70   5     0.00000     0.00000     2.76981  0.0
     69     64     65     71   5     0.00000     0.00000     2.76981  0.0
     69     64     65     72   5     0.00000     0.00000     0.00000  0.0
     64     65     72     73   5     2.59408     1.23010     0.63178  0.0
     64     65     72     76   5     0.00000     0.00000     1.25520  0.0
     64     65     72     77   5     0.00000     0.00000     1.25520  0.0
     70     65     72     73   5     0.00000     0.00000     1.25520  0.0
     70     65     72     76   5     0.00000     0.00000     1.25520  0.0
     70     65     72     77   5     0.00000     0.00000     1.25520  0.0
     71     65     72     73   5     0.00000     0.00000     1.25520  0.0
     71     65     72     76   5     0.00000     0.00000     1.25520  0.0
     71     65     72     77   5     0.00000     0.00000     1.25520  0.0
     65     72     73     74   5     0.82425     1.27612    -4.23839  0.0
     65     72     73     78   5     0.00000     0.00000     0.00000  0.0
     76     72     73     74   5     0.00000     0.00000     0.00000  0.0
     76     72     73     78   5     0.00000     0.00000     2.76981  0.0
     77     72     73     74   5     0.00000     0.00000     0.00000  0.0
     77     72     73     78   5     0.00000     0.00000     2.76981  0.0
     72     73     74     75   5     0.00000    58.57600     0.00000  0.0
     72     73     74     79   5     0.00000    58.57600     0.00000  0.0
     78     73     74     75   5     0.00000    58.57600     0.00000  0.0
     78     73     74     79   5     0.00000    58.57600     0.00000  0.0
     73     74     75     80   5     0.00000     0.00000     0.00000  0.0
     73     74     75     81   5     0.00000     0.00000     0.00000  0.0
     73     74     75     82   5     0.82425     1.27612    -4.23839  0.0
     79     74     75     80   5     0.00000     0.00000     2.76981  0.0
     79     74     75     81   5     0.00000     0.00000     2.76981  0.0
     79     74     75     82   5     0.00000     0.00000     0.00000  0.0
     74     75     82     83   5     2.59408     1.23010     0.63178  0.0
     74     75     82     86   5     0.00000     0.00000     1.25520  0.0
     74     75     82     87   5     0.00000     0.00000     1.25520  0.0
     80     75     82     83   5     0.00000     0.00000     1.25520  0.0
     80     75     82     86   5     0.00000     0.00000     1.25520  0.0
     80     75     82     87   5     0.00000     0.00000     1.25520  0.0
     81     75     82     83   5     0.00000     0.00000     1.25520  0.0
     81     75     82     86   5     0.00000     0.00000     1.25520  0.0
     81     75     82     87   5     0.00000     0.00000     1.25520  0.0
     75     82     83     84   5     0.82425     1.27612    -4.23839  0.0
     75     82     83     88   5     0.00000     0.00000     0.00000  0.0
     86     82     83     84   5     0.00000     0.00000     0.00000  0.0
     86     82     83     88   5     0.00000     0.00000     2.76981  0.0
     87     82     83     84   5     0.00000     0.00000     0.00000  0.0
     87     82     83     88   5     0.00000     0.00000     2.76981  0.0
     82     83     84     85   5     0.00000    58.57600     0.00000  0.0
     82     83     84     89   5     0.00000    58.57600     0.00000  0.0
     88     83     84     85   5     0.00000    58.57600     0.00000  0.0
     88     83     84     89   5     0.00000    58.57600     0.00000  0.0
     83     84     85     90   5     0.00000     0.00000     0.00000  0.0
     83     84     85     91   5     0.00000     0.00000     0.00000  0.0
     83     84     85     92   5     0.82425     1.27612    -4.23839  0.0
     89     84     85     90   5     0.00000     0.00000     2.76981  0.0
     89     84     85     91   5     0.00000     0.00000     2.76981  0.0
     89     84     85     92   5     0.00000     0.00000     0.00000  0.0
     84     85     92     93   5     2.59408     1.23010     0.63178  0.0
     84     85     92     96   5     0.00000     0.00000     1.25520  0.0
     84     85     92     97   5     0.00000     0.00000     1.25520  0.0
     90     85     92     93   5     0.00000     0.00000     1.25520  0.0
     90     85     92     96   5     0.00000     0.00000     1.25520  0.0
     90     85     92     97   5     0.00000     0.00000     1.25520  0.0
     91     85     92     93   5     0.00000     0.00000     1.25520  0.0
     91     85     92     96   5     0.00000     0.00000     1.25520  0.0
     91     85     92     97   5     0.00000     0.00000     1.25520  0.0
     85     92     93     94   5     0.82425     1.27612    -4.23839  0.0
     85     92     93     98   5     0.00000     0.00000     0.00000  0.0
     96     92     93     94   5     0.00000     0.00000     0.00000  0.0
     96     92     93     98   5     0.00000     0.00000     2.76981  0.0
     97     92     93     94   5     0.00000     0.00000     0.00000  0.0
     97     92     93     98   5     0.00000     0.00000     2.76981  0.0
     92     93     94     95   5     0.00000    58.57600     0.00000  0.0
     92     93     94     99   5     0.00000    58.57600     0.00000  0.0
     98     93     94     95   5     0.00000    58.57600     0.00000  0.0
     98     93     94     99   5     0.00000    58.57600     0.00000  0.0
     93     94     95    100   5     0.00000     0.00000     0.00000  0.0
     93     94     95    101   5     0.00000     0.00000     0.00000  0.0
     93     94     95    102   5     0.82425     1.27612    -4.23839  0.0
     99     94     95    100   5     0.00000     0.00000     2.76981  0.0
     99     94     95    101   5     0.00000     0.00000     2.76981  0.0
     99     94     95    102   5     0.00000     0.00000     0.00000  0.0
     94     95    102    103   5     2.59408     1.23010     0.63178  0.0
     94     95    102    106   5     0.00000     0.00000     1.25520  0.0
     94     95    102    107   5     0.00000     0.00000     1.25520  0.0
    100     95    102    103   5     0.00000     0.00000     1.25520  0.0
    100     95    102    106   5     0.00000     0.00000     1.25520  0.0
    100     95    102    107   5     0.00000     0.00000     1.25520  0.0
    101     95    102    103   5     0.00000     0.00000     1.25520  0.0
    101     95    102    106   5     0.00000     0.00000     1.25520  0.0
    101     95    102    107   5     0.00000     0.00000     1.25520  0.0
     95    102    103    104   5     0.82425     1.27612    -4.23839  0.0
     95    102    103    108   5     0.00000     0.00000     0.00000  0.0
    106    102    103    104   5     0.00000     0.00000     0.00000  0.0
    106    102    103    108   5     0.00000     0.00000     2.76981  0.0
    107    102    103    104   5     0.00000     0.00000     0.00000  0.0
    107    102    103    108   5     0.00000     0.00000     2.76981  0.0
    102    103    104    105   5     0.00000    58.57600     0.00000  0.0
    102    103    104    109   5     0.00000    58.57600     0.00000  0.0
    108    103    104    105   5     0.00000    58.57600     0.00000  0.0
    108    103    104    109   5     0.00000    58.57600     0.00000  0.0
    103    104    105    110   5     0.00000     0.00000     0.00000  0.0
    103    104    105    111   5     0.00000     0.00000     0.00000  0.0
    103    104    105    112   5     0.82425     1.27612    -4.23839  0.0
    109    104    105    110   5     0.00000     0.00000     2.76981  0.0
    109    104    105    111   5     0.00000     0.00000     2.76981  0.0
    109    104    105    112   5     0.00000     0.00000     0.00000  0.0
    104    105    112    113   5     2.59408     1.23010     0.63178  0.0
    104    105    112    116   5     0.00000     0.00000     1.25520  0.0
    104    105    112    117   5     0.00000     0.00000     1.25520  0.0
    110    105    112    113   5     0.00000     0.00000     1.25520  0.0
    110    105    112    116   5     0.00000     0.00000     1.25520  0.0
    110    105    112    117   5     0.00000     0.00000     1.25520  0.0
    111    105    112    113   5     0.00000     0.00000     1.25520  0.0
    111    105    112    116   5     0.00000     0.00000     1.25520  0.0
    111    105    112    117   5     0.00000     0.00000     1.25520  0.0
    105    112    113    114   5     0.82425     1.27612    -4.23839  0.0
    105    112    113    118   5     0.00000     0.00000     0.00000  0.0
    116    112    113    114   5     0.00000     0.00000     0.00000  0.0
    116    112    113    118   5     0.00000     0.00000     2.76981  0.0
    117    112    113    114   5     0.00000     0.00000     0.00000  0.0
    117    112    113    118   5     0.00000     0.00000     2.76981  0.0
    112    113    114    115   5     0.00000    58.57600     0.00000  0.0
    112    113    114    119   5     0.00000    58.57600     0.00000  0.0
    118    113    114    115   5     0.00000    58.57600     0.00000  0.0
    118    113    114    119   5     0.00000    58.57600     0.00000  0.0
    113    114    115    120   5     0.00000     0.00000     0.00000  0.0
    113    114    115    121   5     0.00000     0.00000     0.00000  0.0
    113    114    115    122   5     0.82425     1.27612    -4.23839  0.0
    119    114    115    120   5     0.00000     0.00000     2.76981  0.0
    119    114    115    121   5     0.00000     0.00000     2.76981  0.0
    119    114    115    122   5     0.00000     0.00000     0.00000  0.0
    114    115    122    123   5     2.59408     1.23010     0.63178  0.0
    114    115    122    126   5     0.00000     0.00000     1.25520  0.0
    114    115    122    127   5     0.00000     0.00000     1.25520  0.0
    120    115    122    123   5     0.00000     0.00000     1.25520  0.0
    120    115    122    126   5     0.00000     0.00000     1.25520  0.0
    120    115    122    127   5     0.00000     0.00000     1.25520  0.0
    121    115    122    123   5     0.00000     0.00000     1.25520  0.0
    121    115    122    126   5     0.00000     0.00000     1.25520  0.0
    121    115    122    127   5     0.00000     0.00000     1.25520  0.0
    115    122    123    124   5     0.82425     1.27612    -4.23839  0.0
    115    122    123    128   5     0.00000     0.00000     0.00000  0.0
    126    122    123    124   5     0.00000     0.00000     0.00000  0.0
    126    122    123    128   5     0.00000     0.00000     2.76981  0.0
    127    122    123    124   5     0.00000     0.00000     0.00000  0.0
    127    122    123    128   5     0.00000     0.00000     2.76981  0.0
    122    123    124    125   5     0.00000    58.57600     0.00000  0.0
    122    123    124    129   5     0.00000    58.57600     0.00000  0.0
    128    123    124    125   5     0.00000    58.57600     0.00000  0.0
    128    123    124    129   5     0.00000    58.57600     0.00000  0.0
    123    124    125    130   5     0.00000     0.00000     0.00000  0.0
    123    124    125    131   5     0.00000     0.00000     0.00000  0.0
    123    124    125    132   5     0.82425     1.27612    -4.23839  0.0
    129    124    125    130   5     0.00000     0.00000     2.76981  0.0
    129    124    125    131   5     0.00000     0.00000     2.76981  0.0
    129    124    125    132   5     0.00000     0.00000     0.00000  0.0
    124    125    132    133   5     2.59408     1.23010     0.63178  0.0
    124    125    132    136   5     0.00000     0.00000     1.25520  0.0
    124    125    132    137   5     0.00000     0.00000     1.25520  0.0
    130    125    132    133   5     0.00000     0.00000     1.25520  0.0
    130    125    132    136   5     0.00000     0.00000     1.25520  0.0
    130    125    132    137   5     0.00000     0.00000     1.25520  0.0
    131    125    132    133   5     0.00000     0.00000     1.25520  0.0
    131    125    132    136   5     0.00000     0.00000     1.25520  0.0
    131    125    132    137   5     0.00000     0.00000     1.25520  0.0
    125    132    133    134   5     0.82425     1.27612    -4.23839  0.0
    125    132    133    138   5     0.00000     0.00000     0.00000  0.0
    136    132    133    134   5     0.00000     0.00000     0.00000  0.0
    136    132    133    138   5     0.00000     0.00000     2.76981  0.0
    137    132    133    134   5     0.00000     0.00000     0.00000  0.0
    137    132    133    138   5     0.00000     0.00000     2.76981  0.0
    132    133    134    135   5     0.00000    58.57600     0.00000  0.0
    132    133    134    139   5     0.00000    58.57600     0.00000  0.0
    138    133    134    135   5     0.00000    58.57600     0.00000  0.0
    138    133    134    139   5     0.00000    58.57600     0.00000  0.0
    133    134    135    140   5     0.00000     0.00000     0.00000  0.0
    133    134    135    141   5     0.00000     0.00000     0.00000  0.0
    133    134    135    142   5     0.82425     1.27612    -4.23839  0.0
    139    134    135    140   5     0.00000     0.00000     2.76981  0.0
    139    134    135    141   5     0.00000     0.00000     2.76981  0.0
    139    134    135    142   5     0.00000     0.00000     0.00000  0.0
    134    135    142    143   5     2.59408     1.23010     0.63178  0.0
    134    135    142    146   5     0.00000     0.00000     1.25520  0.0
    134    135    142    147   5     0.00000     0.00000     1.25520  0.0
    140    135    142    143   5     0.00000     0.00000     1.25520  0.0
    140    135    142    146   5     0.00000     0.00000     1.25520  0.0
    140    135    142    147   5     0.00000     0.00000     1.25520  0.0
    141    135    142    143   5     0.00000     0.00000     1.25520  0.0
    141    135    142    146   5     0.00000     0.00000     1.25520  0.0
    141    135    142    147   5     0.00000     0.00000     1.25520  0.0
    135    142    143    144   5     0.82425     1.27612    -4.23839  0.0
    135    142    143    148   5     0.00000     0.00000     0.00000  0.0
    146    142    143    144   5     0.00000     0.00000     0.00000  0.0
    146    142    143    148   5     0.00000     0.00000     2.76981  0.0
    147    142    143    144   5     0.00000     0.00000     0.00000  0.0
    147    142    143    148   5     0.00000     0.00000     2.76981  0.0
    142    143    144    145   5     0.00000    58.57600     0.00000  0.0
    142    143    144    149   5     0.00000    58.57600     0.00000  0.0
    148    143    144    145   5     0.00000    58.57600     0.00000  0.0
    148    143    144    149   5     0.00000    58.57600     0.00000  0.0
    143    144    145    150   5     0.00000     0.00000     0.00000  0.0
    143    144    145    151   5     0.00000     0.00000     0.00000  0.0
    143    144    145    152   5     0.82425     1.27612    -4.23839  0.0
    149    144    145    150   5     0.00000     0.00000     2.76981  0.0
    149    144    145    151   5     0.00000     0.00000     2.76981  0.0
    149    144    145    152   5     0.00000     0.00000     0.00000  0.0
    144    145    152    153   5     2.59408     1.23010     0.63178  0.0
    144    145    152    156   5     0.00000     0.00000     1.25520  0.0
    144    145    152    157   5     0.00000     0.00000     1.25520  0.0
    150    145    152    153   5     0.00000     0.00000     1.25520  0.0
    150    145    152    156   5     0.00000     0.00000     1.25520  0.0
    150    145    152    157   5     0.00000     0.00000     1.25520  0.0
    151    145    152    153   5     0.00000     0.00000     1.25520  0.0
    151    145    152    156   5     0.00000     0.00000     1.25520  0.0
    151    145    152    157   5     0.00000     0.00000     1.25520  0.0
    145    152    153    154   5     0.82425     1.27612    -4.23839  0.0
    145    152    153    158   5     0.00000     0.00000     0.00000  0.0
    156    152    153    154   5     0.00000     0.00000     0.00000  0.0
    156    152    153    158   5     0.00000     0.00000     2.76981  0.0
    157    152    153    154   5     0.00000     0.00000     0.00000  0.0
    157    152    153    158   5     0.00000     0.00000     2.76981  0.0
    152    153    154    155   5     0.00000    58.57600     0.00000  0.0
    152    153    154    159   5     0.00000    58.57600     0.00000  0.0
    158    153    154    155   5     0.00000    58.57600     0.00000  0.0
    158    153    154    159   5     0.00000    58.57600     0.00000  0.0
    153    154    155    160   5     0.00000     0.00000     0.00000  0.0
    153    154    155    161   5     0.00000     0.00000     0.00000  0.0
    153    154    155    162   5     0.82425     1.27612    -4.23839  0.0
    159    154    155    160   5     0.00000     0.00000     2.76981  0.0
    159    154    155    161   5     0.00000     0.00000     2.76981  0.0
    159    154    155    162   5     0.00000     0.00000     0.00000  0.0
    154    155    162    163   5     2.59408     1.23010     0.63178  0.0
    154    155    162    166   5     0.00000     0.00000     1.25520  0.0
    154    155    162    167   5     0.00000     0.00000     1.25520  0.0
    160    155    162    163   5     0.00000     0.00000     1.25520  0.0
    160    155    162    166   5     0.00000     0.00000     1.25520  0.0
    160    155    162    167   5     0.00000     0.00000     1.25520  0.0
    161    155    162    163   5     0.00000     0.00000     1.25520  0.0
    161    155    162    166   5     0.00000     0.00000     1.25520  0.0
    161    155    162    167   5     0.00000     0.00000     1.25520  0.0
    155    162    163    164   5     0.82425     1.27612    -4.23839  0.0
    155    162    163    168   5     0.00000     0.00000     0.00000  0.0
    166    162    163    164   5     0.00000     0.00000     0.00000  0.0
    166    162    163    168   5     0.00000     0.00000     2.76981  0.0
    167    162    163    164   5     0.00000     0.00000     0.00000  0.0
    167    162    163    168   5     0.00000     0.00000     2.76981  0.0
    162    163    164    165   5     0.00000    58.57600     0.00000  0.0
    162    163    164    169   5     0.00000    58.57600     0.00000  0.0
    168    163    164    165   5     0.00000    58.57600     0.00000  0.0
    168    163    164    169   5     0.00000    58.57600     0.00000  0.0
    163    164    165    170   5     0.00000     0.00000     0.00000  0.0
    163    164    165    171   5     0.00000     0.00000     0.00000  0.0
    163    164    165    172   5     0.82425     1.27612    -4.23839  0.0
    169    164    165    170   5     0.00000     0.00000     2.76981  0.0
    169    164    165    171   5     0.00000     0.00000     2.76981  0.0
    169    164    165    172   5     0.00000     0.00000     0.00000  0.0
    164    165    172    173   5     2.59408     1.23010     0.63178  0.0
    164    165    172    176   5     0.00000     0.00000     1.25520  0.0
    164    165    172    177   5     0.00000     0.00000     1.25520  0.0
    170    165    172    173   5     0.00000     0.00000     1.25520  0.0
    170    165    172    176   5     0.00000     0.00000     1.25520  0.0
    170    165    172    177   5     0.00000     0.00000     1.25520  0.0
    171    165    172    173   5     0.00000     0.00000     1.25520  0.0
    171    165    172    176   5     0.00000     0.00000     1.25520  0.0
    171    165    172    177   5     0.00000     0.00000     1.25520  0.0
    165    172    173    174   5     0.82425     1.27612    -4.23839  0.0
    165    172    173    178   5     0.00000     0.00000     0.00000  0.0
    176    172    173    174   5     0.00000     0.00000     0.00000  0.0
    176    172    173    178   5     0.00000     0.00000     2.76981  0.0
    177    172    173    174   5     0.00000     0.00000     0.00000  0.0
    177    172    173    178   5     0.00000     0.00000     2.76981  0.0
    172    173    174    175   5     0.00000    58.57600     0.00000  0.0
    172    173    174    179   5     0.00000    58.57600     0.00000  0.0
    178    173    174    175   5     0.00000    58.57600     0.00000  0.0
    178    173    174    179   5     0.00000    58.57600     0.00000  0.0
    173    174    175    180   5     0.00000     0.00000     0.00000  0.0
    173    174    175    181   5     0.00000     0.00000     0.00000  0.0
    173    174    175    182   5     0.82425     1.27612    -4.23839  0.0
    179    174    175    180   5     0.00000     0.00000     2.76981  0.0
    179    174    175    181   5     0.00000     0.00000     2.76981  0.0
    179    174    175    182   5     0.00000     0.00000     0.00000  0.0
    174    175    182    183   5     2.59408     1.23010     0.63178  0.0
    174    175    182    186   5     0.00000     0.00000     1.25520  0.0
    174    175    182    187   5     0.00000     0.00000     1.25520  0.0
    180    175    182    183   5     0.00000     0.00000     1.25520  0.0
    180    175    182    186   5     0.00000     0.00000     1.25520  0.0
    180    175    182    187   5     0.00000     0.00000     1.25520  0.0
    181    175    182    183   5     0.00000     0.00000     1.25520  0.0
    181    175    182    186   5     0.00000     0.00000     1.25520  0.0
    181    175    182    187   5     0.00000     0.00000     1.25520  0.0
    175    182    183    184   5     0.82425     1.27612    -4.23839  0.0
    175    182    183    188   5     0.00000     0.00000     0.00000  0.0
    186    182    183    184   5     0.00000     0.00000     0.00000  0.0
    186    182    183    188   5     0.00000     0.00000     2.76981  0.0
    187    182    183    184   5     0.00000     0.00000     0.00000  0.0
    187    182    183    188   5     0.00000     0.00000     2.76981  0.0
    182    183    184    185   5     0.00000    58.57600     0.00000  0.0
    182    183    184    189   5     0.00000    58.57600     0.00000  0.0
    188    183    184    185   5     0.00000    58.57600     0.00000  0.0
    188    183    184    189   5     0.00000    58.57600     0.00000  0.0
    183    184    185    190   5     0.00000     0.00000     0.00000  0.0
    183    184    185    191   5     0.00000     0.00000     0.00000  0.0
    183    184    185    192   5     0.82425     1.27612    -4.23839  0.0
    189    184    185    190   5     0.00000     0.00000     2.76981  0.0
    189    184    185    191   5     0.00000     0.00000     2.76981  0.0
    189    184    185    192   5     0.00000     0.00000     0.00000  0.0
    184    185    192    193   5     2.59408     1.23010     0.63178  0.0
    184    185    192    196   5     0.00000     0.00000     1.25520  0.0
    184    185    192    197   5     0.00000     0.00000     1.25520  0.0
    190    185    192    193   5     0.00000     0.00000     1.25520  0.0
    190    185    192    196   5     0.00000     0.00000     1.25520  0.0
    190    185    192    197   5     0.00000     0.00000     1.25520  0.0
    191    185    192    193   5     0.00000     0.00000     1.25520  0.0
    191    185    192    196   5     0.00000     0.00000     1.25520  0.0
    191    185    192    197   5     0.00000     0.00000     1.25520  0.0
    185    192    193    194   5     0.82425     1.27612    -4.23839  0.0
    185    192    193    198   5     0.00000     0.00000     0.00000  0.0
    196    192    193    194   5     0.00000     0.00000     0.00000  0.0
    196    192    193    198   5     0.00000     0.00000     2.76981  0.0
    197    192    193    194   5     0.00000     0.00000     0.00000  0.0
    197    192    193    198   5     0.00000     0.00000     2.76981  0.0
    192    193    194    195   5     0.00000    58.57600     0.00000  0.0
    192    193    194    199   5     0.00000    58.57600     0.00000  0.0
    198    193    194    195   5     0.00000    58.57600     0.00000  0.0
    198    193    194    199   5     0.00000    58.57600     0.00000  0.0
    193    194    195    200   5     0.00000     0.00000     0.00000  0.0
    193    194    195    201   5     0.00000     0.00000     0.00000  0.0
    193    194    195    202   5     0.00000     0.00000     0.00000  0.0
    199    194    195    200   5     0.00000     0.00000     2.76981  0.0
    199    194    195    201   5     0.00000     0.00000     2.76981  0.0
    199    194    195    202   5     0.00000     0.00000     2.76981  0.0

[ dihedrals ]
; Improper dihedrals
; h   i   j   k   funct
      1      3      2      7   5     0.00000     9.20480     0.00000  0.0
      2      4      3      8   5     0.00000     9.20480     0.00000  0.0
     12     14     13     18   5     0.00000     9.20480     0.00000  0.0
     13     15     14     19   5     0.00000     9.20480     0.00000  0.0
     22     24     23     28   5     0.00000     9.20480     0.00000  0.0
     23     25     24     29   5     0.00000     9.20480     0.00000  0.0
     32     34     33     38   5     0.00000     9.20480     0.00000  0.0
     33     35     34     39   5     0.00000     9.20480     0.00000  0.0
     42     44     43     48   5     0.00000     9.20480     0.00000  0.0
     43     45     44     49   5     0.00000     9.20480     0.00000  0.0
     52     54     53     58   5     0.00000     9.20480     0.00000  0.0
     53     55     54     59   5     0.00000     9.20480     0.00000  0.0
     62     64     63     68   5     0.00000     9.20480     0.00000  0.0
     63     65     64     69   5     0.00000     9.20480     0.00000  0.0
     72     74     73     78   5     0.00000     9.20480     0.00000  0.0
     73     75     74     79   5     0.00000     9.20480     0.00000  0.0
     82     84     83     88   5     0.00000     9.20480     0.00000  0.0
     83     85     84     89   5     0.00000     9.20480     0.00000  0.0
     92     94     93     98   5     0.00000     9.20480     0.00000  0.0
     93     95     94     99   5     0.00000     9.20480     0.00000  0.0
    102    104    103    108   5     0.00000     9.20480     0.00000  0.0
    103    105    104    109   5     0.00000     9.20480     0.00000  0.0
    112    114    113    118   5     0.00000     9.20480     0.00000  0.0
    113    115    114    119   5     0.00000     9.20480     0.00000  0.0
    122    124    123    128   5     0.00000     9.20480     0.00000  0.0
    123    125    124    129   5     0.00000     9.20480     0.00000  0.0
    132    134    133    138   5     0.00000     9.20480     0.00000  0.0
    133    135    134    139   5     0.00000     9.20480     0.00000  0.0
    142    144    143    148   5     0.00000     9.20480     0.00000  0.0
    143    145    144    149   5     0.00000     9.20480     0.00000  0.0
    152    154    153    158   5     0.00000     9.20480     0.00000  0.0
    153    155    154    159   5     0.00000     9.20480     0.00000  0.0
    162    164    163    168   5     0.00000     9.20480     0.00000  0.0
    163    165    164    169   5     0.00000     9.20480     0.00000  0.0
    172    174    173    178   5     0.00000     9.20480     0.00000  0.0
    173    175    174    179   5     0.00000     9.20480     0.00000  0.0
    182    184    183    188   5     0.00000     9.20480     0.00000  0.0
    183    185    184    189   5     0.00000     9.20480     0.00000  0.0
    192    194    193    198   5     0.00000     9.20480     0.00000  0.0
    193    195    194    199   5     0.00000     9.20480     0.00000  0.0
