integrator  = steep
    emtol          = 500
    emstep         = 0.01
    nsteps         = 500000
    nstenergy      = 500
    nstlog         = 500

    ; Change this to XTC
    xtc-grps                = System   ; Define the groups for XTC output

    ; Parameters describing how to find the neighbors of each atom and how to calculate the interactions
    nstlist         = 1
    cutoff-scheme   = Verlet
    ns_type         = grid
    coulombtype     = PME
    rcoulomb        = 1.0
    rvdw            = 1.0
    pbc             = xyz
    
