; Run parameters
integrator              = md
nsteps                  = 250000
dt                      = 0.001

; Output control
nstxout                 = 0      ; suppress bulky .trr file by specifying
nstvout                 = 0      ; 0 for output frequency of nstxout,
nstfout                 = 0         ; nstvout, and nstfout
nstenergy               = 5000      ; save energies every 10.0 ps
nstlog                  = 5000      ; update log file every 10.0 ps
nstxout-compressed      = 5000      ; save compressed coordinates every 10.0 ps
compressed-x-grps       = System    ; save the whole system

; Bond parameters
continuation            = yes
constraint_algorithm    = lincs
constraints             = h-bonds
lincs_iter              = 1
lincs_order             = 4

; Nonbonded settings
cutoff-scheme           = Verlet
nstlist                 = 10
rcoulomb                = 0.5
rvdw                    = 0.5
DispCorr                = EnerPres

; Electrostatics
coulombtype             = PME
pme_order               = 4
fourierspacing          = 0.16
; Temperature coupling is on
tcoupl                  = V-rescale
tc-grps                 = System
tau_t                   = 2.0
ref_t                   = 298
; Pressure coupling is on
pcoupl                  = C-rescale
pcoupltype              = isotropic
tau_p                   = 2.0
ref_p                   = 1000.0
compressibility         = 4.5e-5
refcoord_scaling        = com

; Periodic boundary conditions
pbc                     = xyz

; Velocity generation
gen_vel                 = no
